
                                 *****************
                                 * O   R   C   A *
                                 *****************

           --- An Ab Initio, DFT and Semiempirical electronic structure package ---

                  #######################################################
                  #                        -***-                        #
                  #          Department of theory and spectroscopy      #
                  #               Directorship: Frank Neese             #
                  #        Max Planck Institute fuer Kohlenforschung    #
                  #                Kaiser Wilhelm Platz 1               #
                  #                 D-45470 Muelheim/Ruhr               #
                  #                      Germany                        #
                  #                                                     #
                  #                  All rights reserved                #
                  #                        -***-                        #
                  #######################################################


                         Program Version 4.2.0 -  RELEASE  -


 With contributions from (in alphabetic order):
   Daniel Aravena         : Magnetic Suceptibility
   Michael Atanasov       : Ab Initio Ligand Field Theory (pilot matlab implementation)
   Alexander A. Auer      : GIAO ZORA, VPT2
   Ute Becker             : Parallelization
   Giovanni Bistoni       : ED, misc. LED, open-shell LED, HFLED
   Martin Brehm           : Molecular dynamics
   Dmytro Bykov           : SCF Hessian
   Vijay G. Chilkuri      : MRCI spin determinant printing, contributions to CSF-ICE
   Dipayan Datta          : RHF DLPNO-CCSD density
   Achintya Kumar Dutta   : EOM-CC, STEOM-CC
   Dmitry Ganyushin       : Spin-Orbit,Spin-Spin,Magnetic field MRCI
   Miquel Garcia          : C-PCM Hessian, Gaussian charge scheme
   Yang Guo               : DLPNO-NEVPT2, CIM, IAO-localization
   Andreas Hansen         : Spin unrestricted coupled pair/coupled cluster methods
   Benjamin Helmich-Paris : CASSCF linear response (MC-RPA)
   Lee Huntington         : MR-EOM, pCC
   Robert Izsak           : Overlap fitted RIJCOSX, COSX-SCS-MP3, EOM
   Christian Kollmar      : KDIIS, OOCD, Brueckner-CCSD(T), CCSD density
   Simone Kossmann        : Meta GGA functionals, TD-DFT gradient, OOMP2, MP2 Hessian
   Martin Krupicka        : AUTO-CI
   Lucas Lang             : DCDCAS
   Dagmar Lenk            : GEPOL surface, SMD
   Dimitrios Liakos       : Extrapolation schemes; Compound Job, initial MDCI parallelization
   Dimitrios Manganas     : Further ROCIS development; embedding schemes
   Dimitrios Pantazis     : SARC Basis sets
   Taras Petrenko         : DFT Hessian,TD-DFT gradient, ASA, ECA, R-Raman, ABS, FL, XAS/XES, NRVS
   Peter Pinski           : DLPNO-MP2, DLPNO-MP2 Gradient
   Christoph Reimann      : Effective Core Potentials
   Marius Retegan         : Local ZFS, SOC
   Christoph Riplinger    : Optimizer, TS searches, QM/MM, DLPNO-CCSD(T), (RO)-DLPNO pert. Triples
   Tobias Risthaus        : Range-separated hybrids, TD-DFT gradient, RPA, STAB
   Michael Roemelt        : Original ROCIS implementation
   Masaaki Saitow         : Open-shell DLPNO-CCSD energy and density
   Barbara Sandhoefer     : DKH picture change effects
   Avijit Sen             : IP-ROCIS
   Kantharuban Sivalingam : CASSCF convergence, NEVPT2, FIC-MRCI
   Bernardo de Souza      : ESD, SOC TD-DFT
   Georgi Stoychev        : AutoAux, RI-MP2 NMR
   Willem Van den Heuvel  : Paramagnetic NMR
   Boris Wezisla          : Elementary symmetry handling
   Frank Wennmohs         : Technical directorship


 We gratefully acknowledge several colleagues who have allowed us to
 interface, adapt or use parts of their codes:
   Stefan Grimme, W. Hujo, H. Kruse,             : VdW corrections, initial TS optimization,
                  C. Bannwarth                     DFT functionals, gCP, sTDA/sTD-DF
   Ed Valeev, F. Pavosevic, A. Kumar             : LibInt (2-el integral package), F12 methods
   Garnet Chan, S. Sharma, J. Yang, R. Olivares  : DMRG
   Ulf Ekstrom                                   : XCFun DFT Library
   Mihaly Kallay                                 : mrcc  (arbitrary order and MRCC methods)
   Andreas Klamt, Michael Diedenhofen            : otool_cosmo (COSMO solvation model)
   Jiri Pittner, Ondrej Demel                    : Mk-CCSD
   Frank Weinhold                                : gennbo (NPA and NBO analysis)
   Christopher J. Cramer and Donald G. Truhlar   : smd solvation model
   Lars Goerigk                                  : TD-DFT with DH, B97 family of functionals
   V. Asgeirsson, H. Jonsson                     : NEB implementation
   FAccTs GmbH                                   : IRC, NEB, NEB-TS, Multilevel, MM, QM/MM, CI optimization
   S Lehtola, MJT Oliveira, MAL Marques          : LibXC Library


 Your calculation uses the libint2 library for the computation of 2-el integrals
 For citations please refer to: http://libint.valeyev.net

 Your ORCA version has been built with support for libXC version: 4.2.3
 For citations please refer to: https://tddft.org/programs/libxc/

 This ORCA versions uses:
   CBLAS   interface :  Fast vector & matrix operations
   LAPACKE interface :  Fast linear algebra routines
   SCALAPACK package :  Parallel linear algebra routines


Your calculation utilizes the atom-pairwise dispersion correction
with the Becke-Johnson damping scheme (D3BJ)
Cite in your paper:
S.Grimme, S.Ehrlich, L.Goerigk, J Comput Chem, (2011), 32, 1456–1465 
S.Grimme, J.Antony, S.Ehrlich and H.Krieg, J.Chem.Phys., 132, (2010), 154104 
   

----- Orbital basis set information -----
Your calculation utilizes the basis: def2-TZVPPD
   F. Weigend and R. Ahlrichs, Phys. Chem. Chem. Phys. 7, 3297 (2005).
   D. Rappoport and F. Furche, J. Chem. Phys. 133 134105 (2010).

----- AuxC basis set information -----
Your calculation utilizes the auxiliary basis: def2-TZVPPD/C
   A. Hellweg, C. Hattig, S. Hofener and W. Klopper, Theor. Chem. Acc. 117, 587 (2007).

----- AuxJK basis set information -----
Your calculation utilizes the auxiliary basis: def2/JK
   H-Ba, Hf-Rn: F. Weigend, J. Comput. Chem. 29, 167 (2008).

cite the ECPs for Ag [Def2-ECP] as follows:
Ce-Yb(ecp-28): M. Dolg, H. Stoll, H.Preuss, J. Chem. Phys., 1989, 90, 1730-1734.
Y-Cd(ecp-28), Hf-Hg(ecp-46): D. Andrae,U. Haeussermann, M. Dolg, H. Stoll, H. Preuss, Theor. Chim. Acta, 1990, 77, 123-141.
In-Sb(ecp-28), Tl-Bi(ecp-46): B. Metz, H. Stoll, M. Dolg, J. Chem. Phys., 2000, 113, 2563-2569.
Te-Xe(ecp-28), Po-Rn(ecp-46): K. A. Peterson, D. Figgen, E. Goll, H. Stoll, M. Dolg, J. Chem. Phys., 2003, 119, 11113-11123.
Rb(ecp-28), Cs(ecp-46): T. Leininger, A. Nicklass, W. Kuechle, H. Stoll, M. Dolg, A. Bergner, Chem. Phys. Lett., 1996, 255, 274-280.
Sr(ecp-28), Ba(ecp-46): M. Kaupp, P. V. Schleyer, H. Stoll and H. Preuss, J. Chem. Phys., 1991, 94, 1360-1366.
La(ecp-46): M. Dolg, H. Stoll, A. Savin, H. Preuss, Theor. Chim. Acta, 1989, 75, 173-194.
Lu(ecp-28): X. Cao, M. Dolg, J. Chem. Phys., 2001, 115, 7348-7355.

ECP parameters for Ag [Def2-ECP] have been obtained from:
TURBOMOLE (7.0.2)

================================================================================
                                        WARNINGS
                       Please study these warnings very carefully!
================================================================================


WARNING: The frozen-core approximation for MP2-gradient calculations is turned on by default.

WARNING: Geometry Optimization
  ===> : Switching off AutoStart
         For restart on a previous wavefunction, please use MOREAD

WARNING: The frozen-core approximation is turned on by default for 
         the MP2 part of double-hybrid DFT.

INFO   : the flag for use of LIBINT has been found!

================================================================================
                                       INPUT FILE
================================================================================
NAME = Ag01N0_H.in
|  1> #
|  2> # Ag01N0_H ri-B2PLYP-D3BJ/Def2-TZVPPD
|  3> #
|  4> ! rijk ri-b2plyp d3bj def2-tzvppd def2/jk def2-tzvppd/c grid4 nofinalgrid opt xyzfile numfreq
|  5> 
|  6> *xyz 0 1
|  7> Ag       0.000000    0.000000    0.033547 
|  8> H        0.000000    0.000000   -1.576706 
|  9> *
| 10> 
| 11> %maxcore 5000
| 12> 
| 13> %pal
| 14> nprocs = 24
| 15> end
| 16> 
| 17> 
| 18>                          ****END OF INPUT****
================================================================================

                       *****************************
                       * Geometry Optimization Run *
                       *****************************

Geometry optimization settings:
Update method            Update   .... BFGS
Choice of coordinates    CoordSys .... Z-matrix Internals
Initial Hessian          InHess   .... Almoef's Model

Convergence Tolerances:
Energy Change            TolE     ....  5.0000e-06 Eh
Max. Gradient            TolMAXG  ....  3.0000e-04 Eh/bohr
RMS Gradient             TolRMSG  ....  1.0000e-04 Eh/bohr
Max. Displacement        TolMAXD  ....  4.0000e-03 bohr
RMS Displacement         TolRMSD  ....  2.0000e-03 bohr
Strict Convergence                ....  False
------------------------------------------------------------------------------
                        ORCA OPTIMIZATION COORDINATE SETUP
------------------------------------------------------------------------------

The optimization will be done in new redundant internal coordinates
Making redundant internal coordinates   ...  (new redundants) done
Evaluating the initial hessian          ...  (Almloef) done
Evaluating the coordinates              ...  done
Calculating the B-matrix                .... done
Calculating the G-matrix                .... done
Diagonalizing the G-matrix              .... done
The first mode is                       ....    0
The number of degrees of freedom        ....    1

    -----------------------------------------------------------------
                    Redundant Internal Coordinates


    -----------------------------------------------------------------
         Definition                    Initial Value    Approx d2E/dq
    -----------------------------------------------------------------
      1. B(H   1,Ag  0)                  1.6103         0.538912   
    -----------------------------------------------------------------

Number of atoms                         .... 2
Number of degrees of freedom            .... 1

         *************************************************************
         *                GEOMETRY OPTIMIZATION CYCLE   1            *
         *************************************************************
---------------------------------
CARTESIAN COORDINATES (ANGSTROEM)
---------------------------------
  Ag     0.000000    0.000000    0.033547
  H      0.000000    0.000000   -1.576706

----------------------------
CARTESIAN COORDINATES (A.U.)
----------------------------
  NO LB      ZA    FRAG     MASS         X           Y           Z
   0 Ag   19.0000*   0   107.870    0.000000    0.000000    0.063395
   1 H     1.0000    0     1.008    0.000000    0.000000   -2.979543
* core charge reduced due to ECP

--------------------------------
INTERNAL COORDINATES (ANGSTROEM)
--------------------------------
 Ag     0   0   0     0.000000000000     0.00000000     0.00000000
 H      1   0   0     1.610253000000     0.00000000     0.00000000

---------------------------
INTERNAL COORDINATES (A.U.)
---------------------------
 Ag     0   0   0     0.000000000000     0.00000000     0.00000000
 H      1   0   0     3.042937176325     0.00000000     0.00000000

---------------------
BASIS SET INFORMATION
---------------------
There are 2 groups of distinct atoms

 Group   1 Type Ag  : 7s7p6d2f1g contracted to 6s4p3d2f1g pattern {211111/4111/411/11/1}
 Group   2 Type H   : 5s3p1d contracted to 3s3p1d pattern {311/111/1}

Atom   0Ag   basis set group =>   1
Atom   1H    basis set group =>   2
---------------------------------
AUXILIARY/C BASIS SET INFORMATION
---------------------------------
There are 2 groups of distinct atoms

 Group   1 Type Ag  : 8s7p6d5f4g3h1i contracted to 8s7p6d5f4g3h1i pattern {11111111/1111111/111111/11111/1111/111/1}
 Group   2 Type H   : 5s4p3d1f contracted to 5s4p3d1f pattern {11111/1111/111/1}

Atom   0Ag   basis set group =>   1
Atom   1H    basis set group =>   2
----------------------------------
AUXILIARY/JK BASIS SET INFORMATION
----------------------------------
There are 2 groups of distinct atoms

 Group   1 Type Ag  : 13s12p10d9f6g3h2i contracted to 11s10p9d8f6g3h2i pattern {31111111111/3111111111/211111111/21111111/111111/111/11}
 Group   2 Type H   : 4s2p2d contracted to 2s2p2d pattern {31/11/11}

Atom   0Ag   basis set group =>   1
Atom   1H    basis set group =>   2
-------------------------
ECP PARAMETER INFORMATION
-------------------------

 Group 1, Type Ag ECP Def2-ECP (replacing 28 core electrons, lmax=3)

Atom   0Ag   ECP group =>   1



           ************************************************************
           *        Program running with 24 parallel MPI-processes    *
           *              working on a common directory               *
           ************************************************************
------------------------------------------------------------------------------
                           ORCA GTO INTEGRAL CALCULATION
                           -- RI-GTO INTEGRALS CHOSEN --
------------------------------------------------------------------------------

                         BASIS SET STATISTICS AND STARTUP INFO

Gaussian basis set:
 # of primitive gaussian shells          ...   32
 # of primitive gaussian functions       ...  100
 # of contracted shells                  ...   23
 # of contracted basis functions         ...   73
 Highest angular momentum                ...    4
 Maximum contraction depth               ...    4
Auxiliary gaussian basis set:
 # of primitive gaussian shells          ...   63
 # of primitive gaussian functions       ...  295
 # of contracted shells                  ...   55
 # of contracted aux-basis functions     ...  273
 Highest angular momentum                ...    6
 Maximum contraction depth               ...    3
Ratio of auxiliary to basis functions    ...  3.74
Integral package used                  ... LIBINT
 One Electron integrals                  
   ECP integrals                         ... done
 Ordering auxiliary basis shells         ... done
 Integral threshhold             Thresh  ...  2.500e-11
 Primitive cut-off               TCut    ...  2.500e-12
 Pre-screening matrix                    ... done
 Shell pair data                         ... 
 Ordering of the shell pairs             ... done (   0.000 sec) 276 of 276 pairs
 Determination of significant pairs      ... done (   0.000 sec)
 Creation of shell pair data             ... done (   0.000 sec)
 Storage of shell pair data              ... done (   0.044 sec)
 Shell pair data done in (   0.044 sec)
 Computing two index integrals           ... done
 Cholesky decomposition of the V-matrix  ... done


Timings:
 Total evaluation time                   ...   0.251 sec (  0.004 min)
 One electron matrix time                ...   0.055 sec (  0.001 min) = 22.0%
 Schwartz matrix evaluation time         ...   0.092 sec (  0.002 min) = 36.8%
 Two index repulsion integral time       ...   0.029 sec (  0.000 min) = 11.7%
 Cholesky decomposition of V             ...   0.002 sec (  0.000 min) =  0.6%
 Three index repulsion integral time     ...   0.000 sec (  0.000 min) =  0.0%



           ************************************************************
           *        Program running with 24 parallel MPI-processes    *
           *              working on a common directory               *
           ************************************************************
-------------------------------------------------------------------------------
                                 ORCA SCF
-------------------------------------------------------------------------------

------------
SCF SETTINGS
------------
Hamiltonian:
 Density Functional     Method          .... DFT(GTOs)
 Exchange Functional    Exchange        .... B88
   X-Alpha parameter    XAlpha          ....  0.666667
   Becke's b parameter  XBeta           ....  0.004200
 Correlation Functional Correlation     .... LYP
 LDA part of GGA corr.  LDAOpt          .... VWN-3
 Gradients option       PostSCFGGA      .... off
 Hybrid DFT is turned on
   Fraction HF Exchange ScalHFX         ....  0.530000
   Scaling of DF-GGA-X  ScalDFX         ....  0.470000
   Scaling of DF-GGA-C  ScalDFC         ....  0.730000
   Scaling of DF-LDA-C  ScalLDAC        ....  0.730000
   Perturbative correction              ....  0.270000
   Density functional embedding theory  .... OFF
 RI-approximation to the Coulomb term is turned on
   Number of auxiliary basis functions  .... 273
   RI-JK (J+K treated both via RI)      .... on


General Settings:
 Integral files         IntName         .... Ag01N0_H
 Hartree-Fock type      HFTyp           .... RHF
 Total Charge           Charge          ....    0
 Multiplicity           Mult            ....    1
 Number of Electrons    NEL             ....   20
 Basis Dimension        Dim             ....   73
 Nuclear Repulsion      ENuc            ....      6.2439672261 Eh

Convergence Acceleration:
 DIIS                   CNVDIIS         .... on
   Start iteration      DIISMaxIt       ....    12
   Startup error        DIISStart       ....  0.200000
   # of expansion vecs  DIISMaxEq       ....     5
   Bias factor          DIISBfac        ....   1.050
   Max. coefficient     DIISMaxC        ....  10.000
 Newton-Raphson         CNVNR           .... off
 SOSCF                  CNVSOSCF        .... off
 Level Shifting         CNVShift        .... on
   Level shift para.    LevelShift      ....    0.2500
   Turn off err/grad.   ShiftErr        ....    0.0010
 Zerner damping         CNVZerner       .... off
 Static damping         CNVDamp         .... on
   Fraction old density DampFac         ....    0.7000
   Max. Damping (<1)    DampMax         ....    0.9800
   Min. Damping (>=0)   DampMin         ....    0.0000
   Turn off err/grad.   DampErr         ....    0.1000
 Fernandez-Rico         CNVRico         .... off

SCF Procedure:
 Maximum # iterations   MaxIter         ....   125
 SCF integral mode      SCFMode         .... Direct
   Integral package                     .... LIBINT
 Reset frequency        DirectResetFreq ....    20
 Integral Threshold     Thresh          ....  2.500e-11 Eh
 Primitive CutOff       TCut            ....  2.500e-12 Eh

Convergence Tolerance:
 Convergence Check Mode ConvCheckMode   .... Total+1el-Energy
 Convergence forced     ConvForced      .... 0
 Energy Change          TolE            ....  1.000e-08 Eh
 1-El. energy change                    ....  1.000e-05 Eh
 DIIS Error             TolErr          ....  5.000e-07


Diagonalization of the overlap matrix:
Smallest eigenvalue                        ... 3.316e-03
Time for diagonalization                   ...    0.003 sec
Threshold for overlap eigenvalues          ... 1.000e-08
Number of eigenvalues below threshold      ... 0
Time for construction of square roots      ...    0.001 sec
Total time needed                          ...    0.004 sec

-------------------
DFT GRID GENERATION
-------------------

General Integration Accuracy     IntAcc      ...  4.670
Radial Grid Type                 RadialGrid  ... Gauss-Chebyshev
Angular Grid (max. acc.)         AngularGrid ... Lebedev-302
Angular grid pruning method      GridPruning ... 3 (G Style)
Weight generation scheme         WeightScheme... Becke
Basis function cutoff            BFCut       ...    1.0000e-11
Integration weight cutoff        WCut        ...    1.0000e-14
Grids for H and He will be reduced by one unit

# of grid points (after initial pruning)     ...  14052 (   0.0 sec)
# of grid points (after weights+screening)   ...  13996 (   0.0 sec)
nearest neighbour list constructed           ...    0.0 sec
Grid point re-assignment to atoms done       ...    0.0 sec
Grid point division into batches done        ...    0.1 sec
Reduced shell lists constructed in    0.1 sec

Total number of grid points                  ...    13996
Total number of batches                      ...      220
Average number of points per batch           ...       63
Average number of grid points per atom       ...     6998
Average number of shells per batch           ...     2.27 ( 9.88%)
Average number of basis functions per batch  ...     4.82 ( 6.60%)
Average number of large shells per batch     ...     2.09 (92.00%)
Average number of large basis fcns per batch ...     4.09 (84.91%)
Average number of aux-shells per batch       ...     2.27 ( 4.13%)
Average number of aux functions per batch    ...     4.82 ( 1.76%)
Maximum spatial batch extension              ...  40.43, 36.77, 24.60 au
Average spatial batch extension              ...   1.31,  1.23,  0.88 au

Time for grid setup =    0.139 sec

------------------------------
INITIAL GUESS: MODEL POTENTIAL
------------------------------
Loading Hartree-Fock densities                     ... done
  calling /sw/apps/orca/orca_4_2_0_linux_x86-64_openmpi314/orca Ag01N0_H_atom47.inp > Ag01N0_H_atom47.out in order to generate an atomic fitting density for atom 0 (Ag with ECP) on-the-fly... 
    atom 0 (Ag), assumed electronic state with S=2: 1s2 2s2 2p6 3s2 3p6 4s2 3d10 4p6 5s2 4d9           ... done
Calculating cut-offs                               ... done
Setting up the integral package                    ... done
Initializing the effective Hamiltonian             ... done
Starting the Coulomb interaction                   ... done (   0.0 sec)
Reading the grid                                   ... done
Mapping shells                                     ... done
Starting the XC term evaluation                    ... done (   0.0 sec)
  promolecular density results
     # of electrons  =     48.000708508
     EX              =   -144.353713005
     EC              =     -0.902382163
     EX+EC           =   -145.256095168
Transforming the Hamiltonian                       ... done (   0.0 sec)
Diagonalizing the Hamiltonian                      ... done (   0.0 sec)
Back transforming the eigenvectors                 ... done (   0.0 sec)
Now organizing SCF variables                       ... done
                      ------------------
                      INITIAL GUESS DONE (   1.4 sec)
                      ------------------
--------------
SCF ITERATIONS
--------------
ITER       Energy         Delta-E        Max-DP      RMS-DP      [F,P]     Damp
  0   -147.1766872744   0.000000000000 0.10196272  0.00290633  0.4884442 0.7000
  1   -147.0831395336   0.093547740749 0.06733568  0.00221753  0.3379977 0.7000
  2   -147.1264890972  -0.043349563588 0.02891341  0.00111347  0.2210974 0.7000
                               ***Turning on DIIS***
  3   -147.1950453852  -0.068556287974 0.01386495  0.00053960  0.1479112 0.7000
  4   -147.2378444600  -0.042799074852 0.01483970  0.00040406  0.1029382 0.7000
  5   -147.2591608638  -0.021316403738 0.07721496  0.00150396  0.0743217 0.0000
  6   -147.2539688117   0.005192052095 0.00746425  0.00034880  0.0156812 0.0000
  7   -147.2545425500  -0.000573738344 0.00413075  0.00013272  0.0056643 0.0000
  8   -147.2545932667  -0.000050716674 0.00263065  0.00007642  0.0025918 0.0000
  9   -147.2546134293  -0.000020162578 0.00251743  0.00005651  0.0006393 0.0000
 10   -147.2546157819  -0.000002352618 0.00016162  0.00000796  0.0001941 0.0000
 11   -147.2546159324  -0.000000150520 0.00009009  0.00000406  0.0000598 0.0000
 12   -147.2546159614  -0.000000028999 0.00004841  0.00000167  0.0000224 0.0000
                 **** Energy Check signals convergence ****

               *****************************************************
               *                     SUCCESS                       *
               *           SCF CONVERGED AFTER  13 CYCLES          *
               *****************************************************


----------------
TOTAL SCF ENERGY
----------------

Total Energy       :         -147.25461596 Eh           -4007.00181 eV

Components:
Nuclear Repulsion  :            6.24396723 Eh             169.90699 eV
Electronic Energy  :         -153.49858319 Eh           -4176.90880 eV
One Electron Energy:         -274.11287559 Eh           -7458.99055 eV
Two Electron Energy:          120.61429240 Eh            3282.08175 eV

Virial components:
Potential Energy   :         -204.13816795 Eh           -5554.88195 eV
Kinetic Energy     :           56.88355198 Eh            1547.88014 eV
Virial Ratio       :            3.58870290


DFT components:
N(Alpha)           :        9.999999108698 electrons
N(Beta)            :        9.999999108698 electrons
N(Total)           :       19.999998217396 electrons
E(X)               :       -6.450927115055 Eh       
E(C)               :       -0.538558155284 Eh       
E(XC)              :       -6.989485270339 Eh       
DFET-embed. en.    :        0.000000000000 Eh       

---------------
SCF CONVERGENCE
---------------

  Last Energy change         ...   -3.3216e-09  Tolerance :   1.0000e-08
  Last MAX-Density change    ...    3.1294e-05  Tolerance :   1.0000e-07
  Last RMS-Density change    ...    7.1213e-07  Tolerance :   5.0000e-09
  Last DIIS Error            ...    5.3823e-06  Tolerance :   5.0000e-07

             **** THE GBW FILE WAS UPDATED (Ag01N0_H.gbw) ****
             **** DENSITY FILE WAS UPDATED (Ag01N0_H.scfp) ****
             **** ENERGY FILE WAS UPDATED (Ag01N0_H.en.tmp) ****
             **** THE GBW FILE WAS UPDATED (Ag01N0_H.gbw) ****
             **** DENSITY FILE WAS UPDATED (Ag01N0_H.scfp) ****
----------------
ORBITAL ENERGIES
----------------

  NO   OCC          E(Eh)            E(eV) 
   0   2.0000      -3.995910      -108.7342 
   1   2.0000      -2.533573       -68.9420 
   2   2.0000      -2.527110       -68.7662 
   3   2.0000      -2.527110       -68.7662 
   4   2.0000      -0.455178       -12.3860 
   5   2.0000      -0.417781       -11.3684 
   6   2.0000      -0.417781       -11.3684 
   7   2.0000      -0.411256       -11.1908 
   8   2.0000      -0.411256       -11.1908 
   9   2.0000      -0.280864        -7.6427 
  10   0.0000      -0.043960        -1.1962 
  11   0.0000       0.022432         0.6104 
  12   0.0000       0.022432         0.6104 
  13   0.0000       0.097867         2.6631 
  14   0.0000       0.132897         3.6163 
  15   0.0000       0.210714         5.7338 
  16   0.0000       0.210714         5.7338 
  17   0.0000       0.213898         5.8205 
  18   0.0000       0.264356         7.1935 
  19   0.0000       0.264356         7.1935 
  20   0.0000       0.438800        11.9404 
  21   0.0000       0.467808        12.7297 
  22   0.0000       0.467809        12.7297 
  23   0.0000       0.500655        13.6235 
  24   0.0000       0.573325        15.6010 
  25   0.0000       0.573325        15.6010 
  26   0.0000       0.651087        17.7170 
  27   0.0000       0.944635        25.7048 
  28   0.0000       0.944635        25.7048 
  29   0.0000       1.152883        31.3715 
  30   0.0000       1.700087        46.2617 
  31   0.0000       1.700090        46.2618 
  32   0.0000       1.710839        46.5543 
  33   0.0000       1.710839        46.5543 
  34   0.0000       1.727320        47.0028 
  35   0.0000       1.727320        47.0028 
  36   0.0000       1.780510        48.4501 
  37   0.0000       1.780510        48.4501 
  38   0.0000       1.796791        48.8932 
  39   0.0000       1.983125        53.9636 
  40   0.0000       2.166899        58.9643 
  41   0.0000       2.179939        59.3192 
  42   0.0000       2.179942        59.3192 
  43   0.0000       2.241608        60.9973 
  44   0.0000       2.241608        60.9973 
  45   0.0000       2.377474        64.6944 
  46   0.0000       2.777811        75.5881 
  47   0.0000       3.359435        91.4149 
  48   0.0000       3.359487        91.4163 
  49   0.0000       3.596970        97.8785 
  50   0.0000       3.596970        97.8785 
  51   0.0000       4.012317       109.1807 
  52   0.0000       4.012317       109.1807 
  53   0.0000       4.076056       110.9151 
  54   0.0000       4.686575       127.5282 
  55   0.0000       5.062208       137.7497 
  56   0.0000       5.062208       137.7497 
  57   0.0000       5.073837       138.0661 
  58   0.0000       5.073840       138.0662 
  59   0.0000       5.241628       142.6320 
  60   0.0000       5.241628       142.6320 
  61   0.0000       5.434649       147.8843 
  62   0.0000       5.772946       157.0898 
  63   0.0000       5.772946       157.0898 
  64   0.0000       5.775509       157.1596 
  65   0.0000       5.775512       157.1597 
  66   0.0000       5.776469       157.1857 
  67   0.0000       5.776485       157.1861 
  68   0.0000       5.907795       160.7593 
  69   0.0000       5.907795       160.7593 
  70   0.0000       6.355354       172.9380 
  71   0.0000      33.702106       917.0809 
  72   0.0000     109.514798      2980.0492 

                    ********************************
                    * MULLIKEN POPULATION ANALYSIS *
                    ********************************

-----------------------
MULLIKEN ATOMIC CHARGES
-----------------------
   0 Ag:    0.071813
   1 H :   -0.071813
Sum of atomic charges:   -0.0000000

--------------------------------
MULLIKEN REDUCED ORBITAL CHARGES
--------------------------------
  0 Ags       :     2.922876  s :     2.922876
      pz      :     2.112345  p :     6.113378
      px      :     2.000517
      py      :     2.000517
      dz2     :     1.902313  d :     9.890010
      dxz     :     1.993992
      dyz     :     1.993992
      dx2y2   :     1.999857
      dxy     :     1.999857
      f0      :     0.001453  f :     0.001879
      f+1     :     0.000101
      f-1     :     0.000101
      f+2     :     0.000112
      f-2     :     0.000112
      f+3     :     0.000000
      f-3     :     0.000000
      g0      :     0.000036  g :     0.000043
      g+1     :     0.000003
      g-1     :     0.000003
      g+2     :     0.000001
      g-2     :     0.000001
      g+3     :     0.000000
      g-3     :     0.000000
      g+4     :     0.000000
      g-4     :     0.000000
  1 H s       :     1.064841  s :     1.064841
      pz      :    -0.004699  p :     0.005049
      px      :     0.004874
      py      :     0.004874
      dz2     :     0.000835  d :     0.001923
      dxz     :     0.000514
      dyz     :     0.000514
      dx2y2   :     0.000030
      dxy     :     0.000030


                     *******************************
                     * LOEWDIN POPULATION ANALYSIS *
                     *******************************

----------------------
LOEWDIN ATOMIC CHARGES
----------------------
   0 Ag:    0.316142
   1 H :   -0.316142

-------------------------------
LOEWDIN REDUCED ORBITAL CHARGES
-------------------------------
  0 Ags       :     2.732875  s :     2.732875
      pz      :     2.105279  p :     6.103234
      px      :     1.998977
      py      :     1.998977
      dz2     :     1.900419  d :     9.844015
      dxz     :     1.972139
      dyz     :     1.972139
      dx2y2   :     1.999659
      dxy     :     1.999659
      f0      :     0.002917  f :     0.003683
      f+1     :     0.000268
      f-1     :     0.000268
      f+2     :     0.000115
      f-2     :     0.000115
      f+3     :     0.000000
      f-3     :     0.000000
      g0      :     0.000051  g :     0.000052
      g+1     :     0.000000
      g-1     :     0.000000
      g+2     :     0.000001
      g-2     :     0.000001
      g+3     :     0.000000
      g-3     :     0.000000
      g+4     :     0.000000
      g-4     :     0.000000
  1 H s       :     1.142404  s :     1.142404
      pz      :     0.105509  p :     0.154037
      px      :     0.024264
      py      :     0.024264
      dz2     :     0.010545  d :     0.019701
      dxz     :     0.004352
      dyz     :     0.004352
      dx2y2   :     0.000226
      dxy     :     0.000226


                      *****************************
                      * MAYER POPULATION ANALYSIS *
                      *****************************

  NA   - Mulliken gross atomic population
  ZA   - Total nuclear charge
  QA   - Mulliken gross atomic charge
  VA   - Mayer's total valence
  BVA  - Mayer's bonded valence
  FA   - Mayer's free valence

  ATOM       NA         ZA         QA         VA         BVA        FA
  0 Ag    18.9282    19.0000     0.0718     1.0559     1.0559    -0.0000
  1 H      1.0718     1.0000    -0.0718     1.0559     1.0559    -0.0000

  Mayer bond orders larger than 0.100000
B(  0-Ag,  1-H ) :   1.0559 

-------
TIMINGS
-------

Total SCF time: 0 days 0 hours 0 min 3 sec 

Total time                  ....       3.117 sec
Sum of individual times     ....       3.016 sec  ( 96.8%)

Fock matrix formation       ....       1.602 sec  ( 51.4%)
  XC integration            ....       0.275 sec  ( 17.2% of F)
    Basis function eval.    ....       0.015 sec  (  5.5% of XC)
    Density eval.           ....       0.008 sec  (  2.9% of XC)
    XC-Functional eval.     ....       0.007 sec  (  2.5% of XC)
    XC-Potential eval.      ....       0.013 sec  (  4.7% of XC)
Diagonalization             ....       0.012 sec  (  0.4%)
Density matrix formation    ....       0.003 sec  (  0.1%)
Population analysis         ....       0.002 sec  (  0.1%)
Initial guess               ....       1.245 sec  ( 39.9%)
Orbital Transformation      ....       0.000 sec  (  0.0%)
Orbital Orthonormalization  ....       0.000 sec  (  0.0%)
DIIS solution               ....       0.012 sec  (  0.4%)
Grid generation             ....       0.139 sec  (  4.5%)


           ************************************************************
           *        Program running with 24 parallel MPI-processes    *
           *              working on a common directory               *
           ************************************************************

------------------------------------------------------------------------------
                                ORCA  MP2 
------------------------------------------------------------------------------

Freezing NCore=0 chemical core electrons

----------------------
RI-MP2 ENERGY+GRADIENT
----------------------
Dimension of the basis                    ...   73
Memory devoted to MP2                     ... 5000 MB   
Data format for buffers                   ... DOUBLE
Compression type for matrix containers    ... UNCOMPRESSED
Overall scaling of the MP2 energy         ...   2.700e-01
Calculating two index integrals           ... done (    0.004 sec)
Cholesky decomposition of the V-matrix    ... done
Cholesky decomposition of V**-1           ... done (    0.002 sec)

-----------------
RI-TRANSFORMATION (AUX index driven)
-----------------

Dimension of the orbital-basis         ... 73
Dimension of the aux-basis             ... 215
Transformation of internal MOs         ...    0-   9
Transformation of internal/external MOs...    0-   9 to   10-  72
Number Format for Storage              ... Double (8 Byte)
Integral mode                          ... Direct

First Phase: integral generation and transformation of MO indices
  Aux angular momentum 0               ... done (    0.000 sec)
  Aux angular momentum 1               ... done (    0.000 sec)
  Aux angular momentum 2               ... done (    0.001 sec)
  Aux angular momentum 3               ... done (    0.001 sec)
  Aux angular momentum 4               ... done (    0.001 sec)
  Aux angular momentum 5               ... done (    0.002 sec)
  Aux angular momentum 6               ... done (    0.002 sec)
Closing buffer VIJ ( 0.00 GB; CompressionRatio= 0.97)
Closing buffer VIA ( 0.00 GB; CompressionRatio= 1.00)
  Phase 1 completed in     0.093 sec
Second Phase: sorting and transformation of aux index

IJ-Transformation
Memory available                       ... 4998 MB 
Max. # MO pairs treated in a batch     ... 1    
# of internal orbitals                 ... 10
# batches for internal orbitals        ... 1
Closing buffer IJV ( 0.00 GB; CompressionRatio= 0.99)
(ij|v) transformation done in     0.015 sec

IA-Transformation
Memory available                       ... 4998 MB 
Max. # MO pairs treated in a batch     ... 1    
# of internal orbitals                 ... 10
# batches for internal orbitals        ... 1
Closing buffer IAV ( 0.00 GB; CompressionRatio= 1.00)
(ia|v) transformation done in     0.002 sec

  Phase 2 completed in     0.037 sec
RI-Integral transformation completed in     0.132 sec
Opening buffers                              ... done

Starting loop over batches of integrals:

Operator 0  - window                       ... (  0-  9)x( 10- 72)
Operator 0  - Memory available             ...  5000 MB
Operator 0  - Memory needed per MO         ...   0.2 MB
Operator 0  - Number of orbitals per batch ... 1
Operator 0  - Number of batches            ... 1

OPERATOR  0   PASS   0:  MOs     0 ...    0 +    1 ...    1 +    2 ...    2 +    3 ...    3
                            +    4 ...    4 +    5 ...    5 +    6 ...    6 +    7 ...    7
                            +    8 ...    8 +    9 ...    9
  Reading integrals       ... ok
Closing buffer GIPV ( 0.00 GB; CompressionRatio= 1.00)
Time spent in pair loops =     0.032 sec

-----------------------------------------------
 RI-MP2 CORRELATION ENERGY:     -0.217732981 Eh
-----------------------------------------------


---------------------
MP2 DENSITY FORMATION
---------------------

Completing the external part of the density      ... done
Storing the unrelaxed density                    ... done

Calculating the xc-kernel                        ... done
Calculating G(D)                                 ... done
Completing the Lagrangian                        ... done
Solving the Z-vector equations                   ... 

------------------------------------------------------------------------------
                           ORCA CP-SCF CALCULATION
------------------------------------------------------------------------------

Input orbitals are from        ... Ag01N0_H.gbw
Input Perturbation             ... Ag01N0_H.pin.tmp
Wavefunction output            ... Ag01N0_H.pout.tmp
Perturbation mode              ... Real perturbation (singlet)
Solver                         ... POPLE
Max. number of iterations      ... 128
Convergence tolerance          ... 1.000e-08
Integral handling              ... Direct
Number of perturbations        ... 1
Number of operators            ... 1
Orbital ranges used for CP-SCF:
 Operator 0:  Orbitals   0...  9  to  10... 72
DFT calculation                         ... on
Exchange functional (SCF)               ... B88
Exchange functional (CP-SCF)            ... B88
   X-Alpha parameter    XAlpha (SCF)    ...  0.666667
   X-Alpha parameter    XAlpha (CP-SCF) ...  0.666667
   Becke's b parameter  XBeta (SCF)     ...  0.004200
   Becke's b parameter  XBeta (CP-SCF)  ...  0.004200
Correlation functional (SCF)            ... LYP
Correlation functional (CP-SCF)         ... LYP
 LDA part of GGA corr.  LDAOpt (SCF)    ... VWN-3
 LDA part of GGA corr.  LDAOpt (CP-SCF) ... VWN-3
Hybrid DFT                              ... on
   Exchange mixing (SCF)                ...  0.530
   Exchange mixing (CP-SCF)             ...  0.530
   GGA exch. scaling(SCF)               ...  0.470
   GGA exch. scaling (CP-SCF)           ...  0.470
   GGA corr. scaling (SCF)              ...  0.730
   GGA corr. scaling (CP-SCF)           ...  0.730
Variables per vector in CP-SCF ... 630
Number of vectors sought       ... 1
Recalculating density on grid  ... done
Calculating the xc-kernel      ... done
     CP-SCF ITERATION   0: 
     CP-SCF ITERATION   1:      0.000491387982
     CP-SCF ITERATION   2:      0.000092305855
     CP-SCF ITERATION   3:      0.000005373873
     CP-SCF ITERATION   4:      0.000000247540
     CP-SCF ITERATION   5:      0.000000008780
done
Finalizing the relaxed density                   ... done
Transforming P to the AO basis                   ... done
Storing the relaxed density                      ... done

------------------------------------
ENERGY WEIGHTED DENSITY FINALIZATION
------------------------------------

Gathering the parts of the W-matrix              ... done
Forming the Z-density                            ... done
Transforming Z to the AO basis                   ... done
Calculating G(Z)                                 ... done
Finalizing the W-matrix                          ... done
Transforming W to the AO basis and storing       ... done
Entering the RIJONX and RIJCOSX sections
Starting the three-index derivative integrals:
Operator 0  - Memory available             ...  5000 MB
Operator 0  - Memory needed per MO         ...   0.2 MB
Operator 0  - Number of orbitals per batch ... 1
Operator 0  - Number of batches            ... 1

OPERATOR  0   PASS   0:  MOs     0 ...    0 +    1 ...    1 +    2 ...    2 +    3 ...    3
                            +    4 ...    4 +    5 ...    5 +    6 ...    6 +    7 ...    7
                            +    8 ...    8 +    9 ...    9

----------------------------------
MP2 DERIVATIVE INTEGRAL GENERATION
----------------------------------


Input Correlated Electron Density   ... Ag01N0_H.pmp2re
Input Energy Weighted Density       ... Ag01N0_H.wmp2.tmp
Input SCF Electron Density          ... Ag01N0_H.scfp

One-Electron Terms    ...
  ECP gradient                                           ... One-Electron Terms done
Prescreening matrices              ... done
Exchange-correlation gradient    ... done
Dispersion correction            ... done

                *********************************************
                * UNRELAXED MP2 DENSITY POPULATION ANALYSIS *
                *********************************************

------------------------------------------------------------------------------
                           ORCA POPULATION ANALYSIS
------------------------------------------------------------------------------
Input electron density              ... Ag01N0_H.pmp2ur
BaseName (.gbw .S,...)              ... Ag01N0_H

                    ********************************
                    * MULLIKEN POPULATION ANALYSIS *
                    ********************************

-----------------------
MULLIKEN ATOMIC CHARGES
-----------------------
   0 Ag:    0.070438
   1 H :   -0.070438
Sum of atomic charges:   -0.0000000

--------------------------------
MULLIKEN REDUCED ORBITAL CHARGES
--------------------------------
  0 Ags       :     2.920102  s :     2.920102
      pz      :     2.111623  p :     6.118368
      px      :     2.003372
      py      :     2.003372
      dz2     :     1.893622  d :     9.849701
      dxz     :     1.986002
      dyz     :     1.986002
      dx2y2   :     1.992037
      dxy     :     1.992037
      f0      :     0.006634  f :     0.038760
      f+1     :     0.005350
      f-1     :     0.005350
      f+2     :     0.005411
      f-2     :     0.005411
      f+3     :     0.005302
      f-3     :     0.005302
      g0      :     0.000327  g :     0.002631
      g+1     :     0.000293
      g-1     :     0.000293
      g+2     :     0.000289
      g-2     :     0.000289
      g+3     :     0.000287
      g-3     :     0.000287
      g+4     :     0.000283
      g-4     :     0.000283
  1 H s       :     1.059748  s :     1.059748
      pz      :    -0.004396  p :     0.008582
      px      :     0.006489
      py      :     0.006489
      dz2     :     0.000850  d :     0.002108
      dxz     :     0.000571
      dyz     :     0.000571
      dx2y2   :     0.000058
      dxy     :     0.000058


                     *******************************
                     * LOEWDIN POPULATION ANALYSIS *
                     *******************************

----------------------
LOEWDIN ATOMIC CHARGES
----------------------
   0 Ag:    0.315667
   1 H :   -0.315667

-------------------------------
LOEWDIN REDUCED ORBITAL CHARGES
-------------------------------
  0 Ags       :     2.729485  s :     2.729485
      pz      :     2.104871  p :     6.107946
      px      :     2.001538
      py      :     2.001538
      dz2     :     1.891856  d :     9.803586
      dxz     :     1.964028
      dyz     :     1.964028
      dx2y2   :     1.991837
      dxy     :     1.991837
      f0      :     0.008253  f :     0.040672
      f+1     :     0.005496
      f-1     :     0.005496
      f+2     :     0.005412
      f-2     :     0.005412
      f+3     :     0.005302
      f-3     :     0.005302
      g0      :     0.000345  g :     0.002644
      g+1     :     0.000291
      g-1     :     0.000291
      g+2     :     0.000289
      g-2     :     0.000289
      g+3     :     0.000287
      g-3     :     0.000287
      g+4     :     0.000283
      g-4     :     0.000283
  1 H s       :     1.135374  s :     1.135374
      pz      :     0.107666  p :     0.160219
      px      :     0.026277
      py      :     0.026277
      dz2     :     0.010660  d :     0.020074
      dxz     :     0.004449
      dyz     :     0.004449
      dx2y2   :     0.000258
      dxy     :     0.000258


                      *****************************
                      * MAYER POPULATION ANALYSIS *
                      *****************************

  NA   - Mulliken gross atomic population
  ZA   - Total nuclear charge
  QA   - Mulliken gross atomic charge
  VA   - Mayer's total valence
  BVA  - Mayer's bonded valence
  FA   - Mayer's free valence

  ATOM       NA         ZA         QA         VA         BVA        FA
  0 Ag    18.9296    19.0000     0.0704     1.4051     1.0234     0.3817
  1 H      1.0704     1.0000    -0.0704     1.0665     1.0234     0.0431

  Mayer bond orders larger than 0.100000
B(  0-Ag,  1-H ) :   1.0234 


                *******************************************
                * RELAXED MP2 DENSITY POPULATION ANALYSIS *
                *******************************************

------------------------------------------------------------------------------
                           ORCA POPULATION ANALYSIS
------------------------------------------------------------------------------
Input electron density              ... Ag01N0_H.pmp2re
BaseName (.gbw .S,...)              ... Ag01N0_H

                    ********************************
                    * MULLIKEN POPULATION ANALYSIS *
                    ********************************

-----------------------
MULLIKEN ATOMIC CHARGES
-----------------------
   0 Ag:    0.011655
   1 H :   -0.011655
Sum of atomic charges:   -0.0000000

--------------------------------
MULLIKEN REDUCED ORBITAL CHARGES
--------------------------------
  0 Ags       :     3.014738  s :     3.014738
      pz      :     2.094327  p :     6.100906
      px      :     2.003290
      py      :     2.003290
      dz2     :     1.879095  d :     9.831516
      dxz     :     1.984160
      dyz     :     1.984160
      dx2y2   :     1.992050
      dxy     :     1.992050
      f0      :     0.006527  f :     0.038548
      f+1     :     0.005318
      f-1     :     0.005318
      f+2     :     0.005391
      f-2     :     0.005391
      f+3     :     0.005302
      f-3     :     0.005302
      g0      :     0.000329  g :     0.002636
      g+1     :     0.000294
      g-1     :     0.000294
      g+2     :     0.000289
      g-2     :     0.000289
      g+3     :     0.000287
      g-3     :     0.000287
      g+4     :     0.000283
      g-4     :     0.000283
  1 H s       :     0.999226  s :     0.999226
      pz      :    -0.006709  p :     0.010024
      px      :     0.008367
      py      :     0.008367
      dz2     :     0.000978  d :     0.002405
      dxz     :     0.000649
      dyz     :     0.000649
      dx2y2   :     0.000065
      dxy     :     0.000065


                     *******************************
                     * LOEWDIN POPULATION ANALYSIS *
                     *******************************

----------------------
LOEWDIN ATOMIC CHARGES
----------------------
   0 Ag:    0.304782
   1 H :   -0.304782

-------------------------------
LOEWDIN REDUCED ORBITAL CHARGES
-------------------------------
  0 Ags       :     2.783261  s :     2.783261
      pz      :     2.078614  p :     6.081578
      px      :     2.001482
      py      :     2.001482
      dz2     :     1.879429  d :     9.787456
      dxz     :     1.962168
      dyz     :     1.962168
      dx2y2   :     1.991846
      dxy     :     1.991846
      f0      :     0.008000  f :     0.040280
      f+1     :     0.005446
      f-1     :     0.005446
      f+2     :     0.005392
      f-2     :     0.005392
      f+3     :     0.005302
      f-3     :     0.005302
      g0      :     0.000343  g :     0.002642
      g+1     :     0.000291
      g-1     :     0.000291
      g+2     :     0.000289
      g-2     :     0.000289
      g+3     :     0.000287
      g-3     :     0.000287
      g+4     :     0.000283
      g-4     :     0.000283
  1 H s       :     1.114289  s :     1.114289
      pz      :     0.114112  p :     0.170464
      px      :     0.028176
      py      :     0.028176
      dz2     :     0.010463  d :     0.020029
      dxz     :     0.004514
      dyz     :     0.004514
      dx2y2   :     0.000269
      dxy     :     0.000269


                      *****************************
                      * MAYER POPULATION ANALYSIS *
                      *****************************

  NA   - Mulliken gross atomic population
  ZA   - Total nuclear charge
  QA   - Mulliken gross atomic charge
  VA   - Mayer's total valence
  BVA  - Mayer's bonded valence
  FA   - Mayer's free valence

  ATOM       NA         ZA         QA         VA         BVA        FA
  0 Ag    18.9883    19.0000     0.0117     1.4052     1.0340     0.3712
  1 H      1.0117     1.0000    -0.0117     1.0722     1.0340     0.0382

  Mayer bond orders larger than 0.100000
B(  0-Ag,  1-H ) :   1.0340 


-------
TIMINGS
-------

Total time                :    2.905 sec
Integral trafo            :    0.145 sec (  5.0%)
I/O of integrals          :    0.000 sec (  0.0%)
K(i,j) Operators          :    0.000 sec (  0.0%)
T(i,j) pair energies      :    0.000 sec (  0.0%)
V-calculation             :    0.004 sec (  0.1%)
V**(-1/2)                 :    0.002 sec (  0.1%)
Gamma(ia|P)               :    0.000 sec (  0.0%)
Gamma-Trafo               :    0.001 sec (  0.0%)
D(virtual)                :    0.000 sec (  0.0%)
D(internal)               :    0.000 sec (  0.0%)
W(virtual)                :    0.000 sec (  0.0%)
W(internal)               :    0.001 sec (  0.0%)
L(virtual)                :    0.016 sec (  0.6%)
L(internal)               :    0.000 sec (  0.0%)
G(D)                      :    0.300 sec ( 10.3%)
G(Z)                      :    0.245 sec (  8.4%)
Z-Vector Solution         :    1.409 sec ( 48.5%)
Z-Vector Solution         :    1.409 sec ( 48.5%)
3-Index Derivative 
+ Separable RIJ part      :    0.049 sec (  1.7%)
2-Index Derivative 
+ Separable RIJ part      :    0.001 sec (  0.0%)
Separable Gradient (X)    :    0.606 sec ( 20.9%)


---------------------------------------
MP2 TOTAL ENERGY:     -147.472348946 Eh
---------------------------------------

-----------------------------------
NORM OF THE MP2 GRADIENT:  0.001298
-----------------------------------


-------------------------------------------------------------------------------
                          DFT DISPERSION CORRECTION                            
                                                                               
                              DFTD3 V3.1  Rev 1                                
                          USING Becke-Johnson damping                          
-------------------------------------------------------------------------------
The B2PLYP functional is recognized
Active option DFTDOPT                   ...         4   

molecular C6(AA) [au] = 331.597041 


            DFT-D V3
 parameters
 s6 scaling factor         :     0.6400 
 a1 scaling factor         :     0.3065 
 s8 scaling factor         :     0.9147 
 a2 scaling factor         :     5.0570 
 ad hoc parameters k1-k3   :    16.0000     1.3333    -4.0000 

 Edisp/kcal,au: -0.228909596225  -0.000364790623 
 E6   /kcal   :  -0.113547139 
 E8   /kcal   :  -0.115362457 
 % E8         :  50.396514342 

-------------------------   ----------------
Dispersion correction           -0.000364791
-------------------------   ----------------


-------------------------   --------------------
FINAL SINGLE POINT ENERGY      -147.472713736328
-------------------------   --------------------

------------------------------------------------------------------------------
                         ORCA GEOMETRY RELAXATION STEP
------------------------------------------------------------------------------

Reading the OPT-File                    .... done
Getting information on internals        .... done
Copying old internal coords+grads       .... done
Making the new internal coordinates     .... (new redundants).... done
Validating the new internal coordinates .... (new redundants).... done
Calculating the B-matrix                .... done
Calculating the G,G- and P matrices     .... done
Transforming gradient to internals      .... done
Projecting the internal gradient        .... done
Number of atoms                         ....   2
Number of internal coordinates          ....   1
Current Energy                          ....  -147.472713736 Eh
Current gradient norm                   ....     0.001297919 Eh/bohr
Maximum allowed component of the step   ....  0.300
Current trust radius                    ....  0.300
Evaluating the initial hessian          ....  (Almloef) done
Projecting the Hessian                  .... done
Forming the augmented Hessian           .... done
Diagonalizing the augmented Hessian     .... done
Last element of RFO vector              ....  0.999998550
Lowest eigenvalues of augmented Hessian:
 -0.000001563
Length of the computed step             ....  0.001702964
The final length of the internal step   ....  0.001702964
Converting the step to cartesian space:
 Initial RMS(Int)=    0.0017029643
Transforming coordinates:
 Iter   0:  RMS(Cart)=    0.0004916035 RMS(Int)=    0.0017029643
 Iter   1:  RMS(Cart)=    0.0000000000 RMS(Int)=    0.0000000000
done
Storing new coordinates                 .... done

                                .--------------------.
          ----------------------|Geometry convergence|-------------------------
          Item                value                   Tolerance       Converged
          ---------------------------------------------------------------------
          RMS gradient        0.0009177497            0.0001000000      NO
          MAX gradient        0.0009177497            0.0003000000      NO
          RMS step            0.0017029643            0.0020000000      YES
          MAX step            0.0017029643            0.0040000000      YES
          ........................................................
          Max(Bonds)      0.0009      Max(Angles)    0.00
          Max(Dihed)        0.00      Max(Improp)    0.00
          ---------------------------------------------------------------------

The optimization has not yet converged - more geometry cycles are needed


    ---------------------------------------------------------------------------
                         Redundant Internal Coordinates
                            (Angstroem and degrees)

        Definition                    Value    dE/dq     Step     New-Value
    ----------------------------------------------------------------------------
     1. B(H   1,Ag  0)                1.6103  0.000918 -0.0009    1.6094   
    ----------------------------------------------------------------------------

         *************************************************************
         *                GEOMETRY OPTIMIZATION CYCLE   2            *
         *************************************************************
---------------------------------
CARTESIAN COORDINATES (ANGSTROEM)
---------------------------------
  Ag     0.000000    0.000000    0.033096
  H      0.000000    0.000000   -1.576255

----------------------------
CARTESIAN COORDINATES (A.U.)
----------------------------
  NO LB      ZA    FRAG     MASS         X           Y           Z
   0 Ag   19.0000*   0   107.870    0.000000    0.000000    0.062543
   1 H     1.0000    0     1.008    0.000000    0.000000   -2.978691
* core charge reduced due to ECP

--------------------------------
INTERNAL COORDINATES (ANGSTROEM)
--------------------------------
 Ag     0   0   0     0.000000000000     0.00000000     0.00000000
 H      1   0   0     1.609351830102     0.00000000     0.00000000

---------------------------
INTERNAL COORDINATES (A.U.)
---------------------------
 Ag     0   0   0     0.000000000000     0.00000000     0.00000000
 H      1   0   0     3.041234212018     0.00000000     0.00000000



           ************************************************************
           *        Program running with 24 parallel MPI-processes    *
           *              working on a common directory               *
           ************************************************************
 One Electron integrals                  ... done
 Pre-screening matrix                    ... done


           ************************************************************
           *        Program running with 24 parallel MPI-processes    *
           *              working on a common directory               *
           ************************************************************

Diagonalization of the overlap matrix:
Smallest eigenvalue                        ... 3.305e-03
Time for diagonalization                   ...    0.002 sec
Threshold for overlap eigenvalues          ... 1.000e-08
Number of eigenvalues below threshold      ... 0
Time for construction of square roots      ...    0.001 sec
Total time needed                          ...    0.004 sec

-------------------
DFT GRID GENERATION
-------------------

General Integration Accuracy     IntAcc      ...  4.670
Radial Grid Type                 RadialGrid  ... Gauss-Chebyshev
Angular Grid (max. acc.)         AngularGrid ... Lebedev-302
Angular grid pruning method      GridPruning ... 3 (G Style)
Weight generation scheme         WeightScheme... Becke
Basis function cutoff            BFCut       ...    1.0000e-11
Integration weight cutoff        WCut        ...    1.0000e-14
Grids for H and He will be reduced by one unit

# of grid points (after initial pruning)     ...  14052 (   0.0 sec)
# of grid points (after weights+screening)   ...  13996 (   0.0 sec)
nearest neighbour list constructed           ...    0.0 sec
Grid point re-assignment to atoms done       ...    0.0 sec
Grid point division into batches done        ...    0.1 sec
Reduced shell lists constructed in    0.1 sec

Total number of grid points                  ...    13996
Total number of batches                      ...      220
Average number of points per batch           ...       63
Average number of grid points per atom       ...     6998
Average number of shells per batch           ...     2.27 ( 9.88%)
Average number of basis functions per batch  ...     4.82 ( 6.60%)
Average number of large shells per batch     ...     2.09 (92.00%)
Average number of large basis fcns per batch ...     4.09 (84.91%)
Average number of aux-shells per batch       ...     2.27 ( 4.13%)
Average number of aux functions per batch    ...     4.82 ( 1.76%)
Maximum spatial batch extension              ...  40.43, 36.77, 24.60 au
Average spatial batch extension              ...   1.31,  1.23,  0.88 au

Time for grid setup =    0.140 sec

--------------
SCF ITERATIONS
--------------
ITER       Energy         Delta-E        Max-DP      RMS-DP      [F,P]     Damp
  0   -147.2546024496   0.000000000000 0.00003228  0.00000113  0.0014413 0.7000
  1   -147.2546003192   0.000002130408 0.00004753  0.00000136  0.0010147 0.7000
                               ***Turning on DIIS***
  2   -147.2545992169   0.000001102331 0.00021158  0.00000489  0.0007109 0.0000
  3   -147.2546025280  -0.000003311136 0.00004371  0.00000117  0.0000231 0.0000
  4   -147.2546025289  -0.000000000900 0.00001011  0.00000036  0.0000152 0.0000
  5   -147.2546025294  -0.000000000478 0.00000612  0.00000020  0.0000028 0.0000
  6   -147.2546025294  -0.000000000053 0.00000200  0.00000009  0.0000020 0.0000
                            ***DIIS convergence achieved***

               *****************************************************
               *                     SUCCESS                       *
               *           SCF CONVERGED AFTER   7 CYCLES          *
               *****************************************************

Total Energy       :         -147.25460253 Eh           -4007.00145 eV
  Last Energy change         ...   -1.3671e-11  Tolerance :   1.0000e-08
  Last MAX-Density change    ...    2.8718e-06  Tolerance :   1.0000e-07
             **** THE GBW FILE WAS UPDATED (Ag01N0_H.gbw) ****
             **** DENSITY FILE WAS UPDATED (Ag01N0_H.scfp) ****
             **** ENERGY FILE WAS UPDATED (Ag01N0_H.en.tmp) ****
             **** THE GBW FILE WAS UPDATED (Ag01N0_H.gbw) ****
             **** DENSITY FILE WAS UPDATED (Ag01N0_H.scfp) ****
Total SCF time: 0 days 0 hours 0 min 1 sec 


           ************************************************************
           *        Program running with 24 parallel MPI-processes    *
           *              working on a common directory               *
           ************************************************************

------------------------------------------------------------------------------
                                ORCA  MP2 
------------------------------------------------------------------------------

Freezing NCore=0 chemical core electrons

----------------------
RI-MP2 ENERGY+GRADIENT
----------------------
Dimension of the basis                    ...   73
Memory devoted to MP2                     ... 5000 MB   
Data format for buffers                   ... DOUBLE
Compression type for matrix containers    ... UNCOMPRESSED
Overall scaling of the MP2 energy         ...   2.700e-01
Calculating two index integrals           ... done (    0.004 sec)
Cholesky decomposition of the V-matrix    ... done
Cholesky decomposition of V**-1           ... done (    0.002 sec)

-----------------
RI-TRANSFORMATION (AUX index driven)
-----------------

Dimension of the orbital-basis         ... 73
Dimension of the aux-basis             ... 215
Transformation of internal MOs         ...    0-   9
Transformation of internal/external MOs...    0-   9 to   10-  72
Number Format for Storage              ... Double (8 Byte)
Integral mode                          ... Direct

First Phase: integral generation and transformation of MO indices
  Aux angular momentum 0               ... done (    0.000 sec)
  Aux angular momentum 1               ... done (    0.000 sec)
  Aux angular momentum 2               ... done (    0.001 sec)
  Aux angular momentum 3               ... done (    0.001 sec)
  Aux angular momentum 4               ... done (    0.001 sec)
  Aux angular momentum 5               ... done (    0.002 sec)
  Aux angular momentum 6               ... done (    0.002 sec)
Closing buffer VIJ ( 0.00 GB; CompressionRatio= 0.97)
Closing buffer VIA ( 0.00 GB; CompressionRatio= 1.00)
  Phase 1 completed in     0.107 sec
Second Phase: sorting and transformation of aux index

IJ-Transformation
Memory available                       ... 4998 MB 
Max. # MO pairs treated in a batch     ... 1    
# of internal orbitals                 ... 10
# batches for internal orbitals        ... 1
Closing buffer IJV ( 0.00 GB; CompressionRatio= 0.99)
(ij|v) transformation done in     0.001 sec

IA-Transformation
Memory available                       ... 4998 MB 
Max. # MO pairs treated in a batch     ... 1    
# of internal orbitals                 ... 10
# batches for internal orbitals        ... 1
Closing buffer IAV ( 0.00 GB; CompressionRatio= 1.00)
(ia|v) transformation done in     0.002 sec

  Phase 2 completed in     0.008 sec
RI-Integral transformation completed in     0.117 sec
Opening buffers                              ... done

Starting loop over batches of integrals:

Operator 0  - window                       ... (  0-  9)x( 10- 72)
Operator 0  - Memory available             ...  5000 MB
Operator 0  - Memory needed per MO         ...   0.2 MB
Operator 0  - Number of orbitals per batch ... 1
Operator 0  - Number of batches            ... 1

OPERATOR  0   PASS   0:  MOs     0 ...    0 +    1 ...    1 +    2 ...    2 +    3 ...    3
                            +    4 ...    4 +    5 ...    5 +    6 ...    6 +    7 ...    7
                            +    8 ...    8 +    9 ...    9
  Reading integrals       ... ok
Closing buffer GIPV ( 0.00 GB; CompressionRatio= 1.00)
Time spent in pair loops =     0.032 sec

-----------------------------------------------
 RI-MP2 CORRELATION ENERGY:     -0.217747260 Eh
-----------------------------------------------


---------------------
MP2 DENSITY FORMATION
---------------------

Completing the external part of the density      ... done
Storing the unrelaxed density                    ... done

Calculating the xc-kernel                        ... done
Calculating G(D)                                 ... done
Completing the Lagrangian                        ... done
Solving the Z-vector equations                   ... 

------------------------------------------------------------------------------
                           ORCA CP-SCF CALCULATION
------------------------------------------------------------------------------

Input orbitals are from        ... Ag01N0_H.gbw
Input Perturbation             ... Ag01N0_H.pin.tmp
Wavefunction output            ... Ag01N0_H.pout.tmp
Perturbation mode              ... Real perturbation (singlet)
Solver                         ... POPLE
Max. number of iterations      ... 128
Convergence tolerance          ... 1.000e-08
Integral handling              ... Direct
Number of perturbations        ... 1
Number of operators            ... 1
Orbital ranges used for CP-SCF:
 Operator 0:  Orbitals   0...  9  to  10... 72
DFT calculation                         ... on
Exchange functional (SCF)               ... B88
Exchange functional (CP-SCF)            ... B88
   X-Alpha parameter    XAlpha (SCF)    ...  0.666667
   X-Alpha parameter    XAlpha (CP-SCF) ...  0.666667
   Becke's b parameter  XBeta (SCF)     ...  0.004200
   Becke's b parameter  XBeta (CP-SCF)  ...  0.004200
Correlation functional (SCF)            ... LYP
Correlation functional (CP-SCF)         ... LYP
 LDA part of GGA corr.  LDAOpt (SCF)    ... VWN-3
 LDA part of GGA corr.  LDAOpt (CP-SCF) ... VWN-3
Hybrid DFT                              ... on
   Exchange mixing (SCF)                ...  0.530
   Exchange mixing (CP-SCF)             ...  0.530
   GGA exch. scaling(SCF)               ...  0.470
   GGA exch. scaling (CP-SCF)           ...  0.470
   GGA corr. scaling (SCF)              ...  0.730
   GGA corr. scaling (CP-SCF)           ...  0.730
Variables per vector in CP-SCF ... 630
Number of vectors sought       ... 1
Recalculating density on grid  ... done
Calculating the xc-kernel      ... done
     CP-SCF ITERATION   0: 
     CP-SCF ITERATION   1:      0.000491218994
     CP-SCF ITERATION   2:      0.000092340223
     CP-SCF ITERATION   3:      0.000005370112
     CP-SCF ITERATION   4:      0.000000247354
     CP-SCF ITERATION   5:      0.000000008772
done
Finalizing the relaxed density                   ... done
Transforming P to the AO basis                   ... done
Storing the relaxed density                      ... done

------------------------------------
ENERGY WEIGHTED DENSITY FINALIZATION
------------------------------------

Gathering the parts of the W-matrix              ... done
Forming the Z-density                            ... done
Transforming Z to the AO basis                   ... done
Calculating G(Z)                                 ... done
Finalizing the W-matrix                          ... done
Transforming W to the AO basis and storing       ... done
Entering the RIJONX and RIJCOSX sections
Starting the three-index derivative integrals:
Operator 0  - Memory available             ...  5000 MB
Operator 0  - Memory needed per MO         ...   0.2 MB
Operator 0  - Number of orbitals per batch ... 1
Operator 0  - Number of batches            ... 1

OPERATOR  0   PASS   0:  MOs     0 ...    0 +    1 ...    1 +    2 ...    2 +    3 ...    3
                            +    4 ...    4 +    5 ...    5 +    6 ...    6 +    7 ...    7
                            +    8 ...    8 +    9 ...    9

----------------------------------
MP2 DERIVATIVE INTEGRAL GENERATION
----------------------------------


Input Correlated Electron Density   ... Ag01N0_H.pmp2re
Input Energy Weighted Density       ... Ag01N0_H.wmp2.tmp
Input SCF Electron Density          ... Ag01N0_H.scfp

One-Electron Terms    ...
  ECP gradient                                           ... One-Electron Terms done
Prescreening matrices              ... done
Exchange-correlation gradient    ... done
Dispersion correction            ... done

-------
TIMINGS
-------

Total time                :    2.827 sec
Integral trafo            :    0.129 sec (  4.6%)
I/O of integrals          :    0.000 sec (  0.0%)
K(i,j) Operators          :    0.000 sec (  0.0%)
T(i,j) pair energies      :    0.000 sec (  0.0%)
V-calculation             :    0.004 sec (  0.2%)
V**(-1/2)                 :    0.002 sec (  0.1%)
Gamma(ia|P)               :    0.000 sec (  0.0%)
Gamma-Trafo               :    0.001 sec (  0.0%)
D(virtual)                :    0.000 sec (  0.0%)
D(internal)               :    0.000 sec (  0.0%)
W(virtual)                :    0.000 sec (  0.0%)
W(internal)               :    0.001 sec (  0.0%)
L(virtual)                :    0.016 sec (  0.6%)
L(internal)               :    0.000 sec (  0.0%)
G(D)                      :    0.273 sec (  9.7%)
G(Z)                      :    0.247 sec (  8.7%)
Z-Vector Solution         :    1.390 sec ( 49.2%)
Z-Vector Solution         :    1.390 sec ( 49.2%)
3-Index Derivative 
+ Separable RIJ part      :    0.055 sec (  1.9%)
2-Index Derivative 
+ Separable RIJ part      :    0.001 sec (  0.0%)
Separable Gradient (X)    :    0.616 sec ( 21.8%)


---------------------------------------
MP2 TOTAL ENERGY:     -147.472349790 Eh
---------------------------------------

-----------------------------------
NORM OF THE MP2 GRADIENT:  0.001002
-----------------------------------


-------------------------------------------------------------------------------
                          DFT DISPERSION CORRECTION                            
                                                                               
                              DFTD3 V3.1  Rev 1                                
                          USING Becke-Johnson damping                          
-------------------------------------------------------------------------------
-------------------------   ----------------
Dispersion correction           -0.000364782
-------------------------   ----------------


-------------------------   --------------------
FINAL SINGLE POINT ENERGY      -147.472714571460
-------------------------   --------------------

------------------------------------------------------------------------------
                         ORCA GEOMETRY RELAXATION STEP
------------------------------------------------------------------------------

Reading the OPT-File                    .... done
Getting information on internals        .... done
Copying old internal coords+grads       .... done
Making the new internal coordinates     .... (new redundants).... done
Validating the new internal coordinates .... (new redundants).... done
Calculating the B-matrix                .... done
Calculating the G,G- and P matrices     .... done
Transforming gradient to internals      .... done
Projecting the internal gradient        .... done
Number of atoms                         ....   2
Number of internal coordinates          ....   1
Current Energy                          ....  -147.472714571 Eh
Current gradient norm                   ....     0.001001697 Eh/bohr
Maximum allowed component of the step   ....  0.300
Current trust radius                    ....  0.300
Updating the Hessian (BFGS)             .... done
Forming the augmented Hessian           .... done
Diagonalizing the augmented Hessian     .... done
Last element of RFO vector              ....  0.999983422
Lowest eigenvalues of augmented Hessian:
 -0.000004078
Length of the computed step             ....  0.005758158
The final length of the internal step   ....  0.005758158
Converting the step to cartesian space:
 Initial RMS(Int)=    0.0057581581
Transforming coordinates:
 Iter   0:  RMS(Cart)=    0.0016622371 RMS(Int)=    0.0057581581
 Iter   1:  RMS(Cart)=    0.0000000000 RMS(Int)=    0.0000000000
done
Storing new coordinates                 .... done

                                .--------------------.
          ----------------------|Geometry convergence|-------------------------
          Item                value                   Tolerance       Converged
          ---------------------------------------------------------------------
          Energy change      -0.0000008351            0.0000050000      YES
          RMS gradient        0.0007082832            0.0001000000      NO
          MAX gradient        0.0007082832            0.0003000000      NO
          RMS step            0.0057581581            0.0020000000      NO
          MAX step            0.0057581581            0.0040000000      NO
          ........................................................
          Max(Bonds)      0.0030      Max(Angles)    0.00
          Max(Dihed)        0.00      Max(Improp)    0.00
          ---------------------------------------------------------------------

The optimization has not yet converged - more geometry cycles are needed


    ---------------------------------------------------------------------------
                         Redundant Internal Coordinates
                            (Angstroem and degrees)

        Definition                    Value    dE/dq     Step     New-Value
    ----------------------------------------------------------------------------
     1. B(H   1,Ag  0)                1.6094  0.000708 -0.0030    1.6063   
    ----------------------------------------------------------------------------

         *************************************************************
         *                GEOMETRY OPTIMIZATION CYCLE   3            *
         *************************************************************
---------------------------------
CARTESIAN COORDINATES (ANGSTROEM)
---------------------------------
  Ag     0.000000    0.000000    0.031573
  H      0.000000    0.000000   -1.574732

----------------------------
CARTESIAN COORDINATES (A.U.)
----------------------------
  NO LB      ZA    FRAG     MASS         X           Y           Z
   0 Ag   19.0000*   0   107.870    0.000000    0.000000    0.059664
   1 H     1.0000    0     1.008    0.000000    0.000000   -2.975812
* core charge reduced due to ECP

--------------------------------
INTERNAL COORDINATES (ANGSTROEM)
--------------------------------
 Ag     0   0   0     0.000000000000     0.00000000     0.00000000
 H      1   0   0     1.606304744048     0.00000000     0.00000000

---------------------------
INTERNAL COORDINATES (A.U.)
---------------------------
 Ag     0   0   0     0.000000000000     0.00000000     0.00000000
 H      1   0   0     3.035476053870     0.00000000     0.00000000



           ************************************************************
           *        Program running with 24 parallel MPI-processes    *
           *              working on a common directory               *
           ************************************************************
 One Electron integrals                  ... done
 Pre-screening matrix                    ... done


           ************************************************************
           *        Program running with 24 parallel MPI-processes    *
           *              working on a common directory               *
           ************************************************************

Diagonalization of the overlap matrix:
Smallest eigenvalue                        ... 3.266e-03
Time for diagonalization                   ...    0.002 sec
Threshold for overlap eigenvalues          ... 1.000e-08
Number of eigenvalues below threshold      ... 0
Time for construction of square roots      ...    0.001 sec
Total time needed                          ...    0.003 sec

-------------------
DFT GRID GENERATION
-------------------

General Integration Accuracy     IntAcc      ...  4.670
Radial Grid Type                 RadialGrid  ... Gauss-Chebyshev
Angular Grid (max. acc.)         AngularGrid ... Lebedev-302
Angular grid pruning method      GridPruning ... 3 (G Style)
Weight generation scheme         WeightScheme... Becke
Basis function cutoff            BFCut       ...    1.0000e-11
Integration weight cutoff        WCut        ...    1.0000e-14
Grids for H and He will be reduced by one unit

# of grid points (after initial pruning)     ...  14052 (   0.0 sec)
# of grid points (after weights+screening)   ...  13996 (   0.0 sec)
nearest neighbour list constructed           ...    0.0 sec
Grid point re-assignment to atoms done       ...    0.0 sec
Grid point division into batches done        ...    0.1 sec
Reduced shell lists constructed in    0.1 sec

Total number of grid points                  ...    13996
Total number of batches                      ...      219
Average number of points per batch           ...       63
Average number of grid points per atom       ...     6998
Average number of shells per batch           ...     2.27 ( 9.88%)
Average number of basis functions per batch  ...     4.82 ( 6.60%)
Average number of large shells per batch     ...     2.09 (92.00%)
Average number of large basis fcns per batch ...     4.09 (84.91%)
Average number of aux-shells per batch       ...     2.27 ( 4.13%)
Average number of aux functions per batch    ...     4.82 ( 1.76%)
Maximum spatial batch extension              ...  40.43, 36.77, 24.59 au
Average spatial batch extension              ...   1.32,  1.24,  0.89 au

Time for grid setup =    0.131 sec

--------------
SCF ITERATIONS
--------------
ITER       Energy         Delta-E        Max-DP      RMS-DP      [F,P]     Damp
  0   -147.2545533778   0.000000000000 0.00012304  0.00000401  0.0048963 0.7000
  1   -147.2545464267   0.000006951033 0.00017983  0.00000489  0.0034471 0.7000
                               ***Turning on DIIS***
  2   -147.2545418225   0.000004604196 0.00065126  0.00001544  0.0024153 0.0000
  3   -147.2545543100  -0.000012487424 0.00028641  0.00000655  0.0001086 0.0000
  4   -147.2545543376  -0.000000027596 0.00003861  0.00000155  0.0000808 0.0000
  5   -147.2545543495  -0.000000011929 0.00003627  0.00000119  0.0000175 0.0000
[...]
      pz      :     2.093991  p :     6.100586
      px      :     2.003297
      py      :     2.003297
      dz2     :     1.877954  d :     9.830217
      dxz     :     1.984085
      dyz     :     1.984085
      dx2y2   :     1.992047
      dxy     :     1.992047
      f0      :     0.006538  f :     0.038565
      f+1     :     0.005317
      f-1     :     0.005317
      f+2     :     0.005393
      f-2     :     0.005393
      f+3     :     0.005303
      f-3     :     0.005303
      g0      :     0.000330  g :     0.002637
      g+1     :     0.000295
      g-1     :     0.000295
      g+2     :     0.000289
      g-2     :     0.000289
      g+3     :     0.000287
      g-3     :     0.000287
      g+4     :     0.000283
      g-4     :     0.000283
  1 H s       :     0.998426  s :     0.998426
      pz      :    -0.006650  p :     0.010219
      px      :     0.008434
      py      :     0.008434
      dz2     :     0.000992  d :     0.002445
      dxz     :     0.000660
      dyz     :     0.000660
      dx2y2   :     0.000066
      dxy     :     0.000066


                     *******************************
                     * LOEWDIN POPULATION ANALYSIS *
                     *******************************

----------------------
LOEWDIN ATOMIC CHARGES
----------------------
   0 Ag:    0.306702
   1 H :   -0.306702

-------------------------------
LOEWDIN REDUCED ORBITAL CHARGES
-------------------------------
  0 Ags       :     2.783927  s :     2.783927
      pz      :     2.077925  p :     6.080839
      px      :     2.001457
      py      :     2.001457
      dz2     :     1.878256  d :     9.785567
      dxz     :     1.961819
      dyz     :     1.961819
      dx2y2   :     1.991837
      dxy     :     1.991837
      f0      :     0.008032  f :     0.040321
      f+1     :     0.005448
      f-1     :     0.005448
      f+2     :     0.005393
      f-2     :     0.005393
      f+3     :     0.005303
      f-3     :     0.005303
      g0      :     0.000344  g :     0.002644
      g+1     :     0.000291
      g-1     :     0.000291
      g+2     :     0.000289
      g-2     :     0.000289
      g+3     :     0.000287
      g-3     :     0.000287
      g+4     :     0.000283
      g-4     :     0.000283
  1 H s       :     1.114450  s :     1.114450
      pz      :     0.114840  p :     0.171758
      px      :     0.028459
      py      :     0.028459
      dz2     :     0.010713  d :     0.020494
      dxz     :     0.004615
      dyz     :     0.004615
      dx2y2   :     0.000276
      dxy     :     0.000276


                      *****************************
                      * MAYER POPULATION ANALYSIS *
                      *****************************

  NA   - Mulliken gross atomic population
  ZA   - Total nuclear charge
  QA   - Mulliken gross atomic charge
  VA   - Mayer's total valence
  BVA  - Mayer's bonded valence
  FA   - Mayer's free valence

  ATOM       NA         ZA         QA         VA         BVA        FA
  0 Ag    18.9889    19.0000     0.0111     1.4062     1.0348     0.3714
  1 H      1.0111     1.0000    -0.0111     1.0730     1.0348     0.0382

  Mayer bond orders larger than 0.100000
B(  0-Ag,  1-H ) :   1.0348 


-------
TIMINGS
-------

Total time                :    2.968 sec
Integral trafo            :    0.130 sec (  4.4%)
I/O of integrals          :    0.000 sec (  0.0%)
K(i,j) Operators          :    0.000 sec (  0.0%)
T(i,j) pair energies      :    0.000 sec (  0.0%)
V-calculation             :    0.004 sec (  0.1%)
V**(-1/2)                 :    0.002 sec (  0.1%)
Gamma(ia|P)               :    0.000 sec (  0.0%)
Gamma-Trafo               :    0.001 sec (  0.0%)
D(virtual)                :    0.000 sec (  0.0%)
D(internal)               :    0.000 sec (  0.0%)
W(virtual)                :    0.000 sec (  0.0%)
W(internal)               :    0.001 sec (  0.0%)
L(virtual)                :    0.016 sec (  0.5%)
L(internal)               :    0.000 sec (  0.0%)
G(D)                      :    0.276 sec (  9.3%)
G(Z)                      :    0.247 sec (  8.3%)
Z-Vector Solution         :    1.467 sec ( 49.4%)
Z-Vector Solution         :    1.467 sec ( 49.4%)
3-Index Derivative 
+ Separable RIJ part      :    0.048 sec (  1.6%)
2-Index Derivative 
+ Separable RIJ part      :    0.001 sec (  0.0%)
Separable Gradient (X)    :    0.623 sec ( 21.0%)


---------------------------------------
MP2 TOTAL ENERGY:     -147.472351926 Eh
---------------------------------------

-----------------------------------
NORM OF THE MP2 GRADIENT:  0.000008
-----------------------------------


-------------------------------------------------------------------------------
                          DFT DISPERSION CORRECTION                            
                                                                               
                              DFTD3 V3.1  Rev 1                                
                          USING Becke-Johnson damping                          
-------------------------------------------------------------------------------
The B2PLYP functional is recognized
Active option DFTDOPT                   ...         4   

molecular C6(AA) [au] = 331.555653 


            DFT-D V3
 parameters
 s6 scaling factor         :     0.6400 
 a1 scaling factor         :     0.3065 
 s8 scaling factor         :     0.9147 
 a2 scaling factor         :     5.0570 
 ad hoc parameters k1-k3   :    16.0000     1.3333    -4.0000 

 Edisp/kcal,au: -0.228885270720  -0.000364751858 
 E6   /kcal   :  -0.113539917 
 E8   /kcal   :  -0.115345354 
 % E8         :  50.394397756 

-------------------------   ----------------
Dispersion correction           -0.000364752
-------------------------   ----------------


-------------------------   --------------------
FINAL SINGLE POINT ENERGY      -147.472716678208
-------------------------   --------------------

                                *** OPTIMIZATION RUN DONE ***

                            ***************************************
                            *     ORCA property calculations      *
                            ***************************************

                                    ---------------------
                                    Active property flags
                                    ---------------------
   (+) Dipole Moment


------------------------------------------------------------------------------
                       ORCA ELECTRIC PROPERTIES CALCULATION
------------------------------------------------------------------------------

Dipole Moment Calculation                       ... on
Quadrupole Moment Calculation                   ... off
Polarizability Calculation                      ... off
GBWName                                         ... Ag01N0_H.gbw
Electron density file                           ... Ag01N0_H.scfp
The origin for moment calculation is the CENTER OF MASS  = ( 0.000000,  0.000000  0.031554)

-------------
DIPOLE MOMENT
-------------
                                X             Y             Z
Electronic contribution:     -0.00000      -0.00000       3.78220
Nuclear contribution   :      0.00000       0.00000      -2.47341
                        -----------------------------------------
Total Dipole Moment    :     -0.00000      -0.00000       1.30879
                        -----------------------------------------
Magnitude (a.u.)       :      1.30879
Magnitude (Debye)      :      3.32669



--------------------
Rotational spectrum 
--------------------
 
Rotational constants in cm-1:     0.000000     6.542207     6.542207 
Rotational constants in MHz :     0.000000 196130.424039 196130.424039 

 Dipole components along the rotational axes: 
x,y,z [a.u.] :     1.308794    -0.000000    -0.000000 
x,y,z [Debye]:     3.326689    -0.000000    -0.000000 

 

                         *** MP2 UNRELAXED DENSITY ***

------------------------------------------------------------------------------
                       ORCA ELECTRIC PROPERTIES CALCULATION
------------------------------------------------------------------------------

Dipole Moment Calculation                       ... on
Quadrupole Moment Calculation                   ... off
Polarizability Calculation                      ... off
GBWName                                         ... Ag01N0_H.gbw
Electron density file                           ... Ag01N0_H.pmp2ur
The origin for moment calculation is the CENTER OF MASS  = ( 0.000000,  0.000000  0.031554)

-------------
DIPOLE MOMENT
-------------
                                X             Y             Z
Electronic contribution:     -0.00000      -0.00000       3.76484
Nuclear contribution   :      0.00000       0.00000      -2.47341
                        -----------------------------------------
Total Dipole Moment    :     -0.00000      -0.00000       1.29143
                        -----------------------------------------
Magnitude (a.u.)       :      1.29143
Magnitude (Debye)      :      3.28255



--------------------
Rotational spectrum 
--------------------
 
Rotational constants in cm-1:     0.000000     6.542207     6.542207 
Rotational constants in MHz :     0.000000 196130.424039 196130.424039 

 Dipole components along the rotational axes: 
x,y,z [a.u.] :     1.291430    -0.000000    -0.000000 
x,y,z [Debye]:     3.282555    -0.000000    -0.000000 

 

                           *** MP2 RELAXED DENSITY ***

------------------------------------------------------------------------------
                       ORCA ELECTRIC PROPERTIES CALCULATION
------------------------------------------------------------------------------

Dipole Moment Calculation                       ... on
Quadrupole Moment Calculation                   ... off
Polarizability Calculation                      ... off
GBWName                                         ... Ag01N0_H.gbw
Electron density file                           ... Ag01N0_H.pmp2re
The origin for moment calculation is the CENTER OF MASS  = ( 0.000000,  0.000000  0.031554)

-------------
DIPOLE MOMENT
-------------
                                X             Y             Z
Electronic contribution:     -0.00000      -0.00000       3.59224
Nuclear contribution   :      0.00000       0.00000      -2.47341
                        -----------------------------------------
Total Dipole Moment    :     -0.00000      -0.00000       1.11883
                        -----------------------------------------
Magnitude (a.u.)       :      1.11883
Magnitude (Debye)      :      2.84384



--------------------
Rotational spectrum 
--------------------
 
Rotational constants in cm-1:     0.000000     6.542207     6.542207 
Rotational constants in MHz :     0.000000 196130.424039 196130.424039 

 Dipole components along the rotational axes: 
x,y,z [a.u.] :     1.118829    -0.000000    -0.000000 
x,y,z [Debye]:     2.843836    -0.000000    -0.000000 

 

----------------------------------------------------------------------------
                           ORCA NUMERICAL FREQUENCIES
                              (24-process run)
----------------------------------------------------------------------------

Number of atoms                ... 2
Central differences            ... used
Number of displacements        ... 12
Numerical increment            ... 5.000e-03 bohr
IR-spectrum generation         ... on
Raman-spectrum generation      ... off
Surface Crossing Hessian       ... off

 WARNING: There are more processes than displacements to do
  ====> : Reducing number of processes to   6

The output will be reduced. Please look at the following files:
SCF program output             ... >Ag01N0_H.lastscf
Integral program output        ... >Ag01N0_H.lastint
Gradient program output        ... >Ag01N0_H.lastgrad
Dipole moment program output   ... >Ag01N0_H.lastmom
AutoCI program output          ... >Ag01N0_H.lastautoci


         <<< Energy and Gradient at the input geometry >>>

        <<< Energy and Gradient at displaced geometries >>>
             <<<Displacing   1/coordinate 2 (+)>>>
             <<<Displacing   2/coordinate 2 (+)>>>
             <<<Displacing   2/coordinate 3 (+)>>>
             <<<Displacing   1/coordinate 1 (+)>>>
             <<<Displacing   1/coordinate 3 (+)>>>
             <<<Displacing   2/coordinate 1 (+)>>>
             <<<Displacing   2/coordinate 1 (-)>>>
             <<<Displacing   2/coordinate 2 (-)>>>
             <<<Displacing   1/coordinate 2 (-)>>>
             <<<Displacing   1/coordinate 1 (-)>>>
             <<<Displacing   2/coordinate 3 (-)>>>
             <<<Displacing   1/coordinate 3 (-)>>>
Warning: T+R mode no 5 is zero 

-----------------------
VIBRATIONAL FREQUENCIES
-----------------------

Scaling factor for frequencies =  1.000000000 (already applied!)

   0:         0.00 cm**-1
   1:         0.00 cm**-1
   2:         0.00 cm**-1
   3:         0.00 cm**-1
   4:         0.00 cm**-1
   5:      1808.03 cm**-1


------------
NORMAL MODES
------------

These modes are the cartesian displacements weighted by the diagonal matrix
M(i,i)=1/sqrt(m[i]) where m[i] is the mass of the displaced atom
Thus, these vectors are normalized but *not* orthogonal

                  0          1          2          3          4          5    
      0       0.000000   0.000000   0.000000   0.000000   0.000000   0.000000
      1       0.000000   0.000000   0.000000   0.000000   0.000000   0.000000
      2       0.000000   0.000000   0.000000   0.000000   0.000000   0.009344
      3       0.000000   0.000000   0.000000   0.000000   0.000000   0.000000
      4       0.000000   0.000000   0.000000   0.000000   0.000000   0.000000
      5       0.000000   0.000000   0.000000   0.000000   0.000000  -0.999956


-----------
IR SPECTRUM  
-----------

 Mode    freq (cm**-1)   T**2         TX         TY         TZ
-------------------------------------------------------------------
   5:      1808.03   79.099128  (  0.000036  -0.000017   8.893769)

The first frequency considered to be a vibration is 5
The total number of vibrations considered is 1


--------------------------
THERMOCHEMISTRY AT 298.15K
--------------------------

Temperature         ... 298.15 K
Pressure            ... 1.00 atm
Total Mass          ... 108.88 AMU
The molecule is recognized as being linear

Throughout the following assumptions are being made:
  (1) The electronic state is orbitally nondegenerate
  (2) There are no thermally accessible electronically excited states
  (3) Hindered rotations indicated by low frequency modes are not
      treated as such but are treated as vibrations and this may
      cause some error
  (4) All equations used are the standard statistical mechanics
      equations for an ideal gas
  (5) All vibrations are strictly harmonic

freq.    1808.03  E(vib)   ...       0.00 

------------
INNER ENERGY
------------

The inner energy is: U= E(el) + E(ZPE) + E(vib) + E(rot) + E(trans)
    E(el)   - is the total energy from the electronic structure calculation
              = E(kin-el) + E(nuc-el) + E(el-el) + E(nuc-nuc)
    E(ZPE)  - the the zero temperature vibrational energy from the frequency calculation
    E(vib)  - the the finite temperature correction to E(ZPE) due to population
              of excited vibrational states
    E(rot)  - is the rotational thermal energy
    E(trans)- is the translational thermal energy

Summary of contributions to the inner energy U:
Electronic energy                ...   -147.47271679 Eh
Zero point energy                ...      0.00411901 Eh       2.58 kcal/mol
Thermal vibrational correction   ...      0.00000134 Eh       0.00 kcal/mol
Thermal rotational correction    ...      0.00094418 Eh       0.59 kcal/mol
Thermal translational correction ...      0.00141627 Eh       0.89 kcal/mol
-----------------------------------------------------------------------
Total thermal energy                   -147.46623599 Eh


Summary of corrections to the electronic energy:
(perhaps to be used in another calculation)
Total thermal correction                  0.00236179 Eh       1.48 kcal/mol
Non-thermal (ZPE) correction              0.00411901 Eh       2.58 kcal/mol
-----------------------------------------------------------------------
Total correction                          0.00648080 Eh       4.07 kcal/mol


--------
ENTHALPY
--------

The enthalpy is H = U + kB*T
                kB is Boltzmann's constant
Total free energy                 ...   -147.46623599 Eh 
Thermal Enthalpy correction       ...      0.00094421 Eh       0.59 kcal/mol
-----------------------------------------------------------------------
Total Enthalpy                    ...   -147.46529179 Eh


Note: Rotational entropy computed according to Herzberg 
Infrared and Raman Spectra, Chapter V,1, Van Nostrand Reinhold, 1945 
Point Group:  Cinfv, Symmetry Number:   1  
Rotational constants in cm-1:     0.000000     6.542207     6.542207 

Vibrational entropy computed according to the QRRHO of S. Grimme
Chem.Eur.J. 2012 18 9955


-------
ENTROPY
-------

The entropy contributions are T*S = T*(S(el)+S(vib)+S(rot)+S(trans))
     S(el)   - electronic entropy
     S(vib)  - vibrational entropy
     S(rot)  - rotational entropy
     S(trans)- translational entropy
The entropies will be listed as mutliplied by the temperature to get
units of energy

Electronic entropy                ...      0.00000000 Eh      0.00 kcal/mol
Vibrational entropy               ...      0.00000149 Eh      0.00 kcal/mol
Rotational entropy                ...      0.00420683 Eh      2.64 kcal/mol
Translational entropy             ...      0.01899171 Eh     11.92 kcal/mol
-----------------------------------------------------------------------
Final entropy term                ...      0.02320003 Eh     14.56 kcal/mol

In case the symmetry of your molecule has not been determined correctly
or in case you have a reason to use a different symmetry number we print 
out the resulting rotational entropy values for sn=1,12 :
 --------------------------------------------------------
|  sn= 1 | S(rot)=             -inf Eh      -inf kcal/mol|
|  sn= 2 | S(rot)=             -inf Eh      -inf kcal/mol|
|  sn= 3 | S(rot)=             -inf Eh      -inf kcal/mol|
|  sn= 4 | S(rot)=             -inf Eh      -inf kcal/mol|
|  sn= 5 | S(rot)=             -inf Eh      -inf kcal/mol|
|  sn= 6 | S(rot)=             -inf Eh      -inf kcal/mol|
|  sn= 7 | S(rot)=             -inf Eh      -inf kcal/mol|
|  sn= 8 | S(rot)=             -inf Eh      -inf kcal/mol|
|  sn= 9 | S(rot)=             -inf Eh      -inf kcal/mol|
|  sn=10 | S(rot)=             -inf Eh      -inf kcal/mol|
|  sn=11 | S(rot)=             -inf Eh      -inf kcal/mol|
|  sn=12 | S(rot)=             -inf Eh      -inf kcal/mol|
 --------------------------------------------------------


-------------------
GIBBS FREE ENERGY
-------------------

The Gibbs free energy is G = H - T*S

Total enthalpy                    ...   -147.46529179 Eh 
Total entropy correction          ...     -0.02320003 Eh    -14.56 kcal/mol
-----------------------------------------------------------------------
Final Gibbs free energy         ...   -147.48849182 Eh

For completeness - the Gibbs free energy minus the electronic energy
G-E(el)                           ...     -0.01577503 Eh     -9.90 kcal/mol


Total Time for Numerical Frequencies  :        22.647 sec

Timings for individual modules:

Sum of individual times         ...       28.743 sec (=   0.479 min)
GTO integral calculation        ...        3.133 sec (=   0.052 min)  10.9 %
SCF iterations                  ...        8.577 sec (=   0.143 min)  29.8 %
MP2 module                      ...       16.908 sec (=   0.282 min)  58.8 %
Geometry relaxation             ...        0.125 sec (=   0.002 min)   0.4 %
                             ****ORCA TERMINATED NORMALLY****
TOTAL RUN TIME: 0 days 0 hours 0 minutes 47 seconds 239 msec
