
                                 *****************
                                 * O   R   C   A *
                                 *****************

           --- An Ab Initio, DFT and Semiempirical electronic structure package ---

                  #######################################################
                  #                        -***-                        #
                  #          Department of theory and spectroscopy      #
                  #               Directorship: Frank Neese             #
                  #        Max Planck Institute fuer Kohlenforschung    #
                  #                Kaiser Wilhelm Platz 1               #
                  #                 D-45470 Muelheim/Ruhr               #
                  #                      Germany                        #
                  #                                                     #
                  #                  All rights reserved                #
                  #                        -***-                        #
                  #######################################################


                         Program Version 4.2.0 -  RELEASE  -


 With contributions from (in alphabetic order):
   Daniel Aravena         : Magnetic Suceptibility
   Michael Atanasov       : Ab Initio Ligand Field Theory (pilot matlab implementation)
   Alexander A. Auer      : GIAO ZORA, VPT2
   Ute Becker             : Parallelization
   Giovanni Bistoni       : ED, misc. LED, open-shell LED, HFLED
   Martin Brehm           : Molecular dynamics
   Dmytro Bykov           : SCF Hessian
   Vijay G. Chilkuri      : MRCI spin determinant printing, contributions to CSF-ICE
   Dipayan Datta          : RHF DLPNO-CCSD density
   Achintya Kumar Dutta   : EOM-CC, STEOM-CC
   Dmitry Ganyushin       : Spin-Orbit,Spin-Spin,Magnetic field MRCI
   Miquel Garcia          : C-PCM Hessian, Gaussian charge scheme
   Yang Guo               : DLPNO-NEVPT2, CIM, IAO-localization
   Andreas Hansen         : Spin unrestricted coupled pair/coupled cluster methods
   Benjamin Helmich-Paris : CASSCF linear response (MC-RPA)
   Lee Huntington         : MR-EOM, pCC
   Robert Izsak           : Overlap fitted RIJCOSX, COSX-SCS-MP3, EOM
   Christian Kollmar      : KDIIS, OOCD, Brueckner-CCSD(T), CCSD density
   Simone Kossmann        : Meta GGA functionals, TD-DFT gradient, OOMP2, MP2 Hessian
   Martin Krupicka        : AUTO-CI
   Lucas Lang             : DCDCAS
   Dagmar Lenk            : GEPOL surface, SMD
   Dimitrios Liakos       : Extrapolation schemes; Compound Job, initial MDCI parallelization
   Dimitrios Manganas     : Further ROCIS development; embedding schemes
   Dimitrios Pantazis     : SARC Basis sets
   Taras Petrenko         : DFT Hessian,TD-DFT gradient, ASA, ECA, R-Raman, ABS, FL, XAS/XES, NRVS
   Peter Pinski           : DLPNO-MP2, DLPNO-MP2 Gradient
   Christoph Reimann      : Effective Core Potentials
   Marius Retegan         : Local ZFS, SOC
   Christoph Riplinger    : Optimizer, TS searches, QM/MM, DLPNO-CCSD(T), (RO)-DLPNO pert. Triples
   Tobias Risthaus        : Range-separated hybrids, TD-DFT gradient, RPA, STAB
   Michael Roemelt        : Original ROCIS implementation
   Masaaki Saitow         : Open-shell DLPNO-CCSD energy and density
   Barbara Sandhoefer     : DKH picture change effects
   Avijit Sen             : IP-ROCIS
   Kantharuban Sivalingam : CASSCF convergence, NEVPT2, FIC-MRCI
   Bernardo de Souza      : ESD, SOC TD-DFT
   Georgi Stoychev        : AutoAux, RI-MP2 NMR
   Willem Van den Heuvel  : Paramagnetic NMR
   Boris Wezisla          : Elementary symmetry handling
   Frank Wennmohs         : Technical directorship


 We gratefully acknowledge several colleagues who have allowed us to
 interface, adapt or use parts of their codes:
   Stefan Grimme, W. Hujo, H. Kruse,             : VdW corrections, initial TS optimization,
                  C. Bannwarth                     DFT functionals, gCP, sTDA/sTD-DF
   Ed Valeev, F. Pavosevic, A. Kumar             : LibInt (2-el integral package), F12 methods
   Garnet Chan, S. Sharma, J. Yang, R. Olivares  : DMRG
   Ulf Ekstrom                                   : XCFun DFT Library
   Mihaly Kallay                                 : mrcc  (arbitrary order and MRCC methods)
   Andreas Klamt, Michael Diedenhofen            : otool_cosmo (COSMO solvation model)
   Jiri Pittner, Ondrej Demel                    : Mk-CCSD
   Frank Weinhold                                : gennbo (NPA and NBO analysis)
   Christopher J. Cramer and Donald G. Truhlar   : smd solvation model
   Lars Goerigk                                  : TD-DFT with DH, B97 family of functionals
   V. Asgeirsson, H. Jonsson                     : NEB implementation
   FAccTs GmbH                                   : IRC, NEB, NEB-TS, Multilevel, MM, QM/MM, CI optimization
   S Lehtola, MJT Oliveira, MAL Marques          : LibXC Library


 Your calculation uses the libint2 library for the computation of 2-el integrals
 For citations please refer to: http://libint.valeyev.net

 Your ORCA version has been built with support for libXC version: 4.2.3
 For citations please refer to: https://tddft.org/programs/libxc/

 This ORCA versions uses:
   CBLAS   interface :  Fast vector & matrix operations
   LAPACKE interface :  Fast linear algebra routines
   SCALAPACK package :  Parallel linear algebra routines


Your calculation utilizes the atom-pairwise dispersion correction
with the Becke-Johnson damping scheme (D3BJ)
Cite in your paper:
S.Grimme, S.Ehrlich, L.Goerigk, J Comput Chem, (2011), 32, 1456–1465 
S.Grimme, J.Antony, S.Ehrlich and H.Krieg, J.Chem.Phys., 132, (2010), 154104 
   

----- Orbital basis set information -----
Your calculation utilizes the basis: def2-TZVPPD
   F. Weigend and R. Ahlrichs, Phys. Chem. Chem. Phys. 7, 3297 (2005).
   D. Rappoport and F. Furche, J. Chem. Phys. 133 134105 (2010).

----- AuxC basis set information -----
Your calculation utilizes the auxiliary basis: def2-TZVPPD/C
   A. Hellweg, C. Hattig, S. Hofener and W. Klopper, Theor. Chem. Acc. 117, 587 (2007).

----- AuxJK basis set information -----
Your calculation utilizes the auxiliary basis: def2/JK
   H-Ba, Hf-Rn: F. Weigend, J. Comput. Chem. 29, 167 (2008).

cite the ECPs for Ag [Def2-ECP] as follows:
Ce-Yb(ecp-28): M. Dolg, H. Stoll, H.Preuss, J. Chem. Phys., 1989, 90, 1730-1734.
Y-Cd(ecp-28), Hf-Hg(ecp-46): D. Andrae,U. Haeussermann, M. Dolg, H. Stoll, H. Preuss, Theor. Chim. Acta, 1990, 77, 123-141.
In-Sb(ecp-28), Tl-Bi(ecp-46): B. Metz, H. Stoll, M. Dolg, J. Chem. Phys., 2000, 113, 2563-2569.
Te-Xe(ecp-28), Po-Rn(ecp-46): K. A. Peterson, D. Figgen, E. Goll, H. Stoll, M. Dolg, J. Chem. Phys., 2003, 119, 11113-11123.
Rb(ecp-28), Cs(ecp-46): T. Leininger, A. Nicklass, W. Kuechle, H. Stoll, M. Dolg, A. Bergner, Chem. Phys. Lett., 1996, 255, 274-280.
Sr(ecp-28), Ba(ecp-46): M. Kaupp, P. V. Schleyer, H. Stoll and H. Preuss, J. Chem. Phys., 1991, 94, 1360-1366.
La(ecp-46): M. Dolg, H. Stoll, A. Savin, H. Preuss, Theor. Chim. Acta, 1989, 75, 173-194.
Lu(ecp-28): X. Cao, M. Dolg, J. Chem. Phys., 2001, 115, 7348-7355.

ECP parameters for Ag [Def2-ECP] have been obtained from:
TURBOMOLE (7.0.2)

================================================================================
                                        WARNINGS
                       Please study these warnings very carefully!
================================================================================


WARNING: The frozen-core approximation for MP2-gradient calculations is turned on by default.

WARNING: Geometry Optimization
  ===> : Switching off AutoStart
         For restart on a previous wavefunction, please use MOREAD

WARNING: The frozen-core approximation is turned on by default for 
         the MP2 part of double-hybrid DFT.

INFO   : the flag for use of LIBINT has been found!

================================================================================
                                       INPUT FILE
================================================================================
NAME = Ag01N0_F.in
|  1> #
|  2> # Ag01N0_F ri-B2PLYP-D3BJ/Def2-TZVPPD
|  3> #
|  4> ! rijk ri-b2plyp d3bj def2-tzvppd def2/jk def2-tzvppd/c grid4 nofinalgrid opt xyzfile numfreq
|  5> 
|  6> *xyz 0 1
|  7> Ag       0.000000    0.000000    0.317712 
|  8> F        0.000000    0.000000   -1.659163 
|  9> *
| 10> 
| 11> %maxcore 5000
| 12> 
| 13> %pal
| 14> nprocs = 24
| 15> end
| 16> 
| 17> 
| 18>                          ****END OF INPUT****
================================================================================

                       *****************************
                       * Geometry Optimization Run *
                       *****************************

Geometry optimization settings:
Update method            Update   .... BFGS
Choice of coordinates    CoordSys .... Z-matrix Internals
Initial Hessian          InHess   .... Almoef's Model

Convergence Tolerances:
Energy Change            TolE     ....  5.0000e-06 Eh
Max. Gradient            TolMAXG  ....  3.0000e-04 Eh/bohr
RMS Gradient             TolRMSG  ....  1.0000e-04 Eh/bohr
Max. Displacement        TolMAXD  ....  4.0000e-03 bohr
RMS Displacement         TolRMSD  ....  2.0000e-03 bohr
Strict Convergence                ....  False
------------------------------------------------------------------------------
                        ORCA OPTIMIZATION COORDINATE SETUP
------------------------------------------------------------------------------

The optimization will be done in new redundant internal coordinates
Making redundant internal coordinates   ...  (new redundants) done
Evaluating the initial hessian          ...  (Almloef) done
Evaluating the coordinates              ...  done
Calculating the B-matrix                .... done
Calculating the G-matrix                .... done
Diagonalizing the G-matrix              .... done
The first mode is                       ....    0
The number of degrees of freedom        ....    1

    -----------------------------------------------------------------
                    Redundant Internal Coordinates


    -----------------------------------------------------------------
         Definition                    Initial Value    Approx d2E/dq
    -----------------------------------------------------------------
      1. B(F   1,Ag  0)                  1.9769         0.609214   
    -----------------------------------------------------------------

Number of atoms                         .... 2
Number of degrees of freedom            .... 1

         *************************************************************
         *                GEOMETRY OPTIMIZATION CYCLE   1            *
         *************************************************************
---------------------------------
CARTESIAN COORDINATES (ANGSTROEM)
---------------------------------
  Ag     0.000000    0.000000    0.317712
  F      0.000000    0.000000   -1.659163

----------------------------
CARTESIAN COORDINATES (A.U.)
----------------------------
  NO LB      ZA    FRAG     MASS         X           Y           Z
   0 Ag   19.0000*   0   107.870    0.000000    0.000000    0.600389
   1 F     9.0000    0    18.998    0.000000    0.000000   -3.135364
* core charge reduced due to ECP

--------------------------------
INTERNAL COORDINATES (ANGSTROEM)
--------------------------------
 Ag     0   0   0     0.000000000000     0.00000000     0.00000000
 F      1   0   0     1.976875000000     0.00000000     0.00000000

---------------------------
INTERNAL COORDINATES (A.U.)
---------------------------
 Ag     0   0   0     0.000000000000     0.00000000     0.00000000
 F      1   0   0     3.735752350996     0.00000000     0.00000000

---------------------
BASIS SET INFORMATION
---------------------
There are 2 groups of distinct atoms

 Group   1 Type Ag  : 7s7p6d2f1g contracted to 6s4p3d2f1g pattern {211111/4111/411/11/1}
 Group   2 Type F   : 12s7p3d1f contracted to 6s4p3d1f pattern {621111/4111/111/1}

Atom   0Ag   basis set group =>   1
Atom   1F    basis set group =>   2
---------------------------------
AUXILIARY/C BASIS SET INFORMATION
---------------------------------
There are 2 groups of distinct atoms

 Group   1 Type Ag  : 8s7p6d5f4g3h1i contracted to 8s7p6d5f4g3h1i pattern {11111111/1111111/111111/11111/1111/111/1}
 Group   2 Type F   : 9s7p6d4f1g contracted to 9s7p5d4f1g pattern {111111111/1111111/21111/1111/1}

Atom   0Ag   basis set group =>   1
Atom   1F    basis set group =>   2
----------------------------------
AUXILIARY/JK BASIS SET INFORMATION
----------------------------------
There are 2 groups of distinct atoms

 Group   1 Type Ag  : 13s12p10d9f6g3h2i contracted to 11s10p9d8f6g3h2i pattern {31111111111/3111111111/211111111/21111111/111111/111/11}
 Group   2 Type F   : 14s10p6d2f1g contracted to 10s8p4d2f1g pattern {5111111111/31111111/3111/11/1}

Atom   0Ag   basis set group =>   1
Atom   1F    basis set group =>   2
-------------------------
ECP PARAMETER INFORMATION
-------------------------

 Group 1, Type Ag ECP Def2-ECP (replacing 28 core electrons, lmax=3)

Atom   0Ag   ECP group =>   1



           ************************************************************
           *        Program running with 24 parallel MPI-processes    *
           *              working on a common directory               *
           ************************************************************
------------------------------------------------------------------------------
                           ORCA GTO INTEGRAL CALCULATION
                           -- RI-GTO INTEGRALS CHOSEN --
------------------------------------------------------------------------------

                         BASIS SET STATISTICS AND STARTUP INFO

Gaussian basis set:
 # of primitive gaussian shells          ...   46
 # of primitive gaussian functions       ...  136
 # of contracted shells                  ...   30
 # of contracted basis functions         ...   96
 Highest angular momentum                ...    4
 Maximum contraction depth               ...    6
Auxiliary gaussian basis set:
 # of primitive gaussian shells          ...   88
 # of primitive gaussian functions       ...  372
 # of contracted shells                  ...   74
 # of contracted aux-basis functions     ...  332
 Highest angular momentum                ...    6
 Maximum contraction depth               ...    5
Ratio of auxiliary to basis functions    ...  3.46
Integral package used                  ... LIBINT
 One Electron integrals                  
   ECP integrals                         ... done
 Ordering auxiliary basis shells         ... done
 Integral threshhold             Thresh  ...  2.500e-11
 Primitive cut-off               TCut    ...  2.500e-12
 Pre-screening matrix                    ... done
 Shell pair data                         ... 
 Ordering of the shell pairs             ... done (   0.000 sec) 459 of 465 pairs
 Determination of significant pairs      ... done (   0.000 sec)
 Creation of shell pair data             ... done (   0.000 sec)
 Storage of shell pair data              ... done (   0.000 sec)
 Shell pair data done in (   0.001 sec)
 Computing two index integrals           ... done
 Cholesky decomposition of the V-matrix  ... done


Timings:
 Total evaluation time                   ...   0.401 sec (  0.007 min)
 One electron matrix time                ...   0.098 sec (  0.002 min) = 24.3%
 Schwartz matrix evaluation time         ...   0.145 sec (  0.002 min) = 36.3%
 Two index repulsion integral time       ...   0.031 sec (  0.001 min) =  7.6%
 Cholesky decomposition of V             ...   0.098 sec (  0.002 min) = 24.5%
 Three index repulsion integral time     ...   0.000 sec (  0.000 min) =  0.0%



           ************************************************************
           *        Program running with 24 parallel MPI-processes    *
           *              working on a common directory               *
           ************************************************************
-------------------------------------------------------------------------------
                                 ORCA SCF
-------------------------------------------------------------------------------

------------
SCF SETTINGS
------------
Hamiltonian:
 Density Functional     Method          .... DFT(GTOs)
 Exchange Functional    Exchange        .... B88
   X-Alpha parameter    XAlpha          ....  0.666667
   Becke's b parameter  XBeta           ....  0.004200
 Correlation Functional Correlation     .... LYP
 LDA part of GGA corr.  LDAOpt          .... VWN-3
 Gradients option       PostSCFGGA      .... off
 Hybrid DFT is turned on
   Fraction HF Exchange ScalHFX         ....  0.530000
   Scaling of DF-GGA-X  ScalDFX         ....  0.470000
   Scaling of DF-GGA-C  ScalDFC         ....  0.730000
   Scaling of DF-LDA-C  ScalLDAC        ....  0.730000
   Perturbative correction              ....  0.270000
   Density functional embedding theory  .... OFF
 RI-approximation to the Coulomb term is turned on
   Number of auxiliary basis functions  .... 332
   RI-JK (J+K treated both via RI)      .... on


General Settings:
 Integral files         IntName         .... Ag01N0_F
 Hartree-Fock type      HFTyp           .... RHF
 Total Charge           Charge          ....    0
 Multiplicity           Mult            ....    1
 Number of Electrons    NEL             ....   28
 Basis Dimension        Dim             ....   96
 Nuclear Repulsion      ENuc            ....     45.7739121691 Eh

Convergence Acceleration:
 DIIS                   CNVDIIS         .... on
   Start iteration      DIISMaxIt       ....    12
   Startup error        DIISStart       ....  0.200000
   # of expansion vecs  DIISMaxEq       ....     5
   Bias factor          DIISBfac        ....   1.050
   Max. coefficient     DIISMaxC        ....  10.000
 Newton-Raphson         CNVNR           .... off
 SOSCF                  CNVSOSCF        .... off
 Level Shifting         CNVShift        .... on
   Level shift para.    LevelShift      ....    0.2500
   Turn off err/grad.   ShiftErr        ....    0.0010
 Zerner damping         CNVZerner       .... off
 Static damping         CNVDamp         .... on
   Fraction old density DampFac         ....    0.7000
   Max. Damping (<1)    DampMax         ....    0.9800
   Min. Damping (>=0)   DampMin         ....    0.0000
   Turn off err/grad.   DampErr         ....    0.1000
 Fernandez-Rico         CNVRico         .... off

SCF Procedure:
 Maximum # iterations   MaxIter         ....   125
 SCF integral mode      SCFMode         .... Direct
   Integral package                     .... LIBINT
 Reset frequency        DirectResetFreq ....    20
 Integral Threshold     Thresh          ....  2.500e-11 Eh
 Primitive CutOff       TCut            ....  2.500e-12 Eh

Convergence Tolerance:
 Convergence Check Mode ConvCheckMode   .... Total+1el-Energy
 Convergence forced     ConvForced      .... 0
 Energy Change          TolE            ....  1.000e-08 Eh
 1-El. energy change                    ....  1.000e-05 Eh
 DIIS Error             TolErr          ....  5.000e-07


Diagonalization of the overlap matrix:
Smallest eigenvalue                        ... 3.392e-03
Time for diagonalization                   ...    0.017 sec
Threshold for overlap eigenvalues          ... 1.000e-08
Number of eigenvalues below threshold      ... 0
Time for construction of square roots      ...    0.002 sec
Total time needed                          ...    0.019 sec

-------------------
DFT GRID GENERATION
-------------------

General Integration Accuracy     IntAcc      ...  4.670
Radial Grid Type                 RadialGrid  ... Gauss-Chebyshev
Angular Grid (max. acc.)         AngularGrid ... Lebedev-302
Angular grid pruning method      GridPruning ... 3 (G Style)
Weight generation scheme         WeightScheme... Becke
Basis function cutoff            BFCut       ...    1.0000e-11
Integration weight cutoff        WCut        ...    1.0000e-14
Grids for H and He will be reduced by one unit

# of grid points (after initial pruning)     ...  16930 (   0.0 sec)
# of grid points (after weights+screening)   ...  16875 (   0.0 sec)
nearest neighbour list constructed           ...    0.0 sec
Grid point re-assignment to atoms done       ...    0.0 sec
Grid point division into batches done        ...    0.1 sec
Reduced shell lists constructed in    0.1 sec

Total number of grid points                  ...    16875
Total number of batches                      ...      265
Average number of points per batch           ...       63
Average number of grid points per atom       ...     8438
Average number of shells per batch           ...     3.31 (11.03%)
Average number of basis functions per batch  ...     7.62 ( 7.93%)
Average number of large shells per batch     ...     2.08 (62.79%)
Average number of large basis fcns per batch ...     4.38 (57.58%)
Average number of aux-shells per batch       ...     3.31 ( 4.47%)
Average number of aux functions per batch    ...     7.62 ( 2.29%)
Maximum spatial batch extension              ...  36.77, 40.43, 23.83 au
Average spatial batch extension              ...   1.19,  1.22,  0.86 au

Time for grid setup =    0.189 sec

------------------------------
INITIAL GUESS: MODEL POTENTIAL
------------------------------
Loading Hartree-Fock densities                     ... done
  calling /sw/apps/orca/orca_4_2_0_linux_x86-64_openmpi314/orca Ag01N0_F_atom47.inp > Ag01N0_F_atom47.out in order to generate an atomic fitting density for atom 0 (Ag with ECP) on-the-fly... 
    atom 0 (Ag), assumed electronic state with S=2: 1s2 2s2 2p6 3s2 3p6 4s2 3d10 4p6 5s2 4d9           ... done
Calculating cut-offs                               ... done
Setting up the integral package                    ... done
Initializing the effective Hamiltonian             ... done
Starting the Coulomb interaction                   ... done (   0.0 sec)
Reading the grid                                   ... done
Mapping shells                                     ... done
Starting the XC term evaluation                    ... done (   0.0 sec)
  promolecular density results
     # of electrons  =     56.001290403
     EX              =   -154.063202421
     EC              =     -1.013349272
     EX+EC           =   -155.076551693
Transforming the Hamiltonian                       ... done (   0.0 sec)
Diagonalizing the Hamiltonian                      ... done (   0.0 sec)
Back transforming the eigenvectors                 ... done (   0.0 sec)
Now organizing SCF variables                       ... done
                      ------------------
                      INITIAL GUESS DONE (   2.3 sec)
                      ------------------
--------------
SCF ITERATIONS
--------------
ITER       Energy         Delta-E        Max-DP      RMS-DP      [F,P]     Damp
  0   -246.3045257396   0.000000000000 0.07557230  0.00222207  0.5098326 0.7000
  1   -246.1275671334   0.176958606181 0.04584228  0.00176399  0.3532034 0.7000
  2   -246.1879821269  -0.060414993480 0.01979062  0.00078904  0.2303713 0.7000
                               ***Turning on DIIS***
  3   -246.3232170489  -0.135234921975 0.00855782  0.00030114  0.1530082 0.7000
  4   -246.4204667245  -0.097249675659 0.00851178  0.00038384  0.1056597 0.7000
  5   -246.4615429885  -0.041076264023 0.03749202  0.00106036  0.0757111 0.0000
  6   -246.4370137553   0.024529233257 0.00627195  0.00028677  0.0589669 0.0000
  7   -246.4394496437  -0.002435888368 0.00410227  0.00017688  0.0304034 0.0000
  8   -246.4402257259  -0.000776082296 0.00388518  0.00016085  0.0159430 0.0000
  9   -246.4405417091  -0.000315983185 0.00207590  0.00006105  0.0040712 0.0000
 10   -246.4405694715  -0.000027762337 0.00075938  0.00002511  0.0010317 0.0000
 11   -246.4405730364  -0.000003564962 0.00065656  0.00001999  0.0005246 0.0000
 12   -246.4405739154  -0.000000878966 0.00012127  0.00000493  0.0002595 0.0000
 13   -246.4405740243  -0.000000108935 0.00009347  0.00000260  0.0000299 0.0000
 14   -246.4405740363  -0.000000011985 0.00004081  0.00000091  0.0000135 0.0000
                 **** Energy Check signals convergence ****

               *****************************************************
               *                     SUCCESS                       *
               *           SCF CONVERGED AFTER  15 CYCLES          *
               *****************************************************


----------------
TOTAL SCF ENERGY
----------------

Total Energy       :         -246.44057404 Eh           -6705.98895 eV

Components:
Nuclear Repulsion  :           45.77391217 Eh            1245.57147 eV
Electronic Energy  :         -292.21448621 Eh           -7951.56042 eV
One Electron Energy:         -493.22728527 Eh          -13421.39676 eV
Two Electron Energy:          201.01279907 Eh            5469.83634 eV

Virial components:
Potential Energy   :         -402.54730426 Eh          -10953.86903 eV
Kinetic Energy     :          156.10673023 Eh            4247.88009 eV
Virial Ratio       :            2.57866720


DFT components:
N(Alpha)           :       14.000010866334 electrons
N(Beta)            :       14.000010866334 electrons
N(Total)           :       28.000021732668 electrons
E(X)               :      -11.090039832420 Eh       
E(C)               :       -0.774097296176 Eh       
E(XC)              :      -11.864137128596 Eh       
DFET-embed. en.    :        0.000000000000 Eh       

---------------
SCF CONVERGENCE
---------------

  Last Energy change         ...   -1.3605e-09  Tolerance :   1.0000e-08
  Last MAX-Density change    ...    1.1884e-05  Tolerance :   1.0000e-07
  Last RMS-Density change    ...    2.6523e-07  Tolerance :   5.0000e-09
  Last DIIS Error            ...    4.0481e-06  Tolerance :   5.0000e-07

             **** THE GBW FILE WAS UPDATED (Ag01N0_F.gbw) ****
             **** DENSITY FILE WAS UPDATED (Ag01N0_F.scfp) ****
             **** ENERGY FILE WAS UPDATED (Ag01N0_F.en.tmp) ****
             **** THE GBW FILE WAS UPDATED (Ag01N0_F.gbw) ****
             **** DENSITY FILE WAS UPDATED (Ag01N0_F.scfp) ****
----------------
ORBITAL ENERGIES
----------------

  NO   OCC          E(Eh)            E(eV) 
   0   2.0000     -25.215130      -686.1386 
   1   2.0000      -4.014254      -109.2334 
   2   2.0000      -2.549937       -69.3873 
   3   2.0000      -2.549937       -69.3873 
   4   2.0000      -2.549874       -69.3856 
   5   2.0000      -1.178467       -32.0677 
   6   2.0000      -0.475484       -12.9386 
   7   2.0000      -0.453754       -12.3473 
   8   2.0000      -0.453754       -12.3473 
   9   2.0000      -0.437703       -11.9105 
  10   2.0000      -0.437703       -11.9105 
  11   2.0000      -0.361703        -9.8424 
  12   2.0000      -0.361703        -9.8424 
  13   2.0000      -0.345353        -9.3975 
  14   0.0000      -0.081522        -2.2183 
  15   0.0000       0.022343         0.6080 
  16   0.0000       0.022343         0.6080 
  17   0.0000       0.061005         1.6600 
  18   0.0000       0.119315         3.2467 
  19   0.0000       0.176280         4.7968 
  20   0.0000       0.182883         4.9765 
  21   0.0000       0.182883         4.9765 
  22   0.0000       0.235781         6.4159 
  23   0.0000       0.235781         6.4159 
  24   0.0000       0.288946         7.8626 
  25   0.0000       0.390767        10.6333 
  26   0.0000       0.438479        11.9316 
  27   0.0000       0.438479        11.9316 
  28   0.0000       0.528215        14.3735 
  29   0.0000       0.528215        14.3735 
  30   0.0000       0.571338        15.5469 
  31   0.0000       0.620929        16.8963 
  32   0.0000       0.620933        16.8964 
  33   0.0000       0.745220        20.2785 
  34   0.0000       0.745220        20.2785 
  35   0.0000       0.749359        20.3911 
  36   0.0000       0.900316        24.4989 
  37   0.0000       0.900316        24.4989 
  38   0.0000       1.167653        31.7735 
  39   0.0000       1.235292        33.6140 
  40   0.0000       1.679234        45.6943 
  41   0.0000       1.679234        45.6943 
  42   0.0000       1.695610        46.1399 
  43   0.0000       1.695610        46.1399 
  44   0.0000       1.700181        46.2643 
  45   0.0000       1.700181        46.2643 
  46   0.0000       1.777364        48.3645 
  47   0.0000       1.793677        48.8084 
  48   0.0000       1.793677        48.8084 
  49   0.0000       1.881586        51.2005 
  50   0.0000       2.120990        57.7151 
  51   0.0000       2.159524        58.7636 
  52   0.0000       2.159525        58.7637 
  53   0.0000       2.167538        58.9817 
  54   0.0000       2.167538        58.9817 
  55   0.0000       2.208338        60.0919 
  56   0.0000       2.475400        67.3591 
  57   0.0000       2.475427        67.3598 
  58   0.0000       2.555233        69.5314 
  59   0.0000       2.555233        69.5314 
  60   0.0000       2.941335        80.0378 
  61   0.0000       3.616383        98.4068 
  62   0.0000       3.616383        98.4068 
  63   0.0000       3.931100       106.9707 
  64   0.0000       4.336602       118.0049 
  65   0.0000       5.038134       137.0946 
  66   0.0000       5.038134       137.0946 
  67   0.0000       5.048845       137.3861 
  68   0.0000       5.048850       137.3862 
  69   0.0000       5.113809       139.1538 
  70   0.0000       5.113809       139.1538 
  71   0.0000       5.300697       144.2393 
  72   0.0000       5.747056       156.3854 
  73   0.0000       5.747056       156.3854 
  74   0.0000       5.747464       156.3964 
  75   0.0000       5.747466       156.3965 
  76   0.0000       5.747469       156.3966 
  77   0.0000       5.747482       156.3969 
  78   0.0000       5.751109       156.4956 
  79   0.0000       5.751109       156.4956 
  80   0.0000       5.817522       158.3028 
  81   0.0000       7.208734       196.1596 
  82   0.0000       7.209031       196.1677 
  83   0.0000       7.221252       196.5003 
  84   0.0000       7.221252       196.5003 
  85   0.0000       7.236611       196.9182 
  86   0.0000       7.236611       196.9182 
  87   0.0000       7.353908       200.1100 
  88   0.0000       8.817506       239.9365 
  89   0.0000       8.817573       239.9383 
  90   0.0000       8.853271       240.9098 
  91   0.0000       8.853271       240.9098 
  92   0.0000       9.051412       246.3014 
  93   0.0000      33.529802       912.3923 
  94   0.0000      57.765688      1571.8843 
  95   0.0000     109.448105      2978.2344 

                    ********************************
                    * MULLIKEN POPULATION ANALYSIS *
                    ********************************

-----------------------
MULLIKEN ATOMIC CHARGES
-----------------------
   0 Ag:    0.766386
   1 F :   -0.766386
Sum of atomic charges:    0.0000000

--------------------------------
MULLIKEN REDUCED ORBITAL CHARGES
--------------------------------
  0 Ags       :     2.214261  s :     2.214261
      pz      :     2.029528  p :     6.067984
      px      :     2.019228
      py      :     2.019228
      dz2     :     1.940880  d :     9.944516
      dxz     :     2.001431
      dyz     :     2.001431
      dx2y2   :     2.000387
      dxy     :     2.000387
      f0      :     0.003508  f :     0.006762
      f+1     :     0.001515
      f-1     :     0.001515
      f+2     :     0.000112
      f-2     :     0.000112
      f+3     :     0.000000
      f-3     :     0.000000
      g0      :     0.000052  g :     0.000091
      g+1     :     0.000019
      g-1     :     0.000019
      g+2     :    -0.000000
      g-2     :    -0.000000
      g+3     :     0.000000
      g-3     :     0.000000
      g+4     :     0.000000
      g-4     :     0.000000
  1 F s       :     3.993109  s :     3.993109
      pz      :     1.816097  p :     5.775139
      px      :     1.979521
      py      :     1.979521
      dz2     :     0.002525  d :    -0.001955
      dxz     :    -0.001739
      dyz     :    -0.001739
      dx2y2   :    -0.000501
      dxy     :    -0.000501
      f0      :     0.000040  f :     0.000093
      f+1     :     0.000025
      f-1     :     0.000025
      f+2     :     0.000002
      f-2     :     0.000002
      f+3     :     0.000000
      f-3     :     0.000000


                     *******************************
                     * LOEWDIN POPULATION ANALYSIS *
                     *******************************

----------------------
LOEWDIN ATOMIC CHARGES
----------------------
   0 Ag:    0.749662
   1 F :   -0.749662

-------------------------------
LOEWDIN REDUCED ORBITAL CHARGES
-------------------------------
  0 Ags       :     2.131668  s :     2.131668
      pz      :     2.076701  p :     6.137630
      px      :     2.030465
      py      :     2.030465
      dz2     :     1.979356  d :     9.968555
      dxz     :     1.997299
      dyz     :     1.997299
      dx2y2   :     1.997300
      dxy     :     1.997300
      f0      :     0.006822  f :     0.012314
      f+1     :     0.002619
      f-1     :     0.002619
      f+2     :     0.000128
      f-2     :     0.000128
      f+3     :     0.000000
      f-3     :     0.000000
      g0      :     0.000102  g :     0.000171
      g+1     :     0.000035
      g-1     :     0.000035
      g+2     :     0.000000
      g-2     :     0.000000
      g+3     :     0.000000
      g-3     :     0.000000
      g+4     :     0.000000
      g-4     :     0.000000
  1 F s       :     3.886645  s :     3.886645
      pz      :     1.866287  p :     5.766690
      px      :     1.950202
      py      :     1.950202
      dz2     :     0.052300  d :     0.096069
      dxz     :     0.019317
      dyz     :     0.019317
      dx2y2   :     0.002567
      dxy     :     0.002567
      f0      :     0.000120  f :     0.000258
      f+1     :     0.000064
      f-1     :     0.000064
      f+2     :     0.000005
      f-2     :     0.000005
      f+3     :     0.000000
      f-3     :     0.000000


                      *****************************
                      * MAYER POPULATION ANALYSIS *
                      *****************************

  NA   - Mulliken gross atomic population
  ZA   - Total nuclear charge
  QA   - Mulliken gross atomic charge
  VA   - Mayer's total valence
  BVA  - Mayer's bonded valence
  FA   - Mayer's free valence

  ATOM       NA         ZA         QA         VA         BVA        FA
  0 Ag    18.2336    19.0000     0.7664     0.3708     0.3708     0.0000
  1 F      9.7664     9.0000    -0.7664     0.3708     0.3708    -0.0000

  Mayer bond orders larger than 0.100000
B(  0-Ag,  1-F ) :   0.3708 

-------
TIMINGS
-------

Total SCF time: 0 days 0 hours 0 min 4 sec 

Total time                  ....       4.486 sec
Sum of individual times     ....       4.356 sec  ( 97.1%)

Fock matrix formation       ....       2.019 sec  ( 45.0%)
  XC integration            ....       0.354 sec  ( 17.5% of F)
    Basis function eval.    ....       0.032 sec  (  9.0% of XC)
    Density eval.           ....       0.017 sec  (  4.9% of XC)
    XC-Functional eval.     ....       0.011 sec  (  3.1% of XC)
    XC-Potential eval.      ....       0.024 sec  (  6.9% of XC)
Diagonalization             ....       0.021 sec  (  0.5%)
Density matrix formation    ....       0.005 sec  (  0.1%)
Population analysis         ....       0.003 sec  (  0.1%)
Initial guess               ....       2.106 sec  ( 46.9%)
Orbital Transformation      ....       0.000 sec  (  0.0%)
Orbital Orthonormalization  ....       0.000 sec  (  0.0%)
DIIS solution               ....       0.014 sec  (  0.3%)
Grid generation             ....       0.189 sec  (  4.2%)


           ************************************************************
           *        Program running with 24 parallel MPI-processes    *
           *              working on a common directory               *
           ************************************************************

------------------------------------------------------------------------------
                                ORCA  MP2 
------------------------------------------------------------------------------

Freezing NCore=2 chemical core electrons

----------------------
RI-MP2 ENERGY+GRADIENT
----------------------
Dimension of the basis                    ...   96
Memory devoted to MP2                     ... 5000 MB   
Data format for buffers                   ... DOUBLE
Compression type for matrix containers    ... UNCOMPRESSED
Overall scaling of the MP2 energy         ...   2.700e-01
Calculating two index integrals           ... done (    0.005 sec)
Cholesky decomposition of the V-matrix    ... done
Cholesky decomposition of V**-1           ... done (    0.003 sec)

-----------------
RI-TRANSFORMATION (AUX index driven)
-----------------

Dimension of the orbital-basis         ... 96
Dimension of the aux-basis             ... 268
Transformation of internal MOs         ...    0-  13
Transformation of internal/external MOs...    0-  13 to   14-  95
Number Format for Storage              ... Double (8 Byte)
Integral mode                          ... Direct

First Phase: integral generation and transformation of MO indices
  Aux angular momentum 0               ... done (    0.000 sec)
  Aux angular momentum 1               ... done (    0.001 sec)
  Aux angular momentum 2               ... done (    0.001 sec)
  Aux angular momentum 3               ... done (    0.001 sec)
  Aux angular momentum 4               ... done (    0.002 sec)
  Aux angular momentum 5               ... done (    0.002 sec)
  Aux angular momentum 6               ... done (    0.003 sec)
Closing buffer VIJ ( 0.00 GB; CompressionRatio= 0.99)
Closing buffer VIA ( 0.00 GB; CompressionRatio= 1.00)
  Phase 1 completed in     0.115 sec
Second Phase: sorting and transformation of aux index

IJ-Transformation
Memory available                       ... 4997 MB 
Max. # MO pairs treated in a batch     ... 1    
# of internal orbitals                 ... 14
# batches for internal orbitals        ... 1
Closing buffer IJV ( 0.00 GB; CompressionRatio= 0.99)
(ij|v) transformation done in     0.015 sec

IA-Transformation
Memory available                       ... 4997 MB 
Max. # MO pairs treated in a batch     ... 1    
# of internal orbitals                 ... 14
# batches for internal orbitals        ... 1
Closing buffer IAV ( 0.00 GB; CompressionRatio= 1.00)
(ia|v) transformation done in     0.003 sec

  Phase 2 completed in     0.050 sec
RI-Integral transformation completed in     0.166 sec
Opening buffers                              ... done
Frozen core precalculation                   ... done

Starting loop over batches of integrals:

Operator 0  - window                       ... (  1- 13)x( 14- 95)
Operator 0  - Memory available             ...  5000 MB
Operator 0  - Memory needed per MO         ...   0.3 MB
Operator 0  - Number of orbitals per batch ... 1
Operator 0  - Number of batches            ... 1

OPERATOR  0   PASS   0:  MOs     1 ...    1 +    2 ...    2 +    3 ...    3 +    4 ...    4
                            +    5 ...    5 +    6 ...    6 +    7 ...    7 +    8 ...    8
                            +    9 ...    9 +   10 ...   10 +   11 ...   11 +   12 ...   12
                            +   13 ...   13
  Reading integrals       ... ok
Closing buffer GIPV ( 0.00 GB; CompressionRatio= 1.00)
Time spent in pair loops =     0.075 sec
Deleting buffer (Ka|jb)[aa] ...done

-----------------------------------------------
 RI-MP2 CORRELATION ENERGY:     -0.291210874 Eh
-----------------------------------------------


---------------------
MP2 DENSITY FORMATION
---------------------

Completing the external part of the density      ... done
Storing the unrelaxed density                    ... done

Calculating the xc-kernel                        ... done
Calculating G(D)                                 ... done
Completing the Lagrangian                        ... done
Solving the Z-vector equations                   ... 

------------------------------------------------------------------------------
                           ORCA CP-SCF CALCULATION
------------------------------------------------------------------------------

Input orbitals are from        ... Ag01N0_F.gbw
Input Perturbation             ... Ag01N0_F.pin.tmp
Wavefunction output            ... Ag01N0_F.pout.tmp
Perturbation mode              ... Real perturbation (singlet)
Solver                         ... POPLE
Max. number of iterations      ... 128
Convergence tolerance          ... 1.000e-08
Integral handling              ... Direct
Number of perturbations        ... 1
Number of operators            ... 1
Orbital ranges used for CP-SCF:
 Operator 0:  Orbitals   0... 13  to  14... 95
DFT calculation                         ... on
Exchange functional (SCF)               ... B88
Exchange functional (CP-SCF)            ... B88
   X-Alpha parameter    XAlpha (SCF)    ...  0.666667
   X-Alpha parameter    XAlpha (CP-SCF) ...  0.666667
   Becke's b parameter  XBeta (SCF)     ...  0.004200
   Becke's b parameter  XBeta (CP-SCF)  ...  0.004200
Correlation functional (SCF)            ... LYP
Correlation functional (CP-SCF)         ... LYP
 LDA part of GGA corr.  LDAOpt (SCF)    ... VWN-3
 LDA part of GGA corr.  LDAOpt (CP-SCF) ... VWN-3
Hybrid DFT                              ... on
   Exchange mixing (SCF)                ...  0.530
   Exchange mixing (CP-SCF)             ...  0.530
   GGA exch. scaling(SCF)               ...  0.470
   GGA exch. scaling (CP-SCF)           ...  0.470
   GGA corr. scaling (SCF)              ...  0.730
   GGA corr. scaling (CP-SCF)           ...  0.730
Variables per vector in CP-SCF ... 1148
Number of vectors sought       ... 1
Recalculating density on grid  ... done
Calculating the xc-kernel      ... done
     CP-SCF ITERATION   0: 
     CP-SCF ITERATION   1:      0.000680843225
     CP-SCF ITERATION   2:      0.000250440658
     CP-SCF ITERATION   3:      0.000011673137
     CP-SCF ITERATION   4:      0.000000337178
     CP-SCF ITERATION   5:      0.000000024702
     CP-SCF ITERATION   6:      0.000000003331
done
Finalizing the relaxed density                   ... done
Transforming P to the AO basis                   ... done
Storing the relaxed density                      ... done

------------------------------------
ENERGY WEIGHTED DENSITY FINALIZATION
------------------------------------

Gathering the parts of the W-matrix              ... done
Forming the Z-density                            ... done
Transforming Z to the AO basis                   ... done
Calculating G(Z)                                 ... done
Finalizing the W-matrix                          ... done
Transforming W to the AO basis and storing       ... done
Entering the RIJONX and RIJCOSX sections
Starting the three-index derivative integrals:
Operator 0  - Memory available             ...  5000 MB
Operator 0  - Memory needed per MO         ...   0.4 MB
Operator 0  - Number of orbitals per batch ... 1
Operator 0  - Number of batches            ... 1

OPERATOR  0   PASS   0:  MOs     1 ...    1 +    2 ...    2 +    3 ...    3 +    4 ...    4
                            +    5 ...    5 +    6 ...    6 +    7 ...    7 +    8 ...    8
                            +    9 ...    9 +   10 ...   10 +   11 ...   11 +   12 ...   12
                            +   13 ...   13

----------------------------------
MP2 DERIVATIVE INTEGRAL GENERATION
----------------------------------


Input Correlated Electron Density   ... Ag01N0_F.pmp2re
Input Energy Weighted Density       ... Ag01N0_F.wmp2.tmp
Input SCF Electron Density          ... Ag01N0_F.scfp

One-Electron Terms    ...
  ECP gradient                                           ... One-Electron Terms done
Prescreening matrices              ... done
Exchange-correlation gradient    ... done
Dispersion correction            ... done

                *********************************************
                * UNRELAXED MP2 DENSITY POPULATION ANALYSIS *
                *********************************************

------------------------------------------------------------------------------
                           ORCA POPULATION ANALYSIS
------------------------------------------------------------------------------
Input electron density              ... Ag01N0_F.pmp2ur
BaseName (.gbw .S,...)              ... Ag01N0_F

                    ********************************
                    * MULLIKEN POPULATION ANALYSIS *
                    ********************************

-----------------------
MULLIKEN ATOMIC CHARGES
-----------------------
   0 Ag:    0.757773
   1 F :   -0.757773
Sum of atomic charges:   -0.0000000

--------------------------------
MULLIKEN REDUCED ORBITAL CHARGES
--------------------------------
  0 Ags       :     2.220558  s :     2.220558
      pz      :     2.029043  p :     6.069653
      px      :     2.020305
      py      :     2.020305
      dz2     :     1.933306  d :     9.907365
      dxz     :     1.993960
      dyz     :     1.993960
      dx2y2   :     1.993069
      dxy     :     1.993069
      f0      :     0.008417  f :     0.041979
      f+1     :     0.006518
      f-1     :     0.006518
      f+2     :     0.005176
      f-2     :     0.005176
      f+3     :     0.005087
      f-3     :     0.005087
      g0      :     0.000344  g :     0.002671
      g+1     :     0.000310
      g-1     :     0.000310
      g+2     :     0.000288
      g-2     :     0.000288
      g+3     :     0.000285
      g-3     :     0.000285
      g+4     :     0.000280
      g-4     :     0.000280
  1 F s       :     3.991631  s :     3.991631
      pz      :     1.806700  p :     5.757359
      px      :     1.975329
      py      :     1.975329
      dz2     :     0.004488  d :     0.008065
      dxz     :     0.000352
      dyz     :     0.000352
      dx2y2   :     0.001436
      dxy     :     0.001436
      f0      :     0.000130  f :     0.000719
      f+1     :     0.000116
      f-1     :     0.000116
      f+2     :     0.000091
      f-2     :     0.000091
      f+3     :     0.000088
      f-3     :     0.000088


                     *******************************
                     * LOEWDIN POPULATION ANALYSIS *
                     *******************************

----------------------
LOEWDIN ATOMIC CHARGES
----------------------
   0 Ag:    0.742544
   1 F :   -0.742544

-------------------------------
LOEWDIN REDUCED ORBITAL CHARGES
-------------------------------
  0 Ags       :     2.136308  s :     2.136308
      pz      :     2.075909  p :     6.139511
      px      :     2.031801
      py      :     2.031801
      dz2     :     1.971483  d :     9.931221
      dxz     :     1.989906
      dyz     :     1.989906
      dx2y2   :     1.989963
      dxy     :     1.989963
      f0      :     0.011794  f :     0.047663
      f+1     :     0.007658
      f-1     :     0.007658
      f+2     :     0.005190
      f-2     :     0.005190
      f+3     :     0.005087
      f-3     :     0.005087
      g0      :     0.000394  g :     0.002753
      g+1     :     0.000326
      g-1     :     0.000326
      g+2     :     0.000288
      g-2     :     0.000288
      g+3     :     0.000285
      g-3     :     0.000285
      g+4     :     0.000280
      g-4     :     0.000280
  1 F s       :     3.885653  s :     3.885653
      pz      :     1.858289  p :     5.749432
      px      :     1.945571
      py      :     1.945571
      dz2     :     0.054570  d :     0.106568
      dxz     :     0.021473
      dyz     :     0.021473
      dx2y2   :     0.004526
      dxy     :     0.004526
      f0      :     0.000216  f :     0.000891
      f+1     :     0.000156
      f-1     :     0.000156
      f+2     :     0.000094
      f-2     :     0.000094
      f+3     :     0.000088
      f-3     :     0.000088


                      *****************************
                      * MAYER POPULATION ANALYSIS *
                      *****************************

  NA   - Mulliken gross atomic population
  ZA   - Total nuclear charge
  QA   - Mulliken gross atomic charge
  VA   - Mayer's total valence
  BVA  - Mayer's bonded valence
  FA   - Mayer's free valence

  ATOM       NA         ZA         QA         VA         BVA        FA
  0 Ag    18.2422    19.0000     0.7578     0.6981     0.3593     0.3388
  1 F      9.7578     9.0000    -0.7578     0.5682     0.3593     0.2089

  Mayer bond orders larger than 0.100000
B(  0-Ag,  1-F ) :   0.3593 


                *******************************************
                * RELAXED MP2 DENSITY POPULATION ANALYSIS *
                *******************************************

------------------------------------------------------------------------------
                           ORCA POPULATION ANALYSIS
------------------------------------------------------------------------------
Input electron density              ... Ag01N0_F.pmp2re
BaseName (.gbw .S,...)              ... Ag01N0_F

                    ********************************
                    * MULLIKEN POPULATION ANALYSIS *
                    ********************************

-----------------------
MULLIKEN ATOMIC CHARGES
-----------------------
   0 Ag:    0.700972
   1 F :   -0.700972
Sum of atomic charges:   -0.0000000

--------------------------------
MULLIKEN REDUCED ORBITAL CHARGES
--------------------------------
  0 Ags       :     2.283113  s :     2.283113
      pz      :     2.027473  p :     6.077818
      px      :     2.025173
      py      :     2.025173
      dz2     :     1.921720  d :     9.893782
      dxz     :     1.993053
      dyz     :     1.993053
      dx2y2   :     1.992978
      dxy     :     1.992978
      f0      :     0.008174  f :     0.041646
      f+1     :     0.006486
      f-1     :     0.006486
      f+2     :     0.005164
      f-2     :     0.005164
      f+3     :     0.005087
      f-3     :     0.005087
      g0      :     0.000341  g :     0.002667
      g+1     :     0.000310
      g-1     :     0.000310
      g+2     :     0.000288
      g-2     :     0.000288
      g+3     :     0.000285
      g-3     :     0.000285
      g+4     :     0.000280
      g-4     :     0.000280
  1 F s       :     3.989613  s :     3.989613
      pz      :     1.759042  p :     5.700587
      px      :     1.970773
      py      :     1.970773
      dz2     :     0.005003  d :     0.010040
      dxz     :     0.000979
      dyz     :     0.000979
      dx2y2   :     0.001539
      dxy     :     0.001539
      f0      :     0.000137  f :     0.000732
      f+1     :     0.000118
      f-1     :     0.000118
      f+2     :     0.000091
      f-2     :     0.000091
      f+3     :     0.000088
      f-3     :     0.000088


                     *******************************
                     * LOEWDIN POPULATION ANALYSIS *
                     *******************************

----------------------
LOEWDIN ATOMIC CHARGES
----------------------
   0 Ag:    0.713621
   1 F :   -0.713621

-------------------------------
LOEWDIN REDUCED ORBITAL CHARGES
-------------------------------
  0 Ags       :     2.178307  s :     2.178307
      pz      :     2.067992  p :     6.141499
      px      :     2.036754
      py      :     2.036754
      dz2     :     1.960108  d :     9.916907
      dxz     :     1.988585
      dyz     :     1.988585
      dx2y2   :     1.989814
      dxy     :     1.989814
      f0      :     0.011254  f :     0.046923
      f+1     :     0.007571
      f-1     :     0.007571
      f+2     :     0.005177
      f-2     :     0.005177
      f+3     :     0.005087
      f-3     :     0.005087
      g0      :     0.000387  g :     0.002742
      g+1     :     0.000324
      g-1     :     0.000324
      g+2     :     0.000288
      g-2     :     0.000288
      g+3     :     0.000285
      g-3     :     0.000285
      g+4     :     0.000280
      g-4     :     0.000280
  1 F s       :     3.887793  s :     3.887793
      pz      :     1.833505  p :     5.716589
      px      :     1.941542
      py      :     1.941542
      dz2     :     0.055051  d :     0.108340
      dxz     :     0.021958
      dyz     :     0.021958
      dx2y2   :     0.004687
      dxy     :     0.004687
      f0      :     0.000220  f :     0.000900
      f+1     :     0.000158
      f-1     :     0.000158
      f+2     :     0.000094
      f-2     :     0.000094
      f+3     :     0.000088
      f-3     :     0.000088


                      *****************************
                      * MAYER POPULATION ANALYSIS *
                      *****************************

  NA   - Mulliken gross atomic population
  ZA   - Total nuclear charge
  QA   - Mulliken gross atomic charge
  VA   - Mayer's total valence
  BVA  - Mayer's bonded valence
  FA   - Mayer's free valence

  ATOM       NA         ZA         QA         VA         BVA        FA
  0 Ag    18.2990    19.0000     0.7010     0.7963     0.4687     0.3276
  1 F      9.7010     9.0000    -0.7010     0.6696     0.4687     0.2009

  Mayer bond orders larger than 0.100000
B(  0-Ag,  1-F ) :   0.4687 


-------
TIMINGS
-------

Total time                :    7.009 sec
Integral trafo            :    0.175 sec (  2.5%)
FC preparation            :    0.004 sec (  0.1%)
I/O of integrals          :    0.000 sec (  0.0%)
K(i,j) Operators          :    0.001 sec (  0.0%)
T(i,j) pair energies      :    0.000 sec (  0.0%)
V-calculation             :    0.005 sec (  0.1%)
V**(-1/2)                 :    0.003 sec (  0.0%)
Gamma(ia|P)               :    0.001 sec (  0.0%)
Gamma-Trafo               :    0.001 sec (  0.0%)
D(virtual)                :    0.000 sec (  0.0%)
D(internal)               :    0.001 sec (  0.0%)
W(virtual)                :    0.000 sec (  0.0%)
W(internal)               :    0.001 sec (  0.0%)
L(virtual)                :    0.033 sec (  0.5%)
L(internal)               :    0.000 sec (  0.0%)
G(D)                      :    0.362 sec (  5.2%)
G(Z)                      :    0.312 sec (  4.5%)
Z-Vector Solution         :    1.955 sec ( 27.9%)
Z-Vector Solution         :    1.955 sec ( 27.9%)
3-Index Derivative 
+ Separable RIJ part      :    0.159 sec (  2.3%)
2-Index Derivative 
+ Separable RIJ part      :    0.001 sec (  0.0%)
Separable Gradient (X)    :    0.943 sec ( 13.5%)


---------------------------------------
MP2 TOTAL ENERGY:     -246.731784912 Eh
---------------------------------------

-----------------------------------
NORM OF THE MP2 GRADIENT:  0.006347
-----------------------------------


-------------------------------------------------------------------------------
                          DFT DISPERSION CORRECTION                            
                                                                               
                              DFTD3 V3.1  Rev 1                                
                          USING Becke-Johnson damping                          
-------------------------------------------------------------------------------
The B2PLYP functional is recognized
Active option DFTDOPT                   ...         4   

molecular C6(AA) [au] = 356.028846 


            DFT-D V3
 parameters
 s6 scaling factor         :     0.6400 
 a1 scaling factor         :     0.3065 
 s8 scaling factor         :     0.9147 
 a2 scaling factor         :     5.0570 
 ad hoc parameters k1-k3   :    16.0000     1.3333    -4.0000 

 Edisp/kcal,au: -0.285748561108  -0.000455369269 
 E6   /kcal   :  -0.131916901 
 E8   /kcal   :  -0.153831660 
 % E8         :  53.834622717 

-------------------------   ----------------
Dispersion correction           -0.000455369
-------------------------   ----------------


-------------------------   --------------------
FINAL SINGLE POINT ENERGY      -246.732240280865
-------------------------   --------------------

------------------------------------------------------------------------------
                         ORCA GEOMETRY RELAXATION STEP
------------------------------------------------------------------------------

Reading the OPT-File                    .... done
Getting information on internals        .... done
Copying old internal coords+grads       .... done
Making the new internal coordinates     .... (new redundants).... done
Validating the new internal coordinates .... (new redundants).... done
Calculating the B-matrix                .... done
Calculating the G,G- and P matrices     .... done
Transforming gradient to internals      .... done
Projecting the internal gradient        .... done
Number of atoms                         ....   2
Number of internal coordinates          ....   1
Current Energy                          ....  -246.732240281 Eh
Current gradient norm                   ....     0.006347192 Eh/bohr
Maximum allowed component of the step   ....  0.300
Current trust radius                    ....  0.300
Evaluating the initial hessian          ....  (Almloef) done
Projecting the Hessian                  .... done
Forming the augmented Hessian           .... done
Diagonalizing the augmented Hessian     .... done
Last element of RFO vector              ....  0.999972868
Lowest eigenvalues of augmented Hessian:
 -0.000033062
Length of the computed step             ....  0.007366623
The final length of the internal step   ....  0.007366623
Converting the step to cartesian space:
 Initial RMS(Int)=    0.0073666235
Transforming coordinates:
 Iter   0:  RMS(Cart)=    0.0021265610 RMS(Int)=    0.0073666235
 Iter   1:  RMS(Cart)=    0.0000000000 RMS(Int)=    0.0000000000
done
Storing new coordinates                 .... done

                                .--------------------.
          ----------------------|Geometry convergence|-------------------------
          Item                value                   Tolerance       Converged
          ---------------------------------------------------------------------
          RMS gradient        0.0044880942            0.0001000000      NO
          MAX gradient        0.0044880942            0.0003000000      NO
          RMS step            0.0073666235            0.0020000000      NO
          MAX step            0.0073666235            0.0040000000      NO
          ........................................................
          Max(Bonds)      0.0039      Max(Angles)    0.00
          Max(Dihed)        0.00      Max(Improp)    0.00
          ---------------------------------------------------------------------

The optimization has not yet converged - more geometry cycles are needed


    ---------------------------------------------------------------------------
                         Redundant Internal Coordinates
                            (Angstroem and degrees)

        Definition                    Value    dE/dq     Step     New-Value
    ----------------------------------------------------------------------------
     1. B(F   1,Ag  0)                1.9769 -0.004488  0.0039    1.9808   
    ----------------------------------------------------------------------------

         *************************************************************
         *                GEOMETRY OPTIMIZATION CYCLE   2            *
         *************************************************************
---------------------------------
CARTESIAN COORDINATES (ANGSTROEM)
---------------------------------
  Ag     0.000000    0.000000    0.319661
  F      0.000000    0.000000   -1.661112

----------------------------
CARTESIAN COORDINATES (A.U.)
----------------------------
  NO LB      ZA    FRAG     MASS         X           Y           Z
   0 Ag   19.0000*   0   107.870    0.000000    0.000000    0.604072
   1 F     9.0000    0    18.998    0.000000    0.000000   -3.139047
* core charge reduced due to ECP

--------------------------------
INTERNAL COORDINATES (ANGSTROEM)
--------------------------------
 Ag     0   0   0     0.000000000000     0.00000000     0.00000000
 F      1   0   0     1.980773249232     0.00000000     0.00000000

---------------------------
INTERNAL COORDINATES (A.U.)
---------------------------
 Ag     0   0   0     0.000000000000     0.00000000     0.00000000
 F      1   0   0     3.743118974446     0.00000000     0.00000000



           ************************************************************
           *        Program running with 24 parallel MPI-processes    *
           *              working on a common directory               *
           ************************************************************
 One Electron integrals                  ... done
 Pre-screening matrix                    ... done


           ************************************************************
           *        Program running with 24 parallel MPI-processes    *
           *              working on a common directory               *
           ************************************************************

Diagonalization of the overlap matrix:
Smallest eigenvalue                        ... 3.423e-03
Time for diagonalization                   ...    0.002 sec
Threshold for overlap eigenvalues          ... 1.000e-08
Number of eigenvalues below threshold      ... 0
Time for construction of square roots      ...    0.002 sec
Total time needed                          ...    0.004 sec

-------------------
DFT GRID GENERATION
-------------------

General Integration Accuracy     IntAcc      ...  4.670
Radial Grid Type                 RadialGrid  ... Gauss-Chebyshev
Angular Grid (max. acc.)         AngularGrid ... Lebedev-302
Angular grid pruning method      GridPruning ... 3 (G Style)
Weight generation scheme         WeightScheme... Becke
Basis function cutoff            BFCut       ...    1.0000e-11
Integration weight cutoff        WCut        ...    1.0000e-14
Grids for H and He will be reduced by one unit

# of grid points (after initial pruning)     ...  16930 (   0.0 sec)
# of grid points (after weights+screening)   ...  16875 (   0.0 sec)
nearest neighbour list constructed           ...    0.0 sec
Grid point re-assignment to atoms done       ...    0.0 sec
Grid point division into batches done        ...    0.2 sec
Reduced shell lists constructed in    0.2 sec

Total number of grid points                  ...    16875
Total number of batches                      ...      265
Average number of points per batch           ...       63
Average number of grid points per atom       ...     8438
Average number of shells per batch           ...     3.31 (11.03%)
Average number of basis functions per batch  ...     7.62 ( 7.93%)
Average number of large shells per batch     ...     2.08 (62.79%)
Average number of large basis fcns per batch ...     4.38 (57.58%)
Average number of aux-shells per batch       ...     3.31 ( 4.47%)
Average number of aux functions per batch    ...     7.62 ( 2.29%)
Maximum spatial batch extension              ...  36.77, 40.43, 23.83 au
Average spatial batch extension              ...   1.19,  1.22,  0.86 au

Time for grid setup =    0.174 sec

--------------
SCF ITERATIONS
--------------
ITER       Energy         Delta-E        Max-DP      RMS-DP      [F,P]     Damp
  0   -246.4406309830   0.000000000000 0.00012918  0.00000461  0.0064312 0.7000
  1   -246.4406896557  -0.000058672723 0.00010730  0.00000453  0.0045245 0.7000
                               ***Turning on DIIS***
  2   -246.4406872499   0.000002405834 0.00029916  0.00001221  0.0031702 0.0000
  3   -246.4406328436   0.000054406275 0.00019660  0.00000645  0.0001402 0.0000
  4   -246.4406328498  -0.000000006199 0.00008155  0.00000288  0.0002263 0.0000
  5   -246.4406329177  -0.000000067844 0.00005388  0.00000118  0.0000289 0.0000
  6   -246.4406329211  -0.000000003468 0.00002969  0.00000061  0.0000203 0.0000
  7   -246.4406329224  -0.000000001265 0.00002897  0.00000056  0.0000093 0.0000
  8   -246.4406329229  -0.000000000448 0.00000762  0.00000015  0.0000014 0.0000
                 **** Energy Check signals convergence ****

               *****************************************************
               *                     SUCCESS                       *
               *           SCF CONVERGED AFTER   9 CYCLES          *
               *****************************************************

Total Energy       :         -246.44063292 Eh           -6705.99055 eV
  Last Energy change         ...   -2.5182e-11  Tolerance :   1.0000e-08
  Last MAX-Density change    ...    4.4731e-07  Tolerance :   1.0000e-07
             **** THE GBW FILE WAS UPDATED (Ag01N0_F.gbw) ****
             **** DENSITY FILE WAS UPDATED (Ag01N0_F.scfp) ****
             **** ENERGY FILE WAS UPDATED (Ag01N0_F.en.tmp) ****
             **** THE GBW FILE WAS UPDATED (Ag01N0_F.gbw) ****
             **** DENSITY FILE WAS UPDATED (Ag01N0_F.scfp) ****
Total SCF time: 0 days 0 hours 0 min 1 sec 


           ************************************************************
           *        Program running with 24 parallel MPI-processes    *
           *              working on a common directory               *
           ************************************************************

------------------------------------------------------------------------------
                                ORCA  MP2 
------------------------------------------------------------------------------

Freezing NCore=2 chemical core electrons

----------------------
RI-MP2 ENERGY+GRADIENT
----------------------
Dimension of the basis                    ...   96
Memory devoted to MP2                     ... 5000 MB   
Data format for buffers                   ... DOUBLE
Compression type for matrix containers    ... UNCOMPRESSED
Overall scaling of the MP2 energy         ...   2.700e-01
Calculating two index integrals           ... done (    0.005 sec)
Cholesky decomposition of the V-matrix    ... done
Cholesky decomposition of V**-1           ... done (    0.003 sec)

-----------------
RI-TRANSFORMATION (AUX index driven)
-----------------

Dimension of the orbital-basis         ... 96
Dimension of the aux-basis             ... 268
Transformation of internal MOs         ...    0-  13
Transformation of internal/external MOs...    0-  13 to   14-  95
Number Format for Storage              ... Double (8 Byte)
Integral mode                          ... Direct

First Phase: integral generation and transformation of MO indices
  Aux angular momentum 0               ... done (    0.000 sec)
  Aux angular momentum 1               ... done (    0.001 sec)
  Aux angular momentum 2               ... done (    0.001 sec)
  Aux angular momentum 3               ... done (    0.001 sec)
  Aux angular momentum 4               ... done (    0.002 sec)
  Aux angular momentum 5               ... done (    0.002 sec)
  Aux angular momentum 6               ... done (    0.004 sec)
Closing buffer VIJ ( 0.00 GB; CompressionRatio= 0.99)
Closing buffer VIA ( 0.00 GB; CompressionRatio= 1.00)
  Phase 1 completed in     0.105 sec
Second Phase: sorting and transformation of aux index

IJ-Transformation
Memory available                       ... 4997 MB 
Max. # MO pairs treated in a batch     ... 1    
# of internal orbitals                 ... 14
# batches for internal orbitals        ... 1
Closing buffer IJV ( 0.00 GB; CompressionRatio= 0.99)
(ij|v) transformation done in     0.001 sec

IA-Transformation
Memory available                       ... 4997 MB 
Max. # MO pairs treated in a batch     ... 1    
# of internal orbitals                 ... 14
# batches for internal orbitals        ... 1
Closing buffer IAV ( 0.00 GB; CompressionRatio= 1.00)
(ia|v) transformation done in     0.002 sec

  Phase 2 completed in     0.011 sec
RI-Integral transformation completed in     0.118 sec
Opening buffers                              ... done
Frozen core precalculation                   ... done

Starting loop over batches of integrals:

Operator 0  - window                       ... (  1- 13)x( 14- 95)
Operator 0  - Memory available             ...  5000 MB
Operator 0  - Memory needed per MO         ...   0.3 MB
Operator 0  - Number of orbitals per batch ... 1
Operator 0  - Number of batches            ... 1

OPERATOR  0   PASS   0:  MOs     1 ...    1 +    2 ...    2 +    3 ...    3 +    4 ...    4
                            +    5 ...    5 +    6 ...    6 +    7 ...    7 +    8 ...    8
                            +    9 ...    9 +   10 ...   10 +   11 ...   11 +   12 ...   12
                            +   13 ...   13
  Reading integrals       ... ok
Closing buffer GIPV ( 0.00 GB; CompressionRatio= 1.00)
Time spent in pair loops =     0.118 sec
Deleting buffer (Ka|jb)[aa] ...done

-----------------------------------------------
 RI-MP2 CORRELATION ENERGY:     -0.291181453 Eh
-----------------------------------------------


---------------------
MP2 DENSITY FORMATION
---------------------

Completing the external part of the density      ... done
Storing the unrelaxed density                    ... done

Calculating the xc-kernel                        ... done
Calculating G(D)                                 ... done
Completing the Lagrangian                        ... done
Solving the Z-vector equations                   ... 

------------------------------------------------------------------------------
                           ORCA CP-SCF CALCULATION
------------------------------------------------------------------------------

Input orbitals are from        ... Ag01N0_F.gbw
Input Perturbation             ... Ag01N0_F.pin.tmp
Wavefunction output            ... Ag01N0_F.pout.tmp
Perturbation mode              ... Real perturbation (singlet)
Solver                         ... POPLE
Max. number of iterations      ... 128
Convergence tolerance          ... 1.000e-08
Integral handling              ... Direct
Number of perturbations        ... 1
Number of operators            ... 1
Orbital ranges used for CP-SCF:
 Operator 0:  Orbitals   0... 13  to  14... 95
DFT calculation                         ... on
Exchange functional (SCF)               ... B88
Exchange functional (CP-SCF)            ... B88
   X-Alpha parameter    XAlpha (SCF)    ...  0.666667
   X-Alpha parameter    XAlpha (CP-SCF) ...  0.666667
   Becke's b parameter  XBeta (SCF)     ...  0.004200
   Becke's b parameter  XBeta (CP-SCF)  ...  0.004200
Correlation functional (SCF)            ... LYP
Correlation functional (CP-SCF)         ... LYP
 LDA part of GGA corr.  LDAOpt (SCF)    ... VWN-3
 LDA part of GGA corr.  LDAOpt (CP-SCF) ... VWN-3
Hybrid DFT                              ... on
   Exchange mixing (SCF)                ...  0.530
   Exchange mixing (CP-SCF)             ...  0.530
   GGA exch. scaling(SCF)               ...  0.470
   GGA exch. scaling (CP-SCF)           ...  0.470
   GGA corr. scaling (SCF)              ...  0.730
   GGA corr. scaling (CP-SCF)           ...  0.730
Variables per vector in CP-SCF ... 1148
Number of vectors sought       ... 1
Recalculating density on grid  ... done
Calculating the xc-kernel      ... done
     CP-SCF ITERATION   0: 
     CP-SCF ITERATION   1:      0.000679650959
     CP-SCF ITERATION   2:      0.000249726225
     CP-SCF ITERATION   3:      0.000011661626
     CP-SCF ITERATION   4:      0.000000338121
     CP-SCF ITERATION   5:      0.000000024336
     CP-SCF ITERATION   6:      0.000000003290
done
Finalizing the relaxed density                   ... done
Transforming P to the AO basis                   ... done
Storing the relaxed density                      ... done

------------------------------------
ENERGY WEIGHTED DENSITY FINALIZATION
------------------------------------

Gathering the parts of the W-matrix              ... done
Forming the Z-density                            ... done
Transforming Z to the AO basis                   ... done
Calculating G(Z)                                 ... done
Finalizing the W-matrix                          ... done
Transforming W to the AO basis and storing       ... done
Entering the RIJONX and RIJCOSX sections
Starting the three-index derivative integrals:
Operator 0  - Memory available             ...  5000 MB
Operator 0  - Memory needed per MO         ...   0.4 MB
Operator 0  - Number of orbitals per batch ... 1
Operator 0  - Number of batches            ... 1

OPERATOR  0   PASS   0:  MOs     1 ...    1 +    2 ...    2 +    3 ...    3 +    4 ...    4
                            +    5 ...    5 +    6 ...    6 +    7 ...    7 +    8 ...    8
                            +    9 ...    9 +   10 ...   10 +   11 ...   11 +   12 ...   12
                            +   13 ...   13

----------------------------------
MP2 DERIVATIVE INTEGRAL GENERATION
----------------------------------


Input Correlated Electron Density   ... Ag01N0_F.pmp2re
Input Energy Weighted Density       ... Ag01N0_F.wmp2.tmp
Input SCF Electron Density          ... Ag01N0_F.scfp

One-Electron Terms    ...
  ECP gradient                                           ... One-Electron Terms done
Prescreening matrices              ... done
Exchange-correlation gradient    ... done
Dispersion correction            ... done

-------
TIMINGS
-------

Total time                :    4.266 sec
Integral trafo            :    0.127 sec (  3.0%)
FC preparation            :    0.010 sec (  0.2%)
I/O of integrals          :    0.000 sec (  0.0%)
K(i,j) Operators          :    0.001 sec (  0.0%)
T(i,j) pair energies      :    0.001 sec (  0.0%)
V-calculation             :    0.005 sec (  0.1%)
V**(-1/2)                 :    0.003 sec (  0.1%)
Gamma(ia|P)               :    0.001 sec (  0.0%)
Gamma-Trafo               :    0.001 sec (  0.0%)
D(virtual)                :    0.000 sec (  0.0%)
D(internal)               :    0.001 sec (  0.0%)
W(virtual)                :    0.000 sec (  0.0%)
W(internal)               :    0.002 sec (  0.0%)
L(virtual)                :    0.037 sec (  0.9%)
L(internal)               :    0.000 sec (  0.0%)
G(D)                      :    0.331 sec (  7.8%)
G(Z)                      :    0.334 sec (  7.8%)
Z-Vector Solution         :    1.993 sec ( 46.7%)
Z-Vector Solution         :    1.993 sec ( 46.7%)
3-Index Derivative 
+ Separable RIJ part      :    0.158 sec (  3.7%)
2-Index Derivative 
+ Separable RIJ part      :    0.001 sec (  0.0%)
Separable Gradient (X)    :    0.924 sec ( 21.7%)


---------------------------------------
MP2 TOTAL ENERGY:     -246.731814376 Eh
---------------------------------------

-----------------------------------
NORM OF THE MP2 GRADIENT:  0.004667
-----------------------------------


-------------------------------------------------------------------------------
                          DFT DISPERSION CORRECTION                            
                                                                               
                              DFTD3 V3.1  Rev 1                                
                          USING Becke-Johnson damping                          
-------------------------------------------------------------------------------
-------------------------   ----------------
Dispersion correction           -0.000455325
-------------------------   ----------------


-------------------------   --------------------
FINAL SINGLE POINT ENERGY      -246.732269700530
-------------------------   --------------------

------------------------------------------------------------------------------
                         ORCA GEOMETRY RELAXATION STEP
------------------------------------------------------------------------------

Reading the OPT-File                    .... done
Getting information on internals        .... done
Copying old internal coords+grads       .... done
Making the new internal coordinates     .... (new redundants).... done
Validating the new internal coordinates .... (new redundants).... done
Calculating the B-matrix                .... done
Calculating the G,G- and P matrices     .... done
Transforming gradient to internals      .... done
Projecting the internal gradient        .... done
Number of atoms                         ....   2
Number of internal coordinates          ....   1
Current Energy                          ....  -246.732269701 Eh
Current gradient norm                   ....     0.004667095 Eh/bohr
Maximum allowed component of the step   ....  0.300
Current trust radius                    ....  0.300
Updating the Hessian (BFGS)             .... done
Forming the augmented Hessian           .... done
Diagonalizing the augmented Hessian     .... done
Last element of RFO vector              ....  0.999790863
Lowest eigenvalues of augmented Hessian:
 -0.000067503
Length of the computed step             ....  0.020454961
The final length of the internal step   ....  0.020454961
Converting the step to cartesian space:
 Initial RMS(Int)=    0.0204549610
Transforming coordinates:
 Iter   0:  RMS(Cart)=    0.0059048386 RMS(Int)=    0.0204549610
 Iter   1:  RMS(Cart)=    0.0000000000 RMS(Int)=    0.0000000000
done
Storing new coordinates                 .... done

                                .--------------------.
          ----------------------|Geometry convergence|-------------------------
          Item                value                   Tolerance       Converged
          ---------------------------------------------------------------------
          Energy change      -0.0000294197            0.0000050000      NO
          RMS gradient        0.0033000983            0.0001000000      NO
          MAX gradient        0.0033000983            0.0003000000      NO
          RMS step            0.0204549610            0.0020000000      NO
          MAX step            0.0204549610            0.0040000000      NO
          ........................................................
          Max(Bonds)      0.0108      Max(Angles)    0.00
          Max(Dihed)        0.00      Max(Improp)    0.00
          ---------------------------------------------------------------------

The optimization has not yet converged - more geometry cycles are needed


    ---------------------------------------------------------------------------
                         Redundant Internal Coordinates
                            (Angstroem and degrees)

        Definition                    Value    dE/dq     Step     New-Value
    ----------------------------------------------------------------------------
     1. B(F   1,Ag  0)                1.9808 -0.003300  0.0108    1.9916   
    ----------------------------------------------------------------------------

         *************************************************************
         *                GEOMETRY OPTIMIZATION CYCLE   3            *
         *************************************************************
---------------------------------
CARTESIAN COORDINATES (ANGSTROEM)
---------------------------------
  Ag     0.000000    0.000000    0.325073
  F      0.000000    0.000000   -1.666524

----------------------------
CARTESIAN COORDINATES (A.U.)
----------------------------
  NO LB      ZA    FRAG     MASS         X           Y           Z
   0 Ag   19.0000*   0   107.870    0.000000    0.000000    0.614299
   1 F     9.0000    0    18.998    0.000000    0.000000   -3.149274
* core charge reduced due to ECP

--------------------------------
INTERNAL COORDINATES (ANGSTROEM)
--------------------------------
 Ag     0   0   0     0.000000000000     0.00000000     0.00000000
 F      1   0   0     1.991597548369     0.00000000     0.00000000

---------------------------
INTERNAL COORDINATES (A.U.)
---------------------------
 Ag     0   0   0     0.000000000000     0.00000000     0.00000000
 F      1   0   0     3.763573935407     0.00000000     0.00000000



[...]
      g0      :     0.000337  g :     0.002659
      g+1     :     0.000308
      g-1     :     0.000308
      g+2     :     0.000288
      g-2     :     0.000288
      g+3     :     0.000285
      g-3     :     0.000285
      g+4     :     0.000280
      g-4     :     0.000280
  1 F s       :     3.989270  s :     3.989270
      pz      :     1.757098  p :     5.699375
      px      :     1.971138
      py      :     1.971138
      dz2     :     0.004948  d :     0.009900
      dxz     :     0.000931
      dyz     :     0.000931
      dx2y2   :     0.001545
      dxy     :     0.001545
      f0      :     0.000134  f :     0.000723
      f+1     :     0.000116
      f-1     :     0.000116
      f+2     :     0.000090
      f-2     :     0.000090
      f+3     :     0.000088
      f-3     :     0.000088


                     *******************************
                     * LOEWDIN POPULATION ANALYSIS *
                     *******************************

----------------------
LOEWDIN ATOMIC CHARGES
----------------------
   0 Ag:    0.714028
   1 F :   -0.714028

-------------------------------
LOEWDIN REDUCED ORBITAL CHARGES
-------------------------------
  0 Ags       :     2.177612  s :     2.177612
      pz      :     2.067334  p :     6.139249
      px      :     2.035958
      py      :     2.035958
      dz2     :     1.962853  d :     9.920202
      dxz     :     1.988704
      dyz     :     1.988704
      dx2y2   :     1.989970
      dxy     :     1.989970
      f0      :     0.010861  f :     0.046182
      f+1     :     0.007407
      f-1     :     0.007407
      f+2     :     0.005172
      f-2     :     0.005172
      f+3     :     0.005082
      f-3     :     0.005082
      g0      :     0.000378  g :     0.002727
      g+1     :     0.000321
      g-1     :     0.000321
      g+2     :     0.000288
      g-2     :     0.000288
      g+3     :     0.000285
      g-3     :     0.000285
      g+4     :     0.000280
      g-4     :     0.000280
  1 F s       :     3.890663  s :     3.890663
      pz      :     1.831338  p :     5.717233
      px      :     1.942948
      py      :     1.942948
      dz2     :     0.053408  d :     0.105256
      dxz     :     0.021388
      dyz     :     0.021388
      dx2y2   :     0.004537
      dxy     :     0.004537
      f0      :     0.000209  f :     0.000875
      f+1     :     0.000152
      f-1     :     0.000152
      f+2     :     0.000093
      f-2     :     0.000093
      f+3     :     0.000088
      f-3     :     0.000088


                      *****************************
                      * MAYER POPULATION ANALYSIS *
                      *****************************

  NA   - Mulliken gross atomic population
  ZA   - Total nuclear charge
  QA   - Mulliken gross atomic charge
  VA   - Mayer's total valence
  BVA  - Mayer's bonded valence
  FA   - Mayer's free valence

  ATOM       NA         ZA         QA         VA         BVA        FA
  0 Ag    18.3007    19.0000     0.6993     0.7961     0.4689     0.3272
  1 F      9.6993     9.0000    -0.6993     0.6706     0.4689     0.2017

  Mayer bond orders larger than 0.100000
B(  0-Ag,  1-F ) :   0.4689 


-------
TIMINGS
-------

Total time                :    4.284 sec
Integral trafo            :    0.128 sec (  3.0%)
FC preparation            :    0.019 sec (  0.4%)
I/O of integrals          :    0.000 sec (  0.0%)
K(i,j) Operators          :    0.001 sec (  0.0%)
T(i,j) pair energies      :    0.000 sec (  0.0%)
V-calculation             :    0.006 sec (  0.1%)
V**(-1/2)                 :    0.003 sec (  0.1%)
Gamma(ia|P)               :    0.001 sec (  0.0%)
Gamma-Trafo               :    0.001 sec (  0.0%)
D(virtual)                :    0.000 sec (  0.0%)
D(internal)               :    0.001 sec (  0.0%)
W(virtual)                :    0.000 sec (  0.0%)
W(internal)               :    0.002 sec (  0.0%)
L(virtual)                :    0.035 sec (  0.8%)
L(internal)               :    0.000 sec (  0.0%)
G(D)                      :    0.381 sec (  8.9%)
G(Z)                      :    0.384 sec (  9.0%)
Z-Vector Solution         :    2.060 sec ( 48.1%)
Z-Vector Solution         :    2.060 sec ( 48.1%)
3-Index Derivative 
+ Separable RIJ part      :    0.166 sec (  3.9%)
2-Index Derivative 
+ Separable RIJ part      :    0.001 sec (  0.0%)
Separable Gradient (X)    :    0.927 sec ( 21.6%)


---------------------------------------
MP2 TOTAL ENERGY:     -246.731850791 Eh
---------------------------------------

-----------------------------------
NORM OF THE MP2 GRADIENT:  0.000001
-----------------------------------


-------------------------------------------------------------------------------
                          DFT DISPERSION CORRECTION                            
                                                                               
                              DFTD3 V3.1  Rev 1                                
                          USING Becke-Johnson damping                          
-------------------------------------------------------------------------------
The B2PLYP functional is recognized
Active option DFTDOPT                   ...         4   

molecular C6(AA) [au] = 356.185160 


            DFT-D V3
 parameters
 s6 scaling factor         :     0.6400 
 a1 scaling factor         :     0.3065 
 s8 scaling factor         :     0.9147 
 a2 scaling factor         :     5.0570 
 ad hoc parameters k1-k3   :    16.0000     1.3333    -4.0000 

 Edisp/kcal,au: -0.285643022472  -0.000455201083 
 E6   /kcal   :  -0.131821364 
 E8   /kcal   :  -0.153821659 
 % E8         :  53.851012126 

-------------------------   ----------------
Dispersion correction           -0.000455201
-------------------------   ----------------


-------------------------   --------------------
FINAL SINGLE POINT ENERGY      -246.732305991892
-------------------------   --------------------

                                *** OPTIMIZATION RUN DONE ***

                            ***************************************
                            *     ORCA property calculations      *
                            ***************************************

                                    ---------------------
                                    Active property flags
                                    ---------------------
   (+) Dipole Moment


------------------------------------------------------------------------------
                       ORCA ELECTRIC PROPERTIES CALCULATION
------------------------------------------------------------------------------

Dipole Moment Calculation                       ... on
Quadrupole Moment Calculation                   ... off
Polarizability Calculation                      ... off
GBWName                                         ... Ag01N0_F.gbw
Electron density file                           ... Ag01N0_F.scfp
The origin for moment calculation is the CENTER OF MASS  = ( 0.000000,  0.000000  0.051016)

-------------
DIPOLE MOMENT
-------------
                                X             Y             Z
Electronic contribution:     -0.00000      -0.00000      20.60049
Nuclear contribution   :      0.00000       0.00000     -18.09598
                        -----------------------------------------
Total Dipole Moment    :     -0.00000      -0.00000       2.50451
                        -----------------------------------------
Magnitude (a.u.)       :      2.50451
Magnitude (Debye)      :      6.36597



--------------------
Rotational spectrum 
--------------------
 
Rotational constants in cm-1:     0.000000     0.262991     0.262991 
Rotational constants in MHz :     0.000000  7884.283767  7884.283767 

 Dipole components along the rotational axes: 
x,y,z [a.u.] :     2.504514    -0.000000    -0.000000 
x,y,z [Debye]:     6.365969    -0.000000    -0.000000 

 

                         *** MP2 UNRELAXED DENSITY ***

------------------------------------------------------------------------------
                       ORCA ELECTRIC PROPERTIES CALCULATION
------------------------------------------------------------------------------

Dipole Moment Calculation                       ... on
Quadrupole Moment Calculation                   ... off
Polarizability Calculation                      ... off
GBWName                                         ... Ag01N0_F.gbw
Electron density file                           ... Ag01N0_F.pmp2ur
The origin for moment calculation is the CENTER OF MASS  = ( 0.000000,  0.000000  0.051016)

-------------
DIPOLE MOMENT
-------------
                                X             Y             Z
Electronic contribution:     -0.00000      -0.00000      20.56511
Nuclear contribution   :      0.00000       0.00000     -18.09598
                        -----------------------------------------
Total Dipole Moment    :     -0.00000      -0.00000       2.46913
                        -----------------------------------------
Magnitude (a.u.)       :      2.46913
Magnitude (Debye)      :      6.27604



--------------------
Rotational spectrum 
--------------------
 
Rotational constants in cm-1:     0.000000     0.262991     0.262991 
Rotational constants in MHz :     0.000000  7884.283767  7884.283767 

 Dipole components along the rotational axes: 
x,y,z [a.u.] :     2.469134    -0.000000    -0.000000 
x,y,z [Debye]:     6.276040    -0.000000    -0.000000 

 

                           *** MP2 RELAXED DENSITY ***

------------------------------------------------------------------------------
                       ORCA ELECTRIC PROPERTIES CALCULATION
------------------------------------------------------------------------------

Dipole Moment Calculation                       ... on
Quadrupole Moment Calculation                   ... off
Polarizability Calculation                      ... off
GBWName                                         ... Ag01N0_F.gbw
Electron density file                           ... Ag01N0_F.pmp2re
The origin for moment calculation is the CENTER OF MASS  = ( 0.000000,  0.000000  0.051016)

-------------
DIPOLE MOMENT
-------------
                                X             Y             Z
Electronic contribution:     -0.00000      -0.00000      20.41670
Nuclear contribution   :      0.00000       0.00000     -18.09598
                        -----------------------------------------
Total Dipole Moment    :     -0.00000      -0.00000       2.32072
                        -----------------------------------------
Magnitude (a.u.)       :      2.32072
Magnitude (Debye)      :      5.89880



--------------------
Rotational spectrum 
--------------------
 
Rotational constants in cm-1:     0.000000     0.262991     0.262991 
Rotational constants in MHz :     0.000000  7884.283767  7884.283767 

 Dipole components along the rotational axes: 
x,y,z [a.u.] :     2.320719    -0.000000    -0.000000 
x,y,z [Debye]:     5.898798    -0.000000    -0.000000 

 

----------------------------------------------------------------------------
                           ORCA NUMERICAL FREQUENCIES
                              (24-process run)
----------------------------------------------------------------------------

Number of atoms                ... 2
Central differences            ... used
Number of displacements        ... 12
Numerical increment            ... 5.000e-03 bohr
IR-spectrum generation         ... on
Raman-spectrum generation      ... off
Surface Crossing Hessian       ... off

 WARNING: There are more processes than displacements to do
  ====> : Reducing number of processes to   6

The output will be reduced. Please look at the following files:
SCF program output             ... >Ag01N0_F.lastscf
Integral program output        ... >Ag01N0_F.lastint
Gradient program output        ... >Ag01N0_F.lastgrad
Dipole moment program output   ... >Ag01N0_F.lastmom
AutoCI program output          ... >Ag01N0_F.lastautoci


         <<< Energy and Gradient at the input geometry >>>

        <<< Energy and Gradient at displaced geometries >>>
             <<<Displacing   2/coordinate 2 (+)>>>
             <<<Displacing   1/coordinate 1 (+)>>>
             <<<Displacing   2/coordinate 1 (+)>>>
             <<<Displacing   1/coordinate 2 (+)>>>
             <<<Displacing   2/coordinate 3 (+)>>>
             <<<Displacing   1/coordinate 3 (+)>>>
             <<<Displacing   1/coordinate 3 (-)>>>
             <<<Displacing   2/coordinate 1 (-)>>>
             <<<Displacing   1/coordinate 2 (-)>>>
             <<<Displacing   2/coordinate 2 (-)>>>
             <<<Displacing   1/coordinate 1 (-)>>>
             <<<Displacing   2/coordinate 3 (-)>>>
Warning: T+R mode no 5 is zero 

-----------------------
VIBRATIONAL FREQUENCIES
-----------------------

Scaling factor for frequencies =  1.000000000 (already applied!)

   0:         0.00 cm**-1
   1:         0.00 cm**-1
   2:         0.00 cm**-1
   3:         0.00 cm**-1
   4:         0.00 cm**-1
   5:       496.87 cm**-1


------------
NORMAL MODES
------------

These modes are the cartesian displacements weighted by the diagonal matrix
M(i,i)=1/sqrt(m[i]) where m[i] is the mass of the displaced atom
Thus, these vectors are normalized but *not* orthogonal

                  0          1          2          3          4          5    
      0       0.000000   0.000000   0.000000   0.000000   0.000000   0.000000
      1       0.000000   0.000000   0.000000   0.000000   0.000000   0.000000
      2       0.000000   0.000000   0.000000   0.000000   0.000000   0.173450
      3       0.000000   0.000000   0.000000   0.000000   0.000000   0.000000
      4       0.000000   0.000000   0.000000   0.000000   0.000000   0.000000
      5       0.000000   0.000000   0.000000   0.000000   0.000000  -0.984843


-----------
IR SPECTRUM  
-----------

 Mode    freq (cm**-1)   T**2         TX         TY         TZ
-------------------------------------------------------------------
   5:       496.87   52.309918  ( -0.000000   0.000000   7.232560)

The first frequency considered to be a vibration is 5
The total number of vibrations considered is 1


--------------------------
THERMOCHEMISTRY AT 298.15K
--------------------------

Temperature         ... 298.15 K
Pressure            ... 1.00 atm
Total Mass          ... 126.87 AMU
The molecule is recognized as being linear

Throughout the following assumptions are being made:
  (1) The electronic state is orbitally nondegenerate
  (2) There are no thermally accessible electronically excited states
  (3) Hindered rotations indicated by low frequency modes are not
      treated as such but are treated as vibrations and this may
      cause some error
  (4) All equations used are the standard statistical mechanics
      equations for an ideal gas
  (5) All vibrations are strictly harmonic

freq.     496.87  E(vib)   ...       0.14 

------------
INNER ENERGY
------------

The inner energy is: U= E(el) + E(ZPE) + E(vib) + E(rot) + E(trans)
    E(el)   - is the total energy from the electronic structure calculation
              = E(kin-el) + E(nuc-el) + E(el-el) + E(nuc-nuc)
    E(ZPE)  - the the zero temperature vibrational energy from the frequency calculation
    E(vib)  - the the finite temperature correction to E(ZPE) due to population
              of excited vibrational states
    E(rot)  - is the rotational thermal energy
    E(trans)- is the translational thermal energy

Summary of contributions to the inner energy U:
Electronic energy                ...   -246.73230579 Eh
Zero point energy                ...      0.00113196 Eh       0.71 kcal/mol
Thermal vibrational correction   ...      0.00022644 Eh       0.14 kcal/mol
Thermal rotational correction    ...      0.00094418 Eh       0.59 kcal/mol
Thermal translational correction ...      0.00141627 Eh       0.89 kcal/mol
-----------------------------------------------------------------------
Total thermal energy                   -246.72858694 Eh


Summary of corrections to the electronic energy:
(perhaps to be used in another calculation)
Total thermal correction                  0.00258690 Eh       1.62 kcal/mol
Non-thermal (ZPE) correction              0.00113196 Eh       0.71 kcal/mol
-----------------------------------------------------------------------
Total correction                          0.00371885 Eh       2.33 kcal/mol


--------
ENTHALPY
--------

The enthalpy is H = U + kB*T
                kB is Boltzmann's constant
Total free energy                 ...   -246.72858694 Eh 
Thermal Enthalpy correction       ...      0.00094421 Eh       0.59 kcal/mol
-----------------------------------------------------------------------
Total Enthalpy                    ...   -246.72764273 Eh


Note: Rotational entropy computed according to Herzberg 
Infrared and Raman Spectra, Chapter V,1, Van Nostrand Reinhold, 1945 
Point Group:  Cinfv, Symmetry Number:   1  
Rotational constants in cm-1:     0.000000     0.262991     0.262991 

Vibrational entropy computed according to the QRRHO of S. Grimme
Chem.Eur.J. 2012 18 9955


-------
ENTROPY
-------

The entropy contributions are T*S = T*(S(el)+S(vib)+S(rot)+S(trans))
     S(el)   - electronic entropy
     S(vib)  - vibrational entropy
     S(rot)  - rotational entropy
     S(trans)- translational entropy
The entropies will be listed as mutliplied by the temperature to get
units of energy

Electronic entropy                ...      0.00000000 Eh      0.00 kcal/mol
Vibrational entropy               ...      0.00031691 Eh      0.20 kcal/mol
Rotational entropy                ...      0.00724134 Eh      4.54 kcal/mol
Translational entropy             ...      0.01920828 Eh     12.05 kcal/mol
-----------------------------------------------------------------------
Final entropy term                ...      0.02676654 Eh     16.80 kcal/mol

In case the symmetry of your molecule has not been determined correctly
or in case you have a reason to use a different symmetry number we print 
out the resulting rotational entropy values for sn=1,12 :
 --------------------------------------------------------
|  sn= 1 | S(rot)=             -inf Eh      -inf kcal/mol|
|  sn= 2 | S(rot)=             -inf Eh      -inf kcal/mol|
|  sn= 3 | S(rot)=             -inf Eh      -inf kcal/mol|
|  sn= 4 | S(rot)=             -inf Eh      -inf kcal/mol|
|  sn= 5 | S(rot)=             -inf Eh      -inf kcal/mol|
|  sn= 6 | S(rot)=             -inf Eh      -inf kcal/mol|
|  sn= 7 | S(rot)=             -inf Eh      -inf kcal/mol|
|  sn= 8 | S(rot)=             -inf Eh      -inf kcal/mol|
|  sn= 9 | S(rot)=             -inf Eh      -inf kcal/mol|
|  sn=10 | S(rot)=             -inf Eh      -inf kcal/mol|
|  sn=11 | S(rot)=             -inf Eh      -inf kcal/mol|
|  sn=12 | S(rot)=             -inf Eh      -inf kcal/mol|
 --------------------------------------------------------


-------------------
GIBBS FREE ENERGY
-------------------

The Gibbs free energy is G = H - T*S

Total enthalpy                    ...   -246.72764273 Eh 
Total entropy correction          ...     -0.02676654 Eh    -16.80 kcal/mol
-----------------------------------------------------------------------
Final Gibbs free energy         ...   -246.75440926 Eh

For completeness - the Gibbs free energy minus the electronic energy
G-E(el)                           ...     -0.02210347 Eh    -13.87 kcal/mol


Total Time for Numerical Frequencies  :        44.719 sec

Timings for individual modules:

Sum of individual times         ...       52.414 sec (=   0.874 min)
GTO integral calculation        ...        4.659 sec (=   0.078 min)   8.9 %
SCF iterations                  ...       13.426 sec (=   0.224 min)  25.6 %
MP2 module                      ...       31.424 sec (=   0.524 min)  60.0 %
Geometry relaxation             ...        2.904 sec (=   0.048 min)   5.5 %
                             ****ORCA TERMINATED NORMALLY****
TOTAL RUN TIME: 0 days 0 hours 1 minutes 31 seconds 765 msec
