
                                 *****************
                                 * O   R   C   A *
                                 *****************

           --- An Ab Initio, DFT and Semiempirical electronic structure package ---

                  #######################################################
                  #                        -***-                        #
                  #          Department of theory and spectroscopy      #
                  #               Directorship: Frank Neese             #
                  #        Max Planck Institute fuer Kohlenforschung    #
                  #                Kaiser Wilhelm Platz 1               #
                  #                 D-45470 Muelheim/Ruhr               #
                  #                      Germany                        #
                  #                                                     #
                  #                  All rights reserved                #
                  #                        -***-                        #
                  #######################################################


                         Program Version 4.2.0 -  RELEASE  -


 With contributions from (in alphabetic order):
   Daniel Aravena         : Magnetic Suceptibility
   Michael Atanasov       : Ab Initio Ligand Field Theory (pilot matlab implementation)
   Alexander A. Auer      : GIAO ZORA, VPT2
   Ute Becker             : Parallelization
   Giovanni Bistoni       : ED, misc. LED, open-shell LED, HFLED
   Martin Brehm           : Molecular dynamics
   Dmytro Bykov           : SCF Hessian
   Vijay G. Chilkuri      : MRCI spin determinant printing, contributions to CSF-ICE
   Dipayan Datta          : RHF DLPNO-CCSD density
   Achintya Kumar Dutta   : EOM-CC, STEOM-CC
   Dmitry Ganyushin       : Spin-Orbit,Spin-Spin,Magnetic field MRCI
   Miquel Garcia          : C-PCM Hessian, Gaussian charge scheme
   Yang Guo               : DLPNO-NEVPT2, CIM, IAO-localization
   Andreas Hansen         : Spin unrestricted coupled pair/coupled cluster methods
   Benjamin Helmich-Paris : CASSCF linear response (MC-RPA)
   Lee Huntington         : MR-EOM, pCC
   Robert Izsak           : Overlap fitted RIJCOSX, COSX-SCS-MP3, EOM
   Christian Kollmar      : KDIIS, OOCD, Brueckner-CCSD(T), CCSD density
   Simone Kossmann        : Meta GGA functionals, TD-DFT gradient, OOMP2, MP2 Hessian
   Martin Krupicka        : AUTO-CI
   Lucas Lang             : DCDCAS
   Dagmar Lenk            : GEPOL surface, SMD
   Dimitrios Liakos       : Extrapolation schemes; Compound Job, initial MDCI parallelization
   Dimitrios Manganas     : Further ROCIS development; embedding schemes
   Dimitrios Pantazis     : SARC Basis sets
   Taras Petrenko         : DFT Hessian,TD-DFT gradient, ASA, ECA, R-Raman, ABS, FL, XAS/XES, NRVS
   Peter Pinski           : DLPNO-MP2, DLPNO-MP2 Gradient
   Christoph Reimann      : Effective Core Potentials
   Marius Retegan         : Local ZFS, SOC
   Christoph Riplinger    : Optimizer, TS searches, QM/MM, DLPNO-CCSD(T), (RO)-DLPNO pert. Triples
   Tobias Risthaus        : Range-separated hybrids, TD-DFT gradient, RPA, STAB
   Michael Roemelt        : Original ROCIS implementation
   Masaaki Saitow         : Open-shell DLPNO-CCSD energy and density
   Barbara Sandhoefer     : DKH picture change effects
   Avijit Sen             : IP-ROCIS
   Kantharuban Sivalingam : CASSCF convergence, NEVPT2, FIC-MRCI
   Bernardo de Souza      : ESD, SOC TD-DFT
   Georgi Stoychev        : AutoAux, RI-MP2 NMR
   Willem Van den Heuvel  : Paramagnetic NMR
   Boris Wezisla          : Elementary symmetry handling
   Frank Wennmohs         : Technical directorship


 We gratefully acknowledge several colleagues who have allowed us to
 interface, adapt or use parts of their codes:
   Stefan Grimme, W. Hujo, H. Kruse,             : VdW corrections, initial TS optimization,
                  C. Bannwarth                     DFT functionals, gCP, sTDA/sTD-DF
   Ed Valeev, F. Pavosevic, A. Kumar             : LibInt (2-el integral package), F12 methods
   Garnet Chan, S. Sharma, J. Yang, R. Olivares  : DMRG
   Ulf Ekstrom                                   : XCFun DFT Library
   Mihaly Kallay                                 : mrcc  (arbitrary order and MRCC methods)
   Andreas Klamt, Michael Diedenhofen            : otool_cosmo (COSMO solvation model)
   Jiri Pittner, Ondrej Demel                    : Mk-CCSD
   Frank Weinhold                                : gennbo (NPA and NBO analysis)
   Christopher J. Cramer and Donald G. Truhlar   : smd solvation model
   Lars Goerigk                                  : TD-DFT with DH, B97 family of functionals
   V. Asgeirsson, H. Jonsson                     : NEB implementation
   FAccTs GmbH                                   : IRC, NEB, NEB-TS, Multilevel, MM, QM/MM, CI optimization
   S Lehtola, MJT Oliveira, MAL Marques          : LibXC Library


 Your calculation uses the libint2 library for the computation of 2-el integrals
 For citations please refer to: http://libint.valeyev.net

 Your ORCA version has been built with support for libXC version: 4.2.3
 For citations please refer to: https://tddft.org/programs/libxc/

 This ORCA versions uses:
   CBLAS   interface :  Fast vector & matrix operations
   LAPACKE interface :  Fast linear algebra routines
   SCALAPACK package :  Parallel linear algebra routines


Your calculation utilizes the atom-pairwise dispersion correction
with the Becke-Johnson damping scheme (D3BJ)
Cite in your paper:
S.Grimme, S.Ehrlich, L.Goerigk, J Comput Chem, (2011), 32, 1456–1465 
S.Grimme, J.Antony, S.Ehrlich and H.Krieg, J.Chem.Phys., 132, (2010), 154104 
   

----- Orbital basis set information -----
Your calculation utilizes the basis: def2-TZVPPD
   F. Weigend and R. Ahlrichs, Phys. Chem. Chem. Phys. 7, 3297 (2005).
   D. Rappoport and F. Furche, J. Chem. Phys. 133 134105 (2010).

----- AuxC basis set information -----
Your calculation utilizes the auxiliary basis: def2-TZVPPD/C
   A. Hellweg, C. Hattig, S. Hofener and W. Klopper, Theor. Chem. Acc. 117, 587 (2007).

----- AuxJK basis set information -----
Your calculation utilizes the auxiliary basis: def2/JK
   H-Ba, Hf-Rn: F. Weigend, J. Comput. Chem. 29, 167 (2008).

cite the ECPs for Ag [Def2-ECP] as follows:
Ce-Yb(ecp-28): M. Dolg, H. Stoll, H.Preuss, J. Chem. Phys., 1989, 90, 1730-1734.
Y-Cd(ecp-28), Hf-Hg(ecp-46): D. Andrae,U. Haeussermann, M. Dolg, H. Stoll, H. Preuss, Theor. Chim. Acta, 1990, 77, 123-141.
In-Sb(ecp-28), Tl-Bi(ecp-46): B. Metz, H. Stoll, M. Dolg, J. Chem. Phys., 2000, 113, 2563-2569.
Te-Xe(ecp-28), Po-Rn(ecp-46): K. A. Peterson, D. Figgen, E. Goll, H. Stoll, M. Dolg, J. Chem. Phys., 2003, 119, 11113-11123.
Rb(ecp-28), Cs(ecp-46): T. Leininger, A. Nicklass, W. Kuechle, H. Stoll, M. Dolg, A. Bergner, Chem. Phys. Lett., 1996, 255, 274-280.
Sr(ecp-28), Ba(ecp-46): M. Kaupp, P. V. Schleyer, H. Stoll and H. Preuss, J. Chem. Phys., 1991, 94, 1360-1366.
La(ecp-46): M. Dolg, H. Stoll, A. Savin, H. Preuss, Theor. Chim. Acta, 1989, 75, 173-194.
Lu(ecp-28): X. Cao, M. Dolg, J. Chem. Phys., 2001, 115, 7348-7355.

ECP parameters for Ag [Def2-ECP] have been obtained from:
TURBOMOLE (7.0.2)

================================================================================
                                        WARNINGS
                       Please study these warnings very carefully!
================================================================================


WARNING: The frozen-core approximation for MP2-gradient calculations is turned on by default.

WARNING: Geometry Optimization
  ===> : Switching off AutoStart
         For restart on a previous wavefunction, please use MOREAD

WARNING: The frozen-core approximation is turned on by default for 
         the MP2 part of double-hybrid DFT.

INFO   : the flag for use of LIBINT has been found!

================================================================================
                                       INPUT FILE
================================================================================
NAME = Ag02N0.in
|  1> #
|  2> # Ag02N0 ri-B2PLYP-D3BJ/Def2-TZVPPD
|  3> #
|  4> ! rijk ri-b2plyp d3bj def2-tzvppd def2/jk def2-tzvppd/c grid4 nofinalgrid opt xyzfile numfreq
|  5> 
|  6> *xyz 0 1
|  7> Ag       0.000000    0.000000    1.261821 
|  8> Ag       0.000000    0.000000   -1.261821 
|  9> *
| 10> 
| 11> %maxcore 5000
| 12> 
| 13> %pal
| 14> nprocs = 24
| 15> end
| 16> 
| 17> 
| 18>                          ****END OF INPUT****
================================================================================

                       *****************************
                       * Geometry Optimization Run *
                       *****************************

Geometry optimization settings:
Update method            Update   .... BFGS
Choice of coordinates    CoordSys .... Z-matrix Internals
Initial Hessian          InHess   .... Almoef's Model

Convergence Tolerances:
Energy Change            TolE     ....  5.0000e-06 Eh
Max. Gradient            TolMAXG  ....  3.0000e-04 Eh/bohr
RMS Gradient             TolRMSG  ....  1.0000e-04 Eh/bohr
Max. Displacement        TolMAXD  ....  4.0000e-03 bohr
RMS Displacement         TolRMSD  ....  2.0000e-03 bohr
Strict Convergence                ....  False
------------------------------------------------------------------------------
                        ORCA OPTIMIZATION COORDINATE SETUP
------------------------------------------------------------------------------

The optimization will be done in new redundant internal coordinates
Making redundant internal coordinates   ...  (new redundants) done
Evaluating the initial hessian          ...  (Almloef) done
Evaluating the coordinates              ...  done
Calculating the B-matrix                .... done
Calculating the G-matrix                .... done
Diagonalizing the G-matrix              .... done
The first mode is                       ....    0
The number of degrees of freedom        ....    1

    -----------------------------------------------------------------
                    Redundant Internal Coordinates


    -----------------------------------------------------------------
         Definition                    Initial Value    Approx d2E/dq
    -----------------------------------------------------------------
      1. B(Ag  1,Ag  0)                  2.5236         0.993882   
    -----------------------------------------------------------------

Number of atoms                         .... 2
Number of degrees of freedom            .... 1

         *************************************************************
         *                GEOMETRY OPTIMIZATION CYCLE   1            *
         *************************************************************
---------------------------------
CARTESIAN COORDINATES (ANGSTROEM)
---------------------------------
  Ag     0.000000    0.000000    1.261821
  Ag     0.000000    0.000000   -1.261821

----------------------------
CARTESIAN COORDINATES (A.U.)
----------------------------
  NO LB      ZA    FRAG     MASS         X           Y           Z
   0 Ag   19.0000*   0   107.870    0.000000    0.000000    2.384496
   1 Ag   19.0000*   0   107.870    0.000000    0.000000   -2.384496
* core charge reduced due to ECP

--------------------------------
INTERNAL COORDINATES (ANGSTROEM)
--------------------------------
 Ag     0   0   0     0.000000000000     0.00000000     0.00000000
 Ag     1   0   0     2.523642000000     0.00000000     0.00000000

---------------------------
INTERNAL COORDINATES (A.U.)
---------------------------
 Ag     0   0   0     0.000000000000     0.00000000     0.00000000
 Ag     1   0   0     4.768992240061     0.00000000     0.00000000

---------------------
BASIS SET INFORMATION
---------------------
There are 1 groups of distinct atoms

 Group   1 Type Ag  : 7s7p6d2f1g contracted to 6s4p3d2f1g pattern {211111/4111/411/11/1}

Atom   0Ag   basis set group =>   1
Atom   1Ag   basis set group =>   1
---------------------------------
AUXILIARY/C BASIS SET INFORMATION
---------------------------------
There are 1 groups of distinct atoms

 Group   1 Type Ag  : 8s7p6d5f4g3h1i contracted to 8s7p6d5f4g3h1i pattern {11111111/1111111/111111/11111/1111/111/1}

Atom   0Ag   basis set group =>   1
Atom   1Ag   basis set group =>   1
----------------------------------
AUXILIARY/JK BASIS SET INFORMATION
----------------------------------
There are 1 groups of distinct atoms

 Group   1 Type Ag  : 13s12p10d9f6g3h2i contracted to 11s10p9d8f6g3h2i pattern {31111111111/3111111111/211111111/21111111/111111/111/11}

Atom   0Ag   basis set group =>   1
Atom   1Ag   basis set group =>   1
-------------------------
ECP PARAMETER INFORMATION
-------------------------

 Group 1, Type Ag ECP Def2-ECP (replacing 28 core electrons, lmax=3)

Atom   0Ag   ECP group =>   1
Atom   1Ag   ECP group =>   1



           ************************************************************
           *        Program running with 24 parallel MPI-processes    *
           *              working on a common directory               *
           ************************************************************
------------------------------------------------------------------------------
                           ORCA GTO INTEGRAL CALCULATION
                           -- RI-GTO INTEGRALS CHOSEN --
------------------------------------------------------------------------------

                         BASIS SET STATISTICS AND STARTUP INFO

Gaussian basis set:
 # of primitive gaussian shells          ...   46
 # of primitive gaussian functions       ...  162
 # of contracted shells                  ...   32
 # of contracted basis functions         ...  112
 Highest angular momentum                ...    4
 Maximum contraction depth               ...    4
Auxiliary gaussian basis set:
 # of primitive gaussian shells          ...  110
 # of primitive gaussian functions       ...  550
 # of contracted shells                  ...   98
 # of contracted aux-basis functions     ...  510
 Highest angular momentum                ...    6
 Maximum contraction depth               ...    3
Ratio of auxiliary to basis functions    ...  4.55
Integral package used                  ... LIBINT
 One Electron integrals                  
   ECP integrals                         ... done
 Ordering auxiliary basis shells         ... done
 Integral threshhold             Thresh  ...  2.500e-11
 Primitive cut-off               TCut    ...  2.500e-12
 Pre-screening matrix                    ... done
 Shell pair data                         ... 
 Ordering of the shell pairs             ... done (   0.000 sec) 518 of 528 pairs
 Determination of significant pairs      ... done (   0.000 sec)
 Creation of shell pair data             ... done (   0.000 sec)
 Storage of shell pair data              ... done (   0.002 sec)
 Shell pair data done in (   0.002 sec)
 Computing two index integrals           ... done
 Cholesky decomposition of the V-matrix  ... done


Timings:
 Total evaluation time                   ...   0.349 sec (  0.006 min)
 One electron matrix time                ...   0.121 sec (  0.002 min) = 34.6%
 Schwartz matrix evaluation time         ...   0.115 sec (  0.002 min) = 33.0%
 Two index repulsion integral time       ...   0.069 sec (  0.001 min) = 19.7%
 Cholesky decomposition of V             ...   0.004 sec (  0.000 min) =  1.1%
 Three index repulsion integral time     ...   0.000 sec (  0.000 min) =  0.0%



           ************************************************************
           *        Program running with 24 parallel MPI-processes    *
           *              working on a common directory               *
           ************************************************************
-------------------------------------------------------------------------------
                                 ORCA SCF
-------------------------------------------------------------------------------

------------
SCF SETTINGS
------------
Hamiltonian:
 Density Functional     Method          .... DFT(GTOs)
 Exchange Functional    Exchange        .... B88
   X-Alpha parameter    XAlpha          ....  0.666667
   Becke's b parameter  XBeta           ....  0.004200
 Correlation Functional Correlation     .... LYP
 LDA part of GGA corr.  LDAOpt          .... VWN-3
 Gradients option       PostSCFGGA      .... off
 Hybrid DFT is turned on
   Fraction HF Exchange ScalHFX         ....  0.530000
   Scaling of DF-GGA-X  ScalDFX         ....  0.470000
   Scaling of DF-GGA-C  ScalDFC         ....  0.730000
   Scaling of DF-LDA-C  ScalLDAC        ....  0.730000
   Perturbative correction              ....  0.270000
   Density functional embedding theory  .... OFF
 RI-approximation to the Coulomb term is turned on
   Number of auxiliary basis functions  .... 510
   RI-JK (J+K treated both via RI)      .... on


General Settings:
 Integral files         IntName         .... Ag02N0
 Hartree-Fock type      HFTyp           .... RHF
 Total Charge           Charge          ....    0
 Multiplicity           Mult            ....    1
 Number of Electrons    NEL             ....   38
 Basis Dimension        Dim             ....  112
 Nuclear Repulsion      ENuc            ....     75.6973343273 Eh

Convergence Acceleration:
 DIIS                   CNVDIIS         .... on
   Start iteration      DIISMaxIt       ....    12
   Startup error        DIISStart       ....  0.200000
   # of expansion vecs  DIISMaxEq       ....     5
   Bias factor          DIISBfac        ....   1.050
   Max. coefficient     DIISMaxC        ....  10.000
 Newton-Raphson         CNVNR           .... off
 SOSCF                  CNVSOSCF        .... off
 Level Shifting         CNVShift        .... on
   Level shift para.    LevelShift      ....    0.2500
   Turn off err/grad.   ShiftErr        ....    0.0010
 Zerner damping         CNVZerner       .... off
 Static damping         CNVDamp         .... on
   Fraction old density DampFac         ....    0.7000
   Max. Damping (<1)    DampMax         ....    0.9800
   Min. Damping (>=0)   DampMin         ....    0.0000
   Turn off err/grad.   DampErr         ....    0.1000
 Fernandez-Rico         CNVRico         .... off

SCF Procedure:
 Maximum # iterations   MaxIter         ....   125
 SCF integral mode      SCFMode         .... Direct
   Integral package                     .... LIBINT
 Reset frequency        DirectResetFreq ....    20
 Integral Threshold     Thresh          ....  2.500e-11 Eh
 Primitive CutOff       TCut            ....  2.500e-12 Eh

Convergence Tolerance:
 Convergence Check Mode ConvCheckMode   .... Total+1el-Energy
 Convergence forced     ConvForced      .... 0
 Energy Change          TolE            ....  1.000e-08 Eh
 1-El. energy change                    ....  1.000e-05 Eh
 DIIS Error             TolErr          ....  5.000e-07


Diagonalization of the overlap matrix:
Smallest eigenvalue                        ... 4.183e-03
Time for diagonalization                   ...    0.003 sec
Threshold for overlap eigenvalues          ... 1.000e-08
Number of eigenvalues below threshold      ... 0
Time for construction of square roots      ...    0.002 sec
Total time needed                          ...    0.005 sec

-------------------
DFT GRID GENERATION
-------------------

General Integration Accuracy     IntAcc      ...  4.670
Radial Grid Type                 RadialGrid  ... Gauss-Chebyshev
Angular Grid (max. acc.)         AngularGrid ... Lebedev-302
Angular grid pruning method      GridPruning ... 3 (G Style)
Weight generation scheme         WeightScheme... Becke
Basis function cutoff            BFCut       ...    1.0000e-11
Integration weight cutoff        WCut        ...    1.0000e-14
Grids for H and He will be reduced by one unit

# of grid points (after initial pruning)     ...  21316 (   0.0 sec)
# of grid points (after weights+screening)   ...  21280 (   0.0 sec)
nearest neighbour list constructed           ...    0.0 sec
Grid point re-assignment to atoms done       ...    0.0 sec
Grid point division into batches done        ...    0.2 sec
Reduced shell lists constructed in    0.2 sec

Total number of grid points                  ...    21280
Total number of batches                      ...      334
Average number of points per batch           ...       63
Average number of grid points per atom       ...    10640
Average number of shells per batch           ...     2.60 ( 8.12%)
Average number of basis functions per batch  ...     5.67 ( 5.06%)
Average number of large shells per batch     ...     1.93 (74.36%)
Average number of large basis fcns per batch ...     4.33 (76.47%)
Average number of aux-shells per batch       ...     2.60 ( 2.65%)
Average number of aux functions per batch    ...     5.67 ( 1.11%)
Maximum spatial batch extension              ...  31.14, 31.14, 19.99 au
Average spatial batch extension              ...   0.98,  0.98,  0.74 au

Time for grid setup =    0.282 sec

------------------------------
INITIAL GUESS: MODEL POTENTIAL
------------------------------
Loading Hartree-Fock densities                     ... done
  calling /sw/apps/orca/orca_4_2_0_linux_x86-64_openmpi314/orca Ag02N0_atom47.inp > Ag02N0_atom47.out in order to generate an atomic fitting density for atom 0 (Ag with ECP) on-the-fly... 
    atom 0 (Ag), assumed electronic state with S=2: 1s2 2s2 2p6 3s2 3p6 4s2 3d10 4p6 5s2 4d9           ... done
Calculating cut-offs                               ... done
Setting up the integral package                    ... done
Initializing the effective Hamiltonian             ... done
Starting the Coulomb interaction                   ... done (   0.0 sec)
Reading the grid                                   ... done
Mapping shells                                     ... done
Starting the XC term evaluation                    ... done (   0.0 sec)
  promolecular density results
     # of electrons  =     94.001747121
     EX              =   -288.144529370
     EC              =     -1.800260911
     EX+EC           =   -289.944790281
Transforming the Hamiltonian                       ... done (   0.0 sec)
Diagonalizing the Hamiltonian                      ... done (   0.0 sec)
Back transforming the eigenvectors                 ... done (   0.0 sec)
Now organizing SCF variables                       ... done
                      ------------------
                      INITIAL GUESS DONE (   1.5 sec)
                      ------------------
--------------
SCF ITERATIONS
--------------
ITER       Energy         Delta-E        Max-DP      RMS-DP      [F,P]     Damp
  0   -293.2480441846   0.000000000000 0.11745117  0.00296986  0.4909379 0.7000
  1   -293.0505741814   0.197470003210 0.08071330  0.00238155  0.3384570 0.7000
  2   -293.1454430299  -0.094868848545 0.04749384  0.00133875  0.2200792 0.7000
                               ***Turning on DIIS***
  3   -293.2939015919  -0.148458562004 0.03298685  0.00075035  0.1467547 0.7000
  4   -293.3840361685  -0.090134576631 0.02262605  0.00056301  0.1022874 0.7000
  5   -293.4264751253  -0.042438956796 0.06167067  0.00159693  0.0743429 0.0000
  6   -293.4079460004   0.018529124942 0.00577274  0.00025863  0.0213427 0.0000
  7   -293.4092681692  -0.001322168841 0.00455362  0.00014740  0.0078602 0.0000
  8   -293.4094886238  -0.000220454554 0.00169116  0.00007828  0.0031387 0.0000
  9   -293.4095274185  -0.000038794747 0.00226746  0.00006392  0.0005524 0.0000
 10   -293.4095308586  -0.000003440100 0.00051989  0.00001295  0.0001897 0.0000
 11   -293.4095310472  -0.000000188559 0.00026783  0.00000622  0.0000632 0.0000
 12   -293.4095310785  -0.000000031278 0.00003849  0.00000105  0.0000088 0.0000
 13   -293.4095310801  -0.000000001645 0.00000977  0.00000023  0.0000031 0.0000
                 **** Energy Check signals convergence ****

               *****************************************************
               *                     SUCCESS                       *
               *           SCF CONVERGED AFTER  14 CYCLES          *
               *****************************************************


----------------
TOTAL SCF ENERGY
----------------

Total Energy       :         -293.40953108 Eh           -7984.07924 eV

Components:
Nuclear Repulsion  :           75.69733433 Eh            2059.82919 eV
Electronic Energy  :         -369.10686541 Eh          -10043.90843 eV
One Electron Energy:         -674.36531829 Eh          -18350.41323 eV
Two Electron Energy:          305.25845288 Eh            8306.50480 eV

Virial components:
Potential Energy   :         -406.29365651 Eh          -11055.81246 eV
Kinetic Energy     :          112.88412543 Eh            3071.73322 eV
Virial Ratio       :            3.59920985


DFT components:
N(Alpha)           :       18.999989768280 electrons
N(Beta)            :       18.999989768280 electrons
N(Total)           :       37.999979536560 electrons
E(X)               :      -12.622982086591 Eh       
E(C)               :       -1.049839175157 Eh       
E(XC)              :      -13.672821261748 Eh       
DFET-embed. en.    :        0.000000000000 Eh       

---------------
SCF CONVERGENCE
---------------

  Last Energy change         ...   -1.2443e-10  Tolerance :   1.0000e-08
  Last MAX-Density change    ...    1.8037e-06  Tolerance :   1.0000e-07
  Last RMS-Density change    ...    4.3264e-08  Tolerance :   5.0000e-09
  Last DIIS Error            ...    7.4387e-07  Tolerance :   5.0000e-07

             **** THE GBW FILE WAS UPDATED (Ag02N0.gbw) ****
             **** DENSITY FILE WAS UPDATED (Ag02N0.scfp) ****
             **** ENERGY FILE WAS UPDATED (Ag02N0.en.tmp) ****
             **** THE GBW FILE WAS UPDATED (Ag02N0.gbw) ****
             **** DENSITY FILE WAS UPDATED (Ag02N0.scfp) ****
----------------
ORBITAL ENERGIES
----------------

  NO   OCC          E(Eh)            E(eV) 
   0   2.0000      -3.969916      -108.0269 
   1   2.0000      -3.969157      -108.0062 
   2   2.0000      -2.510092       -68.3031 
   3   2.0000      -2.502996       -68.1100 
   4   2.0000      -2.502996       -68.1100 
   5   2.0000      -2.502289       -68.0907 
   6   2.0000      -2.502289       -68.0907 
   7   2.0000      -2.501857       -68.0790 
   8   2.0000      -0.432445       -11.7674 
   9   2.0000      -0.414462       -11.2781 
  10   2.0000      -0.414462       -11.2781 
  11   2.0000      -0.393264       -10.7013 
  12   2.0000      -0.393262       -10.7012 
  13   2.0000      -0.385213       -10.4822 
  14   2.0000      -0.385211       -10.4821 
  15   2.0000      -0.371595       -10.1116 
  16   2.0000      -0.371595       -10.1116 
  17   2.0000      -0.361995        -9.8504 
  18   2.0000      -0.220123        -5.9898 
  19   0.0000      -0.050451        -1.3728 
  20   0.0000       0.009767         0.2658 
  21   0.0000       0.009767         0.2658 
  22   0.0000       0.031480         0.8566 
  23   0.0000       0.069408         1.8887 
  24   0.0000       0.069408         1.8887 
  25   0.0000       0.118912         3.2358 
  26   0.0000       0.140706         3.8288 
  27   0.0000       0.184282         5.0146 
  28   0.0000       0.229546         6.2463 
  29   0.0000       0.232195         6.3183 
  30   0.0000       0.232195         6.3183 
  31   0.0000       0.295362         8.0372 
  32   0.0000       0.295362         8.0372 
  33   0.0000       0.440292        11.9810 
  34   0.0000       0.440293        11.9810 
  35   0.0000       0.442174        12.0322 
  36   0.0000       0.485856        13.2208 
  37   0.0000       0.485856        13.2208 
  38   0.0000       0.531682        14.4678 
  39   0.0000       0.531683        14.4678 
  40   0.0000       0.647180        17.6107 
  41   0.0000       0.651605        17.7311 
  42   0.0000       0.651605        17.7311 
  43   0.0000       0.787823        21.4377 
  44   0.0000       1.515695        41.2442 
  45   0.0000       1.660695        45.1898 
  46   0.0000       1.660695        45.1898 
  47   0.0000       1.711835        46.5814 
  48   0.0000       1.711837        46.5814 
  49   0.0000       1.728794        47.0429 
  50   0.0000       1.728794        47.0429 
  51   0.0000       1.731307        47.1113 
  52   0.0000       1.731307        47.1113 
  53   0.0000       1.745516        47.4979 
  54   0.0000       1.745517        47.4979 
  55   0.0000       1.748256        47.5725 
  56   0.0000       1.748256        47.5725 
  57   0.0000       1.754644        47.7463 
  58   0.0000       1.754644        47.7463 
  59   0.0000       1.774045        48.2742 
  60   0.0000       1.859610        50.6026 
  61   0.0000       1.872146        50.9437 
  62   0.0000       1.872146        50.9437 
  63   0.0000       1.905393        51.8484 
  64   0.0000       2.096423        57.0466 
  65   0.0000       2.186688        59.5028 
  66   0.0000       2.186700        59.5031 
  67   0.0000       2.203925        59.9718 
  68   0.0000       2.203925        59.9718 
  69   0.0000       2.224738        60.5382 
  70   0.0000       2.224749        60.5385 
  71   0.0000       2.284568        62.1663 
  72   0.0000       2.293913        62.4205 
  73   0.0000       2.293913        62.4205 
  74   0.0000       2.466270        67.1106 
  75   0.0000       2.519030        68.5463 
  76   0.0000       5.032117       136.9309 
  77   0.0000       5.032117       136.9309 
  78   0.0000       5.041387       137.1831 
  79   0.0000       5.072614       138.0328 
  80   0.0000       5.072770       138.0371 
  81   0.0000       5.084889       138.3669 
  82   0.0000       5.084889       138.3669 
  83   0.0000       5.086847       138.4202 
  84   0.0000       5.086847       138.4202 
  85   0.0000       5.099824       138.7733 
  86   0.0000       5.099982       138.7776 
  87   0.0000       5.186187       141.1233 
  88   0.0000       5.186187       141.1233 
  89   0.0000       5.384044       146.5073 
  90   0.0000       5.791487       157.5944 
  91   0.0000       5.791487       157.5944 
  92   0.0000       5.793508       157.6494 
  93   0.0000       5.793518       157.6496 
  94   0.0000       5.793534       157.6501 
  95   0.0000       5.794174       157.6675 
  96   0.0000       5.794192       157.6680 
  97   0.0000       5.795588       157.7060 
  98   0.0000       5.795588       157.7060 
  99   0.0000       5.795639       157.7074 
 100   0.0000       5.795639       157.7074 
 101   0.0000       5.796743       157.7374 
 102   0.0000       5.796743       157.7374 
 103   0.0000       5.797453       157.7567 
 104   0.0000       5.797453       157.7567 
 105   0.0000       5.797824       157.7668 
 106   0.0000       5.797824       157.7668 
 107   0.0000       5.813216       158.1857 
 108   0.0000      33.506806       911.7666 
 109   0.0000      33.751664       918.4295 
 110   0.0000     109.474352      2978.9486 
 111   0.0000     109.551265      2981.0415 

                    ********************************
                    * MULLIKEN POPULATION ANALYSIS *
                    ********************************

-----------------------
MULLIKEN ATOMIC CHARGES
-----------------------
   0 Ag:   -0.000000
   1 Ag:    0.000000
Sum of atomic charges:    0.0000000

--------------------------------
MULLIKEN REDUCED ORBITAL CHARGES
--------------------------------
  0 Ags       :     2.977870  s :     2.977870
      pz      :     2.040359  p :     6.051103
      px      :     2.005372
      py      :     2.005372
      dz2     :     1.981082  d :     9.969560
      dxz     :     1.994291
      dyz     :     1.994291
      dx2y2   :     1.999948
      dxy     :     1.999948
      f0      :     0.000680  f :     0.001448
      f+1     :     0.000333
      f-1     :     0.000333
      f+2     :     0.000051
      f-2     :     0.000051
      f+3     :     0.000000
      f-3     :     0.000000
      g0      :     0.000009  g :     0.000020
      g+1     :     0.000005
      g-1     :     0.000005
      g+2     :     0.000001
      g-2     :     0.000001
      g+3     :     0.000000
      g-3     :     0.000000
      g+4     :     0.000000
      g-4     :     0.000000
  1 Ags       :     2.977869  s :     2.977869
      pz      :     2.040359  p :     6.051103
      px      :     2.005372
      py      :     2.005372
      dz2     :     1.981082  d :     9.969560
      dxz     :     1.994291
      dyz     :     1.994291
      dx2y2   :     1.999948
      dxy     :     1.999948
      f0      :     0.000680  f :     0.001448
      f+1     :     0.000333
      f-1     :     0.000333
      f+2     :     0.000051
      f-2     :     0.000051
      f+3     :     0.000000
      f-3     :     0.000000
      g0      :     0.000009  g :     0.000020
      g+1     :     0.000005
      g-1     :     0.000005
      g+2     :     0.000001
      g-2     :     0.000001
      g+3     :     0.000000
      g-3     :     0.000000
      g+4     :     0.000000
      g-4     :     0.000000


                     *******************************
                     * LOEWDIN POPULATION ANALYSIS *
                     *******************************

----------------------
LOEWDIN ATOMIC CHARGES
----------------------
   0 Ag:   -0.000000
   1 Ag:    0.000000

-------------------------------
LOEWDIN REDUCED ORBITAL CHARGES
-------------------------------
  0 Ags       :     2.908683  s :     2.908683
      pz      :     2.093799  p :     6.108917
      px      :     2.007559
      py      :     2.007559
      dz2     :     1.996539  d :     9.980320
      dxz     :     1.991951
      dyz     :     1.991951
      dx2y2   :     1.999940
      dxy     :     1.999940
      f0      :     0.000966  f :     0.002053
      f+1     :     0.000484
      f-1     :     0.000484
      f+2     :     0.000059
      f-2     :     0.000059
      f+3     :     0.000000
      f-3     :     0.000000
      g0      :     0.000012  g :     0.000026
      g+1     :     0.000006
      g-1     :     0.000006
      g+2     :     0.000001
      g-2     :     0.000001
      g+3     :     0.000000
      g-3     :     0.000000
      g+4     :     0.000000
      g-4     :     0.000000
  1 Ags       :     2.908683  s :     2.908683
      pz      :     2.093799  p :     6.108917
      px      :     2.007559
      py      :     2.007559
      dz2     :     1.996539  d :     9.980320
      dxz     :     1.991951
      dyz     :     1.991951
      dx2y2   :     1.999940
      dxy     :     1.999940
      f0      :     0.000966  f :     0.002053
      f+1     :     0.000484
      f-1     :     0.000484
      f+2     :     0.000059
      f-2     :     0.000059
      f+3     :     0.000000
      f-3     :     0.000000
      g0      :     0.000012  g :     0.000026
      g+1     :     0.000006
      g-1     :     0.000006
      g+2     :     0.000001
      g-2     :     0.000001
      g+3     :     0.000000
      g-3     :     0.000000
      g+4     :     0.000000
      g-4     :     0.000000


                      *****************************
                      * MAYER POPULATION ANALYSIS *
                      *****************************

  NA   - Mulliken gross atomic population
  ZA   - Total nuclear charge
  QA   - Mulliken gross atomic charge
  VA   - Mayer's total valence
  BVA  - Mayer's bonded valence
  FA   - Mayer's free valence

  ATOM       NA         ZA         QA         VA         BVA        FA
  0 Ag    19.0000    19.0000    -0.0000     1.0325     1.0325    -0.0000
  1 Ag    19.0000    19.0000     0.0000     1.0325     1.0325     0.0000

  Mayer bond orders larger than 0.100000
B(  0-Ag,  1-Ag) :   1.0325 

-------
TIMINGS
-------

Total SCF time: 0 days 0 hours 0 min 3 sec 

Total time                  ....       3.887 sec
Sum of individual times     ....       3.762 sec  ( 96.8%)

Fock matrix formation       ....       2.209 sec  ( 56.8%)
  XC integration            ....       0.349 sec  ( 15.8% of F)
    Basis function eval.    ....       0.026 sec  (  7.4% of XC)
    Density eval.           ....       0.015 sec  (  4.2% of XC)
    XC-Functional eval.     ....       0.010 sec  (  2.7% of XC)
    XC-Potential eval.      ....       0.024 sec  (  6.7% of XC)
Diagonalization             ....       0.025 sec  (  0.6%)
Density matrix formation    ....       0.005 sec  (  0.1%)
Population analysis         ....       0.003 sec  (  0.1%)
Initial guess               ....       1.222 sec  ( 31.4%)
Orbital Transformation      ....       0.000 sec  (  0.0%)
Orbital Orthonormalization  ....       0.000 sec  (  0.0%)
DIIS solution               ....       0.015 sec  (  0.4%)
Grid generation             ....       0.282 sec  (  7.3%)


           ************************************************************
           *        Program running with 24 parallel MPI-processes    *
           *              working on a common directory               *
           ************************************************************

------------------------------------------------------------------------------
                                ORCA  MP2 
------------------------------------------------------------------------------

Freezing NCore=0 chemical core electrons

----------------------
RI-MP2 ENERGY+GRADIENT
----------------------
Dimension of the basis                    ...  112
Memory devoted to MP2                     ... 5000 MB   
Data format for buffers                   ... DOUBLE
Compression type for matrix containers    ... UNCOMPRESSED
Overall scaling of the MP2 energy         ...   2.700e-01
Calculating two index integrals           ... done (    0.007 sec)
Cholesky decomposition of the V-matrix    ... done
Cholesky decomposition of V**-1           ... done (    0.005 sec)

-----------------
RI-TRANSFORMATION (AUX index driven)
-----------------

Dimension of the orbital-basis         ... 112
Dimension of the aux-basis             ... 352
Transformation of internal MOs         ...    0-  18
Transformation of internal/external MOs...    0-  18 to   19- 111
Number Format for Storage              ... Double (8 Byte)
Integral mode                          ... Direct

First Phase: integral generation and transformation of MO indices
  Aux angular momentum 0               ... done (    0.000 sec)
  Aux angular momentum 1               ... done (    0.001 sec)
  Aux angular momentum 2               ... done (    0.001 sec)
  Aux angular momentum 3               ... done (    0.002 sec)
  Aux angular momentum 4               ... done (    0.002 sec)
  Aux angular momentum 5               ... done (    0.004 sec)
  Aux angular momentum 6               ... done (    0.005 sec)
Closing buffer VIJ ( 0.00 GB; CompressionRatio= 0.99)
Closing buffer VIA ( 0.00 GB; CompressionRatio= 1.00)
  Phase 1 completed in     0.117 sec
Second Phase: sorting and transformation of aux index

IJ-Transformation
Memory available                       ... 4996 MB 
Max. # MO pairs treated in a batch     ... 1    
# of internal orbitals                 ... 19
# batches for internal orbitals        ... 1
Closing buffer IJV ( 0.00 GB; CompressionRatio= 1.00)
(ij|v) transformation done in     0.001 sec

IA-Transformation
Memory available                       ... 4996 MB 
Max. # MO pairs treated in a batch     ... 1    
# of internal orbitals                 ... 19
# batches for internal orbitals        ... 1
Closing buffer IAV ( 0.00 GB; CompressionRatio= 1.00)
(ia|v) transformation done in     0.003 sec

  Phase 2 completed in     0.031 sec
RI-Integral transformation completed in     0.150 sec
Opening buffers                              ... done

Starting loop over batches of integrals:

Operator 0  - window                       ... (  0- 18)x( 19-111)
Operator 0  - Memory available             ...  5000 MB
Operator 0  - Memory needed per MO         ...   0.5 MB
Operator 0  - Number of orbitals per batch ... 1
Operator 0  - Number of batches            ... 1

OPERATOR  0   PASS   0:  MOs     0 ...    0 +    1 ...    1 +    2 ...    2 +    3 ...    3
                            +    4 ...    4 +    5 ...    5 +    6 ...    6 +    7 ...    7
                            +    8 ...    8 +    9 ...    9 +   10 ...   10 +   11 ...   11
                            +   12 ...   12 +   13 ...   13 +   14 ...   14 +   15 ...   15
                            +   16 ...   16 +   17 ...   17 +   18 ...   18
  Reading integrals       ... ok
Closing buffer GIPV ( 0.00 GB; CompressionRatio= 1.00)
Time spent in pair loops =     0.150 sec

-----------------------------------------------
 RI-MP2 CORRELATION ENERGY:     -0.423107008 Eh
-----------------------------------------------


---------------------
MP2 DENSITY FORMATION
---------------------

Completing the external part of the density      ... done
Storing the unrelaxed density                    ... done

Calculating the xc-kernel                        ... done
Calculating G(D)                                 ... done
Completing the Lagrangian                        ... done
Solving the Z-vector equations                   ... 

------------------------------------------------------------------------------
                           ORCA CP-SCF CALCULATION
------------------------------------------------------------------------------

Input orbitals are from        ... Ag02N0.gbw
Input Perturbation             ... Ag02N0.pin.tmp
Wavefunction output            ... Ag02N0.pout.tmp
Perturbation mode              ... Real perturbation (singlet)
Solver                         ... POPLE
Max. number of iterations      ... 128
Convergence tolerance          ... 1.000e-08
Integral handling              ... Direct
Number of perturbations        ... 1
Number of operators            ... 1
Orbital ranges used for CP-SCF:
 Operator 0:  Orbitals   0... 18  to  19...111
DFT calculation                         ... on
Exchange functional (SCF)               ... B88
Exchange functional (CP-SCF)            ... B88
   X-Alpha parameter    XAlpha (SCF)    ...  0.666667
   X-Alpha parameter    XAlpha (CP-SCF) ...  0.666667
   Becke's b parameter  XBeta (SCF)     ...  0.004200
   Becke's b parameter  XBeta (CP-SCF)  ...  0.004200
Correlation functional (SCF)            ... LYP
Correlation functional (CP-SCF)         ... LYP
 LDA part of GGA corr.  LDAOpt (SCF)    ... VWN-3
 LDA part of GGA corr.  LDAOpt (CP-SCF) ... VWN-3
Hybrid DFT                              ... on
   Exchange mixing (SCF)                ...  0.530
   Exchange mixing (CP-SCF)             ...  0.530
   GGA exch. scaling(SCF)               ...  0.470
   GGA exch. scaling (CP-SCF)           ...  0.470
   GGA corr. scaling (SCF)              ...  0.730
   GGA corr. scaling (CP-SCF)           ...  0.730
Variables per vector in CP-SCF ... 1767
Number of vectors sought       ... 1
Recalculating density on grid  ... done
Calculating the xc-kernel      ... done
     CP-SCF ITERATION   0: 
     CP-SCF ITERATION   1:      0.000142771046
     CP-SCF ITERATION   2:      0.000022192304
     CP-SCF ITERATION   3:      0.000003002917
     CP-SCF ITERATION   4:      0.000000045430
     CP-SCF ITERATION   5:      0.000000001551
done
Finalizing the relaxed density                   ... done
Transforming P to the AO basis                   ... done
Storing the relaxed density                      ... done

------------------------------------
ENERGY WEIGHTED DENSITY FINALIZATION
------------------------------------

Gathering the parts of the W-matrix              ... done
Forming the Z-density                            ... done
Transforming Z to the AO basis                   ... done
Calculating G(Z)                                 ... done
Finalizing the W-matrix                          ... done
Transforming W to the AO basis and storing       ... done
Entering the RIJONX and RIJCOSX sections
Starting the three-index derivative integrals:
Operator 0  - Memory available             ...  5000 MB
Operator 0  - Memory needed per MO         ...   0.6 MB
Operator 0  - Number of orbitals per batch ... 1
Operator 0  - Number of batches            ... 1

OPERATOR  0   PASS   0:  MOs     0 ...    0 +    1 ...    1 +    2 ...    2 +    3 ...    3
                            +    4 ...    4 +    5 ...    5 +    6 ...    6 +    7 ...    7
                            +    8 ...    8 +    9 ...    9 +   10 ...   10 +   11 ...   11
                            +   12 ...   12 +   13 ...   13 +   14 ...   14 +   15 ...   15
                            +   16 ...   16 +   17 ...   17 +   18 ...   18

----------------------------------
MP2 DERIVATIVE INTEGRAL GENERATION
----------------------------------


Input Correlated Electron Density   ... Ag02N0.pmp2re
Input Energy Weighted Density       ... Ag02N0.wmp2.tmp
Input SCF Electron Density          ... Ag02N0.scfp

One-Electron Terms    ...
  ECP gradient                                           ... One-Electron Terms done
Prescreening matrices              ... done
Exchange-correlation gradient    ... done
Dispersion correction            ... done

                *********************************************
                * UNRELAXED MP2 DENSITY POPULATION ANALYSIS *
                *********************************************

------------------------------------------------------------------------------
                           ORCA POPULATION ANALYSIS
------------------------------------------------------------------------------
Input electron density              ... Ag02N0.pmp2ur
BaseName (.gbw .S,...)              ... Ag02N0

                    ********************************
                    * MULLIKEN POPULATION ANALYSIS *
                    ********************************

-----------------------
MULLIKEN ATOMIC CHARGES
-----------------------
   0 Ag:   -0.000000
   1 Ag:    0.000000
Sum of atomic charges:   -0.0000000

--------------------------------
MULLIKEN REDUCED ORBITAL CHARGES
--------------------------------
  0 Ags       :     2.967295  s :     2.967295
      pz      :     2.042453  p :     6.062625
      px      :     2.010086
      py      :     2.010086
      dz2     :     1.972241  d :     9.928534
      dxz     :     1.986147
      dyz     :     1.986147
      dx2y2   :     1.992000
      dxy     :     1.992000
      f0      :     0.006055  f :     0.038945
      f+1     :     0.005709
      f-1     :     0.005709
      f+2     :     0.005403
      f-2     :     0.005403
      f+3     :     0.005334
      f-3     :     0.005334
      g0      :     0.000298  g :     0.002601
      g+1     :     0.000293
      g-1     :     0.000293
      g+2     :     0.000288
      g-2     :     0.000288
      g+3     :     0.000286
      g-3     :     0.000286
      g+4     :     0.000284
      g-4     :     0.000284
  1 Ags       :     2.967295  s :     2.967295
      pz      :     2.042453  p :     6.062625
      px      :     2.010086
      py      :     2.010086
      dz2     :     1.972241  d :     9.928534
      dxz     :     1.986147
      dyz     :     1.986147
      dx2y2   :     1.992000
      dxy     :     1.992000
      f0      :     0.006055  f :     0.038945
      f+1     :     0.005709
      f-1     :     0.005709
      f+2     :     0.005403
      f-2     :     0.005403
      f+3     :     0.005334
      f-3     :     0.005334
      g0      :     0.000298  g :     0.002601
      g+1     :     0.000293
      g-1     :     0.000293
      g+2     :     0.000288
      g-2     :     0.000288
      g+3     :     0.000286
      g-3     :     0.000286
      g+4     :     0.000284
      g-4     :     0.000284


                     *******************************
                     * LOEWDIN POPULATION ANALYSIS *
                     *******************************

----------------------
LOEWDIN ATOMIC CHARGES
----------------------
   0 Ag:   -0.000000
   1 Ag:    0.000000

-------------------------------
LOEWDIN REDUCED ORBITAL CHARGES
-------------------------------
  0 Ags       :     2.896492  s :     2.896492
      pz      :     2.096775  p :     6.121236
      px      :     2.012231
      py      :     2.012231
      dz2     :     1.988339  d :     9.939989
      dxz     :     1.983834
      dyz     :     1.983834
      dx2y2   :     1.991991
      dxy     :     1.991991
      f0      :     0.006434  f :     0.039675
      f+1     :     0.005876
      f-1     :     0.005876
      f+2     :     0.005411
      f-2     :     0.005411
      f+3     :     0.005334
      f-3     :     0.005334
      g0      :     0.000302  g :     0.002608
      g+1     :     0.000295
      g-1     :     0.000295
      g+2     :     0.000288
      g-2     :     0.000288
      g+3     :     0.000286
      g-3     :     0.000286
      g+4     :     0.000284
      g-4     :     0.000284
  1 Ags       :     2.896492  s :     2.896492
      pz      :     2.096775  p :     6.121236
      px      :     2.012231
      py      :     2.012231
      dz2     :     1.988339  d :     9.939989
      dxz     :     1.983834
      dyz     :     1.983834
      dx2y2   :     1.991991
      dxy     :     1.991991
      f0      :     0.006434  f :     0.039675
      f+1     :     0.005876
      f-1     :     0.005876
      f+2     :     0.005411
      f-2     :     0.005411
      f+3     :     0.005334
      f-3     :     0.005334
      g0      :     0.000302  g :     0.002608
      g+1     :     0.000295
      g-1     :     0.000295
      g+2     :     0.000288
      g-2     :     0.000288
      g+3     :     0.000286
      g-3     :     0.000286
      g+4     :     0.000284
      g-4     :     0.000284


                      *****************************
                      * MAYER POPULATION ANALYSIS *
                      *****************************

  NA   - Mulliken gross atomic population
  ZA   - Total nuclear charge
  QA   - Mulliken gross atomic charge
  VA   - Mayer's total valence
  BVA  - Mayer's bonded valence
  FA   - Mayer's free valence

  ATOM       NA         ZA         QA         VA         BVA        FA
  0 Ag    19.0000    19.0000    -0.0000     1.3965     0.9830     0.4136
  1 Ag    19.0000    19.0000     0.0000     1.3965     0.9830     0.4136

  Mayer bond orders larger than 0.100000
B(  0-Ag,  1-Ag) :   0.9830 


                *******************************************
                * RELAXED MP2 DENSITY POPULATION ANALYSIS *
                *******************************************

------------------------------------------------------------------------------
                           ORCA POPULATION ANALYSIS
------------------------------------------------------------------------------
Input electron density              ... Ag02N0.pmp2re
BaseName (.gbw .S,...)              ... Ag02N0

                    ********************************
                    * MULLIKEN POPULATION ANALYSIS *
                    ********************************

-----------------------
MULLIKEN ATOMIC CHARGES
-----------------------
   0 Ag:   -0.000000
   1 Ag:    0.000000
Sum of atomic charges:   -0.0000000

--------------------------------
MULLIKEN REDUCED ORBITAL CHARGES
--------------------------------
  0 Ags       :     2.981808  s :     2.981808
      pz      :     2.033109  p :     6.056314
      px      :     2.011602
      py      :     2.011602
      dz2     :     1.967052  d :     9.920294
      dxz     :     1.984619
      dyz     :     1.984619
      dx2y2   :     1.992001
      dxy     :     1.992001
      f0      :     0.006074  f :     0.038983
      f+1     :     0.005720
      f-1     :     0.005720
      f+2     :     0.005401
      f-2     :     0.005401
      f+3     :     0.005334
      f-3     :     0.005334
      g0      :     0.000298  g :     0.002602
      g+1     :     0.000293
      g-1     :     0.000293
      g+2     :     0.000288
      g-2     :     0.000288
      g+3     :     0.000286
      g-3     :     0.000286
      g+4     :     0.000284
      g-4     :     0.000284
  1 Ags       :     2.981807  s :     2.981807
      pz      :     2.033109  p :     6.056314
      px      :     2.011602
      py      :     2.011602
      dz2     :     1.967052  d :     9.920294
      dxz     :     1.984619
      dyz     :     1.984619
      dx2y2   :     1.992001
      dxy     :     1.992001
      f0      :     0.006074  f :     0.038983
      f+1     :     0.005720
      f-1     :     0.005720
      f+2     :     0.005401
      f-2     :     0.005401
      f+3     :     0.005334
      f-3     :     0.005334
      g0      :     0.000298  g :     0.002602
      g+1     :     0.000293
      g-1     :     0.000293
      g+2     :     0.000288
      g-2     :     0.000288
      g+3     :     0.000286
      g-3     :     0.000286
      g+4     :     0.000284
      g-4     :     0.000284


                     *******************************
                     * LOEWDIN POPULATION ANALYSIS *
                     *******************************

----------------------
LOEWDIN ATOMIC CHARGES
----------------------
   0 Ag:   -0.000000
   1 Ag:    0.000000

-------------------------------
LOEWDIN REDUCED ORBITAL CHARGES
-------------------------------
  0 Ags       :     2.904003  s :     2.904003
      pz      :     2.091022  p :     6.118349
      px      :     2.013663
      py      :     2.013663
      dz2     :     1.986578  d :     9.935339
      dxz     :     1.982388
      dyz     :     1.982388
      dx2y2   :     1.991992
      dxy     :     1.991992
      f0      :     0.006436  f :     0.039701
      f+1     :     0.005889
      f-1     :     0.005889
      f+2     :     0.005410
      f-2     :     0.005410
      f+3     :     0.005334
      f-3     :     0.005334
      g0      :     0.000302  g :     0.002609
      g+1     :     0.000295
      g-1     :     0.000295
      g+2     :     0.000288
      g-2     :     0.000288
      g+3     :     0.000286
      g-3     :     0.000286
      g+4     :     0.000284
      g-4     :     0.000284
  1 Ags       :     2.904003  s :     2.904003
      pz      :     2.091022  p :     6.118349
      px      :     2.013663
      py      :     2.013663
      dz2     :     1.986578  d :     9.935339
      dxz     :     1.982388
      dyz     :     1.982388
      dx2y2   :     1.991992
      dxy     :     1.991992
      f0      :     0.006436  f :     0.039701
      f+1     :     0.005889
      f-1     :     0.005889
      f+2     :     0.005410
      f-2     :     0.005410
      f+3     :     0.005334
      f-3     :     0.005334
      g0      :     0.000302  g :     0.002609
      g+1     :     0.000295
      g-1     :     0.000295
      g+2     :     0.000288
      g-2     :     0.000288
      g+3     :     0.000286
      g-3     :     0.000286
      g+4     :     0.000284
      g-4     :     0.000284


                      *****************************
                      * MAYER POPULATION ANALYSIS *
                      *****************************

  NA   - Mulliken gross atomic population
  ZA   - Total nuclear charge
  QA   - Mulliken gross atomic charge
  VA   - Mayer's total valence
  BVA  - Mayer's bonded valence
  FA   - Mayer's free valence

  ATOM       NA         ZA         QA         VA         BVA        FA
  0 Ag    19.0000    19.0000    -0.0000     1.3980     0.9909     0.4071
  1 Ag    19.0000    19.0000     0.0000     1.3980     0.9909     0.4071

  Mayer bond orders larger than 0.100000
B(  0-Ag,  1-Ag) :   0.9909 


-------
TIMINGS
-------

Total time                :    5.712 sec
Integral trafo            :    0.162 sec (  2.8%)
I/O of integrals          :    0.001 sec (  0.0%)
K(i,j) Operators          :    0.002 sec (  0.0%)
T(i,j) pair energies      :    0.001 sec (  0.0%)
V-calculation             :    0.007 sec (  0.1%)
V**(-1/2)                 :    0.005 sec (  0.1%)
Gamma(ia|P)               :    0.002 sec (  0.0%)
Gamma-Trafo               :    0.001 sec (  0.0%)
D(virtual)                :    0.000 sec (  0.0%)
D(internal)               :    0.001 sec (  0.0%)
W(virtual)                :    0.000 sec (  0.0%)
W(internal)               :    0.004 sec (  0.1%)
L(virtual)                :    0.066 sec (  1.2%)
L(internal)               :    0.000 sec (  0.0%)
G(D)                      :    0.460 sec (  8.1%)
G(Z)                      :    0.423 sec (  7.4%)
Z-Vector Solution         :    2.292 sec ( 40.1%)
Z-Vector Solution         :    2.292 sec ( 40.1%)
3-Index Derivative 
+ Separable RIJ part      :    0.405 sec (  7.1%)
2-Index Derivative 
+ Separable RIJ part      :    0.015 sec (  0.3%)
Separable Gradient (X)    :    1.654 sec ( 29.0%)


---------------------------------------
MP2 TOTAL ENERGY:     -293.832638088 Eh
---------------------------------------

-----------------------------------
NORM OF THE MP2 GRADIENT:  0.007007
-----------------------------------


-------------------------------------------------------------------------------
                          DFT DISPERSION CORRECTION                            
                                                                               
                              DFTD3 V3.1  Rev 1                                
                          USING Becke-Johnson damping                          
-------------------------------------------------------------------------------
The B2PLYP functional is recognized
Active option DFTDOPT                   ...         4   

molecular C6(AA) [au] = 1086.308375 


            DFT-D V3
 parameters
 s6 scaling factor         :     0.6400 
 a1 scaling factor         :     0.3065 
 s8 scaling factor         :     0.9147 
 a2 scaling factor         :     5.0570 
 ad hoc parameters k1-k3   :    16.0000     1.3333    -4.0000 

 Edisp/kcal,au: -1.270784045683  -0.002025123066 
 E6   /kcal   :  -0.413860990 
 E8   /kcal   :  -0.856923056 
 % E8         :  67.432626215 

-------------------------   ----------------
Dispersion correction           -0.002025123
-------------------------   ----------------


-------------------------   --------------------
FINAL SINGLE POINT ENERGY      -293.834663211441
-------------------------   --------------------

------------------------------------------------------------------------------
                         ORCA GEOMETRY RELAXATION STEP
------------------------------------------------------------------------------

Reading the OPT-File                    .... done
Getting information on internals        .... done
Copying old internal coords+grads       .... done
Making the new internal coordinates     .... (new redundants).... done
Validating the new internal coordinates .... (new redundants).... done
Calculating the B-matrix                .... done
Calculating the G,G- and P matrices     .... done
Transforming gradient to internals      .... done
Projecting the internal gradient        .... done
Number of atoms                         ....   2
Number of internal coordinates          ....   1
Current Energy                          ....  -293.834663211 Eh
Current gradient norm                   ....     0.007006742 Eh/bohr
Maximum allowed component of the step   ....  0.300
Current trust radius                    ....  0.300
Evaluating the initial hessian          ....  (Almloef) done
Projecting the Hessian                  .... done
Forming the augmented Hessian           .... done
Diagonalizing the augmented Hessian     .... done
Last element of RFO vector              ....  0.999987576
Lowest eigenvalues of augmented Hessian:
 -0.000024698
Length of the computed step             ....  0.004984891
The final length of the internal step   ....  0.004984891
Converting the step to cartesian space:
 Initial RMS(Int)=    0.0049848912
Transforming coordinates:
 Iter   0:  RMS(Cart)=    0.0014390141 RMS(Int)=    0.0049848912
 Iter   1:  RMS(Cart)=    0.0000000000 RMS(Int)=    0.0000000000
done
Storing new coordinates                 .... done

                                .--------------------.
          ----------------------|Geometry convergence|-------------------------
          Item                value                   Tolerance       Converged
          ---------------------------------------------------------------------
          RMS gradient        0.0049545151            0.0001000000      NO
          MAX gradient        0.0049545151            0.0003000000      NO
          RMS step            0.0049848912            0.0020000000      NO
          MAX step            0.0049848912            0.0040000000      NO
          ........................................................
          Max(Bonds)      0.0026      Max(Angles)    0.00
          Max(Dihed)        0.00      Max(Improp)    0.00
          ---------------------------------------------------------------------

The optimization has not yet converged - more geometry cycles are needed


    ---------------------------------------------------------------------------
                         Redundant Internal Coordinates
                            (Angstroem and degrees)

        Definition                    Value    dE/dq     Step     New-Value
    ----------------------------------------------------------------------------
     1. B(Ag  1,Ag  0)                2.5236 -0.004955  0.0026    2.5263   
    ----------------------------------------------------------------------------

         *************************************************************
         *                GEOMETRY OPTIMIZATION CYCLE   2            *
         *************************************************************
---------------------------------
CARTESIAN COORDINATES (ANGSTROEM)
---------------------------------
  Ag     0.000000    0.000000    1.263140
  Ag     0.000000    0.000000   -1.263140

----------------------------
CARTESIAN COORDINATES (A.U.)
----------------------------
  NO LB      ZA    FRAG     MASS         X           Y           Z
   0 Ag   19.0000*   0   107.870    0.000000    0.000000    2.386989
   1 Ag   19.0000*   0   107.870    0.000000    0.000000   -2.386989
* core charge reduced due to ECP

--------------------------------
INTERNAL COORDINATES (ANGSTROEM)
--------------------------------
 Ag     0   0   0     0.000000000000     0.00000000     0.00000000
 Ag     1   0   0     2.526279890813     0.00000000     0.00000000

---------------------------
INTERNAL COORDINATES (A.U.)
---------------------------
 Ag     0   0   0     0.000000000000     0.00000000     0.00000000
 Ag     1   0   0     4.773977131269     0.00000000     0.00000000



           ************************************************************
           *        Program running with 24 parallel MPI-processes    *
           *              working on a common directory               *
           ************************************************************
 One Electron integrals                  ... done
 Pre-screening matrix                    ... done


           ************************************************************
           *        Program running with 24 parallel MPI-processes    *
           *              working on a common directory               *
           ************************************************************

Diagonalization of the overlap matrix:
Smallest eigenvalue                        ... 4.205e-03
Time for diagonalization                   ...    0.003 sec
Threshold for overlap eigenvalues          ... 1.000e-08
Number of eigenvalues below threshold      ... 0
Time for construction of square roots      ...    0.002 sec
Total time needed                          ...    0.006 sec

-------------------
DFT GRID GENERATION
-------------------

General Integration Accuracy     IntAcc      ...  4.670
Radial Grid Type                 RadialGrid  ... Gauss-Chebyshev
Angular Grid (max. acc.)         AngularGrid ... Lebedev-302
Angular grid pruning method      GridPruning ... 3 (G Style)
Weight generation scheme         WeightScheme... Becke
Basis function cutoff            BFCut       ...    1.0000e-11
Integration weight cutoff        WCut        ...    1.0000e-14
Grids for H and He will be reduced by one unit

# of grid points (after initial pruning)     ...  21316 (   0.0 sec)
# of grid points (after weights+screening)   ...  21280 (   0.0 sec)
nearest neighbour list constructed           ...    0.0 sec
Grid point re-assignment to atoms done       ...    0.0 sec
Grid point division into batches done        ...    0.2 sec
Reduced shell lists constructed in    0.2 sec

Total number of grid points                  ...    21280
Total number of batches                      ...      334
Average number of points per batch           ...       63
Average number of grid points per atom       ...    10640
Average number of shells per batch           ...     2.60 ( 8.12%)
Average number of basis functions per batch  ...     5.67 ( 5.06%)
Average number of large shells per batch     ...     1.93 (74.36%)
Average number of large basis fcns per batch ...     4.33 (76.47%)
Average number of aux-shells per batch       ...     2.60 ( 2.65%)
Average number of aux functions per batch    ...     5.67 ( 1.11%)
Maximum spatial batch extension              ...  31.14, 31.14, 19.99 au
Average spatial batch extension              ...   0.98,  0.98,  0.74 au

Time for grid setup =    0.286 sec

--------------
SCF ITERATIONS
--------------
ITER       Energy         Delta-E        Max-DP      RMS-DP      [F,P]     Damp
  0   -293.4095965341   0.000000000000 0.00005239  0.00000169  0.0021500 0.7000
  1   -293.4096435178  -0.000046983643 0.00006320  0.00000188  0.0015123 0.7000
                               ***Turning on DIIS***
  2   -293.4096367835   0.000006734275 0.00018810  0.00000550  0.0010591 0.0000
  3   -293.4095968119   0.000039971615 0.00003814  0.00000179  0.0000481 0.0000
  4   -293.4095968149  -0.000000002977 0.00001212  0.00000068  0.0000461 0.0000
  5   -293.4095968204  -0.000000005500 0.00000747  0.00000021  0.0000030 0.0000
  6   -293.4095968205  -0.000000000096 0.00000378  0.00000010  0.0000011 0.0000
                            ***DIIS convergence achieved***

               *****************************************************
               *                     SUCCESS                       *
               *           SCF CONVERGED AFTER   7 CYCLES          *
               *****************************************************

Total Energy       :         -293.40959682 Eh           -7984.08103 eV
  Last Energy change         ...   -2.1600e-11  Tolerance :   1.0000e-08
  Last MAX-Density change    ...    1.1902e-06  Tolerance :   1.0000e-07
             **** THE GBW FILE WAS UPDATED (Ag02N0.gbw) ****
             **** DENSITY FILE WAS UPDATED (Ag02N0.scfp) ****
             **** ENERGY FILE WAS UPDATED (Ag02N0.en.tmp) ****
             **** THE GBW FILE WAS UPDATED (Ag02N0.gbw) ****
             **** DENSITY FILE WAS UPDATED (Ag02N0.scfp) ****
Total SCF time: 0 days 0 hours 0 min 1 sec 


           ************************************************************
           *        Program running with 24 parallel MPI-processes    *
           *              working on a common directory               *
           ************************************************************

------------------------------------------------------------------------------
                                ORCA  MP2 
------------------------------------------------------------------------------

Freezing NCore=0 chemical core electrons

----------------------
RI-MP2 ENERGY+GRADIENT
----------------------
Dimension of the basis                    ...  112
Memory devoted to MP2                     ... 5000 MB   
Data format for buffers                   ... DOUBLE
Compression type for matrix containers    ... UNCOMPRESSED
Overall scaling of the MP2 energy         ...   2.700e-01
Calculating two index integrals           ... done (    0.007 sec)
Cholesky decomposition of the V-matrix    ... done
Cholesky decomposition of V**-1           ... done (    0.006 sec)

-----------------
RI-TRANSFORMATION (AUX index driven)
-----------------

Dimension of the orbital-basis         ... 112
Dimension of the aux-basis             ... 352
Transformation of internal MOs         ...    0-  18
Transformation of internal/external MOs...    0-  18 to   19- 111
Number Format for Storage              ... Double (8 Byte)
Integral mode                          ... Direct

First Phase: integral generation and transformation of MO indices
  Aux angular momentum 0               ... done (    0.000 sec)
  Aux angular momentum 1               ... done (    0.001 sec)
  Aux angular momentum 2               ... done (    0.001 sec)
  Aux angular momentum 3               ... done (    0.002 sec)
  Aux angular momentum 4               ... done (    0.002 sec)
  Aux angular momentum 5               ... done (    0.004 sec)
  Aux angular momentum 6               ... done (    0.005 sec)
Closing buffer VIJ ( 0.00 GB; CompressionRatio= 0.99)
Closing buffer VIA ( 0.00 GB; CompressionRatio= 1.00)
  Phase 1 completed in     0.107 sec
Second Phase: sorting and transformation of aux index

IJ-Transformation
Memory available                       ... 4996 MB 
Max. # MO pairs treated in a batch     ... 1    
# of internal orbitals                 ... 19
# batches for internal orbitals        ... 1
Closing buffer IJV ( 0.00 GB; CompressionRatio= 1.00)
(ij|v) transformation done in     0.002 sec

IA-Transformation
Memory available                       ... 4996 MB 
Max. # MO pairs treated in a batch     ... 1    
# of internal orbitals                 ... 19
# batches for internal orbitals        ... 1
Closing buffer IAV ( 0.00 GB; CompressionRatio= 1.00)
(ia|v) transformation done in     0.003 sec

  Phase 2 completed in     0.016 sec
RI-Integral transformation completed in     0.125 sec
Opening buffers                              ... done

Starting loop over batches of integrals:

Operator 0  - window                       ... (  0- 18)x( 19-111)
Operator 0  - Memory available             ...  5000 MB
Operator 0  - Memory needed per MO         ...   0.5 MB
Operator 0  - Number of orbitals per batch ... 1
Operator 0  - Number of batches            ... 1

OPERATOR  0   PASS   0:  MOs     0 ...    0 +    1 ...    1 +    2 ...    2 +    3 ...    3
                            +    4 ...    4 +    5 ...    5 +    6 ...    6 +    7 ...    7
                            +    8 ...    8 +    9 ...    9 +   10 ...   10 +   11 ...   11
                            +   12 ...   12 +   13 ...   13 +   14 ...   14 +   15 ...   15
                            +   16 ...   16 +   17 ...   17 +   18 ...   18
  Reading integrals       ... ok
Closing buffer GIPV ( 0.00 GB; CompressionRatio= 1.00)
Time spent in pair loops =     0.117 sec

-----------------------------------------------
 RI-MP2 CORRELATION ENERGY:     -0.423065160 Eh
-----------------------------------------------


---------------------
MP2 DENSITY FORMATION
---------------------

Completing the external part of the density      ... done
Storing the unrelaxed density                    ... done

Calculating the xc-kernel                        ... done
Calculating G(D)                                 ... done
Completing the Lagrangian                        ... done
Solving the Z-vector equations                   ... 

------------------------------------------------------------------------------
                           ORCA CP-SCF CALCULATION
------------------------------------------------------------------------------

Input orbitals are from        ... Ag02N0.gbw
Input Perturbation             ... Ag02N0.pin.tmp
Wavefunction output            ... Ag02N0.pout.tmp
Perturbation mode              ... Real perturbation (singlet)
Solver                         ... POPLE
Max. number of iterations      ... 128
Convergence tolerance          ... 1.000e-08
Integral handling              ... Direct
Number of perturbations        ... 1
Number of operators            ... 1
Orbital ranges used for CP-SCF:
 Operator 0:  Orbitals   0... 18  to  19...111
DFT calculation                         ... on
Exchange functional (SCF)               ... B88
Exchange functional (CP-SCF)            ... B88
   X-Alpha parameter    XAlpha (SCF)    ...  0.666667
   X-Alpha parameter    XAlpha (CP-SCF) ...  0.666667
   Becke's b parameter  XBeta (SCF)     ...  0.004200
   Becke's b parameter  XBeta (CP-SCF)  ...  0.004200
Correlation functional (SCF)            ... LYP
Correlation functional (CP-SCF)         ... LYP
 LDA part of GGA corr.  LDAOpt (SCF)    ... VWN-3
 LDA part of GGA corr.  LDAOpt (CP-SCF) ... VWN-3
Hybrid DFT                              ... on
   Exchange mixing (SCF)                ...  0.530
   Exchange mixing (CP-SCF)             ...  0.530
   GGA exch. scaling(SCF)               ...  0.470
   GGA exch. scaling (CP-SCF)           ...  0.470
   GGA corr. scaling (SCF)              ...  0.730
   GGA corr. scaling (CP-SCF)           ...  0.730
Variables per vector in CP-SCF ... 1767
Number of vectors sought       ... 1
Recalculating density on grid  ... done
Calculating the xc-kernel      ... done
     CP-SCF ITERATION   0: 
     CP-SCF ITERATION   1:      0.000142547486
     CP-SCF ITERATION   2:      0.000022011644
     CP-SCF ITERATION   3:      0.000002999655
     CP-SCF ITERATION   4:      0.000000045496
     CP-SCF ITERATION   5:      0.000000001558
done
Finalizing the relaxed density                   ... done
Transforming P to the AO basis                   ... done
Storing the relaxed density                      ... done

------------------------------------
ENERGY WEIGHTED DENSITY FINALIZATION
------------------------------------

Gathering the parts of the W-matrix              ... done
Forming the Z-density                            ... done
Transforming Z to the AO basis                   ... done
Calculating G(Z)                                 ... done
Finalizing the W-matrix                          ... done
Transforming W to the AO basis and storing       ... done
Entering the RIJONX and RIJCOSX sections
Starting the three-index derivative integrals:
Operator 0  - Memory available             ...  5000 MB
Operator 0  - Memory needed per MO         ...   0.6 MB
Operator 0  - Number of orbitals per batch ... 1
Operator 0  - Number of batches            ... 1

OPERATOR  0   PASS   0:  MOs     0 ...    0 +    1 ...    1 +    2 ...    2 +    3 ...    3
                            +    4 ...    4 +    5 ...    5 +    6 ...    6 +    7 ...    7
                            +    8 ...    8 +    9 ...    9 +   10 ...   10 +   11 ...   11
                            +   12 ...   12 +   13 ...   13 +   14 ...   14 +   15 ...   15
                            +   16 ...   16 +   17 ...   17 +   18 ...   18

----------------------------------
MP2 DERIVATIVE INTEGRAL GENERATION
----------------------------------


Input Correlated Electron Density   ... Ag02N0.pmp2re
Input Energy Weighted Density       ... Ag02N0.wmp2.tmp
Input SCF Electron Density          ... Ag02N0.scfp

One-Electron Terms    ...
  ECP gradient                                           ... One-Electron Terms done
Prescreening matrices              ... done
Exchange-correlation gradient    ... done
Dispersion correction            ... done

-------
TIMINGS
-------

Total time                :    5.581 sec
Integral trafo            :    0.138 sec (  2.5%)
I/O of integrals          :    0.001 sec (  0.0%)
K(i,j) Operators          :    0.002 sec (  0.0%)
T(i,j) pair energies      :    0.001 sec (  0.0%)
V-calculation             :    0.007 sec (  0.1%)
V**(-1/2)                 :    0.006 sec (  0.1%)
Gamma(ia|P)               :    0.002 sec (  0.0%)
Gamma-Trafo               :    0.001 sec (  0.0%)
D(virtual)                :    0.000 sec (  0.0%)
D(internal)               :    0.001 sec (  0.0%)
W(virtual)                :    0.000 sec (  0.0%)
W(internal)               :    0.004 sec (  0.1%)
L(virtual)                :    0.067 sec (  1.2%)
L(internal)               :    0.000 sec (  0.0%)
G(D)                      :    0.491 sec (  8.8%)
G(Z)                      :    0.425 sec (  7.6%)
Z-Vector Solution         :    2.230 sec ( 40.0%)
Z-Vector Solution         :    2.230 sec ( 40.0%)
3-Index Derivative 
+ Separable RIJ part      :    0.372 sec (  6.7%)
2-Index Derivative 
+ Separable RIJ part      :    0.019 sec (  0.3%)
Separable Gradient (X)    :    1.667 sec ( 29.9%)


---------------------------------------
MP2 TOTAL ENERGY:     -293.832661981 Eh
---------------------------------------

-----------------------------------
NORM OF THE MP2 GRADIENT:  0.006441
-----------------------------------


-------------------------------------------------------------------------------
                          DFT DISPERSION CORRECTION                            
                                                                               
                              DFTD3 V3.1  Rev 1                                
                          USING Becke-Johnson damping                          
-------------------------------------------------------------------------------
-------------------------   ----------------
Dispersion correction           -0.002024852
-------------------------   ----------------


-------------------------   --------------------
FINAL SINGLE POINT ENERGY      -293.834686832542
-------------------------   --------------------

------------------------------------------------------------------------------
                         ORCA GEOMETRY RELAXATION STEP
------------------------------------------------------------------------------

Reading the OPT-File                    .... done
Getting information on internals        .... done
Copying old internal coords+grads       .... done
Making the new internal coordinates     .... (new redundants).... done
Validating the new internal coordinates .... (new redundants).... done
Calculating the B-matrix                .... done
Calculating the G,G- and P matrices     .... done
Transforming gradient to internals      .... done
Projecting the internal gradient        .... done
Number of atoms                         ....   2
Number of internal coordinates          ....   1
Current Energy                          ....  -293.834686833 Eh
Current gradient norm                   ....     0.006441344 Eh/bohr
Maximum allowed component of the step   ....  0.300
Current trust radius                    ....  0.300
Updating the Hessian (BFGS)             .... done
Forming the augmented Hessian           .... done
Diagonalizing the augmented Hessian     .... done
Last element of RFO vector              ....  0.998401565
Lowest eigenvalues of augmented Hessian:
 -0.000257837
Length of the computed step             ....  0.056608757
The final length of the internal step   ....  0.056608757
Converting the step to cartesian space:
 Initial RMS(Int)=    0.0566087572
Transforming coordinates:
 Iter   0:  RMS(Cart)=    0.0163415406 RMS(Int)=    0.0566087572
 Iter   1:  RMS(Cart)=    0.0000000000 RMS(Int)=    0.0000000000
done
Storing new coordinates                 .... done

                                .--------------------.
          ----------------------|Geometry convergence|-------------------------
          Item                value                   Tolerance       Converged
          ---------------------------------------------------------------------
          Energy change      -0.0000236211            0.0000050000      NO
          RMS gradient        0.0045547180            0.0001000000      NO
          MAX gradient        0.0045547180            0.0003000000      NO
          RMS step            0.0566087572            0.0020000000      NO
          MAX step            0.0566087572            0.0040000000      NO
          ........................................................
[...]
      dxz     :     1.985129
      dyz     :     1.985129
      dx2y2   :     1.992017
      dxy     :     1.992017
      f0      :     0.005980  f :     0.038735
      f+1     :     0.005661
      f-1     :     0.005661
      f+2     :     0.005390
      f-2     :     0.005390
      f+3     :     0.005327
      f-3     :     0.005327
      g0      :     0.000297  g :     0.002597
      g+1     :     0.000292
      g-1     :     0.000292
      g+2     :     0.000288
      g-2     :     0.000288
      g+3     :     0.000286
      g-3     :     0.000286
      g+4     :     0.000284
      g-4     :     0.000284


                     *******************************
                     * LOEWDIN POPULATION ANALYSIS *
                     *******************************

----------------------
LOEWDIN ATOMIC CHARGES
----------------------
   0 Ag:   -0.000000
   1 Ag:    0.000000

-------------------------------
LOEWDIN REDUCED ORBITAL CHARGES
-------------------------------
  0 Ags       :     2.905244  s :     2.905244
      pz      :     2.090517  p :     6.116602
      px      :     2.013042
      py      :     2.013042
      dz2     :     1.986076  d :     9.936200
      dxz     :     1.983053
      dyz     :     1.983053
      dx2y2   :     1.992009
      dxy     :     1.992009
      f0      :     0.006295  f :     0.039352
      f+1     :     0.005804
      f-1     :     0.005804
      f+2     :     0.005397
      f-2     :     0.005397
      f+3     :     0.005327
      f-3     :     0.005327
      g0      :     0.000299  g :     0.002602
      g+1     :     0.000293
      g-1     :     0.000293
      g+2     :     0.000288
      g-2     :     0.000288
      g+3     :     0.000286
      g-3     :     0.000286
      g+4     :     0.000284
      g-4     :     0.000284
  1 Ags       :     2.905244  s :     2.905244
      pz      :     2.090517  p :     6.116602
      px      :     2.013042
      py      :     2.013042
      dz2     :     1.986076  d :     9.936200
      dxz     :     1.983053
      dyz     :     1.983053
      dx2y2   :     1.992009
      dxy     :     1.992009
      f0      :     0.006295  f :     0.039352
      f+1     :     0.005804
      f-1     :     0.005804
      f+2     :     0.005397
      f-2     :     0.005397
      f+3     :     0.005327
      f-3     :     0.005327
      g0      :     0.000299  g :     0.002602
      g+1     :     0.000293
      g-1     :     0.000293
      g+2     :     0.000288
      g-2     :     0.000288
      g+3     :     0.000286
      g-3     :     0.000286
      g+4     :     0.000284
      g-4     :     0.000284


                      *****************************
                      * MAYER POPULATION ANALYSIS *
                      *****************************

  NA   - Mulliken gross atomic population
  ZA   - Total nuclear charge
  QA   - Mulliken gross atomic charge
  VA   - Mayer's total valence
  BVA  - Mayer's bonded valence
  FA   - Mayer's free valence

  ATOM       NA         ZA         QA         VA         BVA        FA
  0 Ag    19.0000    19.0000    -0.0000     1.3971     0.9902     0.4068
  1 Ag    19.0000    19.0000     0.0000     1.3971     0.9902     0.4068

  Mayer bond orders larger than 0.100000
B(  0-Ag,  1-Ag) :   0.9902 


-------
TIMINGS
-------

Total time                :    5.725 sec
Integral trafo            :    0.137 sec (  2.4%)
I/O of integrals          :    0.001 sec (  0.0%)
K(i,j) Operators          :    0.002 sec (  0.0%)
T(i,j) pair energies      :    0.001 sec (  0.0%)
V-calculation             :    0.007 sec (  0.1%)
V**(-1/2)                 :    0.005 sec (  0.1%)
Gamma(ia|P)               :    0.002 sec (  0.0%)
Gamma-Trafo               :    0.001 sec (  0.0%)
D(virtual)                :    0.000 sec (  0.0%)
D(internal)               :    0.001 sec (  0.0%)
W(virtual)                :    0.000 sec (  0.0%)
W(internal)               :    0.004 sec (  0.1%)
L(virtual)                :    0.065 sec (  1.1%)
L(internal)               :    0.000 sec (  0.0%)
G(D)                      :    0.564 sec (  9.9%)
G(Z)                      :    0.424 sec (  7.4%)
Z-Vector Solution         :    2.270 sec ( 39.6%)
Z-Vector Solution         :    2.270 sec ( 39.6%)
3-Index Derivative 
+ Separable RIJ part      :    0.368 sec (  6.4%)
2-Index Derivative 
+ Separable RIJ part      :    0.025 sec (  0.4%)
Separable Gradient (X)    :    1.642 sec ( 28.7%)


---------------------------------------
MP2 TOTAL ENERGY:     -293.832799340 Eh
---------------------------------------

-----------------------------------
NORM OF THE MP2 GRADIENT:  0.000000
-----------------------------------


-------------------------------------------------------------------------------
                          DFT DISPERSION CORRECTION                            
                                                                               
                              DFTD3 V3.1  Rev 1                                
                          USING Becke-Johnson damping                          
-------------------------------------------------------------------------------
The B2PLYP functional is recognized
Active option DFTDOPT                   ...         4   

molecular C6(AA) [au] = 1087.156583 


            DFT-D V3
 parameters
 s6 scaling factor         :     0.6400 
 a1 scaling factor         :     0.3065 
 s8 scaling factor         :     0.9147 
 a2 scaling factor         :     5.0570 
 ad hoc parameters k1-k3   :    16.0000     1.3333    -4.0000 

 Edisp/kcal,au: -1.268529527407  -0.002021530263 
 E6   /kcal   :  -0.412592631 
 E8   /kcal   :  -0.855936896 
 % E8         :  67.474731770 

-------------------------   ----------------
Dispersion correction           -0.002021530
-------------------------   ----------------


-------------------------   --------------------
FINAL SINGLE POINT ENERGY      -293.834820869985
-------------------------   --------------------

                                *** OPTIMIZATION RUN DONE ***

                            ***************************************
                            *     ORCA property calculations      *
                            ***************************************

                                    ---------------------
                                    Active property flags
                                    ---------------------
   (+) Dipole Moment


------------------------------------------------------------------------------
                       ORCA ELECTRIC PROPERTIES CALCULATION
------------------------------------------------------------------------------

Dipole Moment Calculation                       ... on
Quadrupole Moment Calculation                   ... off
Polarizability Calculation                      ... off
GBWName                                         ... Ag02N0.gbw
Electron density file                           ... Ag02N0.scfp
The origin for moment calculation is the CENTER OF MASS  = ( 0.000000,  0.000000  0.000000)

-------------
DIPOLE MOMENT
-------------
                                X             Y             Z
Electronic contribution:      0.00000       0.00000       0.00000
Nuclear contribution   :      0.00000       0.00000       0.00000
                        -----------------------------------------
Total Dipole Moment    :      0.00000       0.00000       0.00000
                        -----------------------------------------
Magnitude (a.u.)       :      0.00000
Magnitude (Debye)      :      0.00000



--------------------
Rotational spectrum 
--------------------
 
Rotational constants in cm-1:     0.000000     0.047739     0.047739 
Rotational constants in MHz :     0.000000  1431.177291  1431.177291 

 Dipole components along the rotational axes: 
x,y,z [a.u.] :     0.000000     0.000000     0.000000 
x,y,z [Debye]:     0.000000     0.000000     0.000000 

 

                         *** MP2 UNRELAXED DENSITY ***

------------------------------------------------------------------------------
                       ORCA ELECTRIC PROPERTIES CALCULATION
------------------------------------------------------------------------------

Dipole Moment Calculation                       ... on
Quadrupole Moment Calculation                   ... off
Polarizability Calculation                      ... off
GBWName                                         ... Ag02N0.gbw
Electron density file                           ... Ag02N0.pmp2ur
The origin for moment calculation is the CENTER OF MASS  = ( 0.000000,  0.000000  0.000000)

-------------
DIPOLE MOMENT
-------------
                                X             Y             Z
Electronic contribution:      0.00000       0.00000       0.00000
Nuclear contribution   :      0.00000       0.00000       0.00000
                        -----------------------------------------
Total Dipole Moment    :      0.00000       0.00000       0.00000
                        -----------------------------------------
Magnitude (a.u.)       :      0.00000
Magnitude (Debye)      :      0.00000



--------------------
Rotational spectrum 
--------------------
 
Rotational constants in cm-1:     0.000000     0.047739     0.047739 
Rotational constants in MHz :     0.000000  1431.177291  1431.177291 

 Dipole components along the rotational axes: 
x,y,z [a.u.] :     0.000000     0.000000     0.000000 
x,y,z [Debye]:     0.000000     0.000000     0.000000 

 

                           *** MP2 RELAXED DENSITY ***

------------------------------------------------------------------------------
                       ORCA ELECTRIC PROPERTIES CALCULATION
------------------------------------------------------------------------------

Dipole Moment Calculation                       ... on
Quadrupole Moment Calculation                   ... off
Polarizability Calculation                      ... off
GBWName                                         ... Ag02N0.gbw
Electron density file                           ... Ag02N0.pmp2re
The origin for moment calculation is the CENTER OF MASS  = ( 0.000000,  0.000000  0.000000)

-------------
DIPOLE MOMENT
-------------
                                X             Y             Z
Electronic contribution:      0.00000       0.00000       0.00000
Nuclear contribution   :      0.00000       0.00000       0.00000
                        -----------------------------------------
Total Dipole Moment    :      0.00000       0.00000       0.00000
                        -----------------------------------------
Magnitude (a.u.)       :      0.00000
Magnitude (Debye)      :      0.00000



--------------------
Rotational spectrum 
--------------------
 
Rotational constants in cm-1:     0.000000     0.047739     0.047739 
Rotational constants in MHz :     0.000000  1431.177291  1431.177291 

 Dipole components along the rotational axes: 
x,y,z [a.u.] :     0.000000     0.000000     0.000000 
x,y,z [Debye]:     0.000000     0.000000     0.000000 

 

----------------------------------------------------------------------------
                           ORCA NUMERICAL FREQUENCIES
                              (24-process run)
----------------------------------------------------------------------------

Number of atoms                ... 2
Central differences            ... used
Number of displacements        ... 12
Numerical increment            ... 5.000e-03 bohr
IR-spectrum generation         ... on
Raman-spectrum generation      ... off
Surface Crossing Hessian       ... off

 WARNING: There are more processes than displacements to do
  ====> : Reducing number of processes to   6

The output will be reduced. Please look at the following files:
SCF program output             ... >Ag02N0.lastscf
Integral program output        ... >Ag02N0.lastint
Gradient program output        ... >Ag02N0.lastgrad
Dipole moment program output   ... >Ag02N0.lastmom
AutoCI program output          ... >Ag02N0.lastautoci


         <<< Energy and Gradient at the input geometry >>>

        <<< Energy and Gradient at displaced geometries >>>
             <<<Displacing   1/coordinate 3 (+)>>>
             <<<Displacing   1/coordinate 1 (+)>>>
             <<<Displacing   2/coordinate 1 (+)>>>
             <<<Displacing   1/coordinate 2 (+)>>>
             <<<Displacing   2/coordinate 3 (+)>>>
             <<<Displacing   2/coordinate 2 (+)>>>
             <<<Displacing   2/coordinate 2 (-)>>>
             <<<Displacing   1/coordinate 2 (-)>>>
             <<<Displacing   1/coordinate 1 (-)>>>
             <<<Displacing   2/coordinate 1 (-)>>>
             <<<Displacing   1/coordinate 3 (-)>>>
             <<<Displacing   2/coordinate 3 (-)>>>
Warning: T+R mode no 5 is zero 

-----------------------
VIBRATIONAL FREQUENCIES
-----------------------

Scaling factor for frequencies =  1.000000000 (already applied!)

   0:         0.00 cm**-1
   1:         0.00 cm**-1
   2:         0.00 cm**-1
   3:         0.00 cm**-1
   4:         0.00 cm**-1
   5:       183.87 cm**-1


------------
NORMAL MODES
------------

These modes are the cartesian displacements weighted by the diagonal matrix
M(i,i)=1/sqrt(m[i]) where m[i] is the mass of the displaced atom
Thus, these vectors are normalized but *not* orthogonal

                  0          1          2          3          4          5    
      0       0.000000   0.000000   0.000000   0.000000   0.000000   0.000000
      1       0.000000   0.000000   0.000000   0.000000   0.000000   0.000000
      2       0.000000   0.000000   0.000000   0.000000   0.000000   0.707107
      3       0.000000   0.000000   0.000000   0.000000   0.000000   0.000000
      4       0.000000   0.000000   0.000000   0.000000   0.000000   0.000000
      5       0.000000   0.000000   0.000000   0.000000   0.000000  -0.707107


-----------
IR SPECTRUM  
-----------

 Mode    freq (cm**-1)   T**2         TX         TY         TZ
-------------------------------------------------------------------
   5:       183.87    0.000000  (  0.000007  -0.000002   0.000048)

The first frequency considered to be a vibration is 5
The total number of vibrations considered is 1


--------------------------
THERMOCHEMISTRY AT 298.15K
--------------------------

Temperature         ... 298.15 K
Pressure            ... 1.00 atm
Total Mass          ... 215.74 AMU
The molecule is recognized as being linear

Throughout the following assumptions are being made:
  (1) The electronic state is orbitally nondegenerate
  (2) There are no thermally accessible electronically excited states
  (3) Hindered rotations indicated by low frequency modes are not
      treated as such but are treated as vibrations and this may
      cause some error
  (4) All equations used are the standard statistical mechanics
      equations for an ideal gas
  (5) All vibrations are strictly harmonic

freq.     183.87  E(vib)   ...       0.37 

------------
INNER ENERGY
------------

The inner energy is: U= E(el) + E(ZPE) + E(vib) + E(rot) + E(trans)
    E(el)   - is the total energy from the electronic structure calculation
              = E(kin-el) + E(nuc-el) + E(el-el) + E(nuc-nuc)
    E(ZPE)  - the the zero temperature vibrational energy from the frequency calculation
    E(vib)  - the the finite temperature correction to E(ZPE) due to population
              of excited vibrational states
    E(rot)  - is the rotational thermal energy
    E(trans)- is the translational thermal energy

Summary of contributions to the inner energy U:
Electronic energy                ...   -293.83482088 Eh
Zero point energy                ...      0.00041888 Eh       0.26 kcal/mol
Thermal vibrational correction   ...      0.00058647 Eh       0.37 kcal/mol
Thermal rotational correction    ...      0.00094418 Eh       0.59 kcal/mol
Thermal translational correction ...      0.00141627 Eh       0.89 kcal/mol
-----------------------------------------------------------------------
Total thermal energy                   -293.83145507 Eh


Summary of corrections to the electronic energy:
(perhaps to be used in another calculation)
Total thermal correction                  0.00294692 Eh       1.85 kcal/mol
Non-thermal (ZPE) correction              0.00041888 Eh       0.26 kcal/mol
-----------------------------------------------------------------------
Total correction                          0.00336581 Eh       2.11 kcal/mol


--------
ENTHALPY
--------

The enthalpy is H = U + kB*T
                kB is Boltzmann's constant
Total free energy                 ...   -293.83145507 Eh 
Thermal Enthalpy correction       ...      0.00094421 Eh       0.59 kcal/mol
-----------------------------------------------------------------------
Total Enthalpy                    ...   -293.83051086 Eh


Note: Rotational entropy computed according to Herzberg 
Infrared and Raman Spectra, Chapter V,1, Van Nostrand Reinhold, 1945 
Point Group:  Dinfh, Symmetry Number:   2  
Rotational constants in cm-1:     0.000000     0.047739     0.047739 

Vibrational entropy computed according to the QRRHO of S. Grimme
Chem.Eur.J. 2012 18 9955


-------
ENTROPY
-------

The entropy contributions are T*S = T*(S(el)+S(vib)+S(rot)+S(trans))
     S(el)   - electronic entropy
     S(vib)  - vibrational entropy
     S(rot)  - rotational entropy
     S(trans)- translational entropy
The entropies will be listed as mutliplied by the temperature to get
units of energy

Electronic entropy                ...      0.00000000 Eh      0.00 kcal/mol
Vibrational entropy               ...      0.00108600 Eh      0.68 kcal/mol
Rotational entropy                ...      0.00819801 Eh      5.14 kcal/mol
Translational entropy             ...      0.01996022 Eh     12.53 kcal/mol
-----------------------------------------------------------------------
Final entropy term                ...      0.02924423 Eh     18.35 kcal/mol

In case the symmetry of your molecule has not been determined correctly
or in case you have a reason to use a different symmetry number we print 
out the resulting rotational entropy values for sn=1,12 :
 --------------------------------------------------------
|  sn= 1 | S(rot)=             -inf Eh      -inf kcal/mol|
|  sn= 2 | S(rot)=             -inf Eh      -inf kcal/mol|
|  sn= 3 | S(rot)=             -inf Eh      -inf kcal/mol|
|  sn= 4 | S(rot)=             -inf Eh      -inf kcal/mol|
|  sn= 5 | S(rot)=             -inf Eh      -inf kcal/mol|
|  sn= 6 | S(rot)=             -inf Eh      -inf kcal/mol|
|  sn= 7 | S(rot)=             -inf Eh      -inf kcal/mol|
|  sn= 8 | S(rot)=             -inf Eh      -inf kcal/mol|
|  sn= 9 | S(rot)=             -inf Eh      -inf kcal/mol|
|  sn=10 | S(rot)=             -inf Eh      -inf kcal/mol|
|  sn=11 | S(rot)=             -inf Eh      -inf kcal/mol|
|  sn=12 | S(rot)=             -inf Eh      -inf kcal/mol|
 --------------------------------------------------------


-------------------
GIBBS FREE ENERGY
-------------------

The Gibbs free energy is G = H - T*S

Total enthalpy                    ...   -293.83051086 Eh 
Total entropy correction          ...     -0.02924423 Eh    -18.35 kcal/mol
-----------------------------------------------------------------------
Final Gibbs free energy         ...   -293.85975509 Eh

For completeness - the Gibbs free energy minus the electronic energy
G-E(el)                           ...     -0.02493422 Eh    -15.65 kcal/mol


Total Time for Numerical Frequencies  :        61.331 sec

Timings for individual modules:

Sum of individual times         ...       55.621 sec (=   0.927 min)
GTO integral calculation        ...        4.660 sec (=   0.078 min)   8.4 %
SCF iterations                  ...       13.980 sec (=   0.233 min)  25.1 %
MP2 module                      ...       36.833 sec (=   0.614 min)  66.2 %
Geometry relaxation             ...        0.148 sec (=   0.002 min)   0.3 %
                             ****ORCA TERMINATED NORMALLY****
TOTAL RUN TIME: 0 days 0 hours 1 minutes 49 seconds 740 msec
