
                                 *****************
                                 * O   R   C   A *
                                 *****************

           --- An Ab Initio, DFT and Semiempirical electronic structure package ---

                  #######################################################
                  #                        -***-                        #
                  #          Department of theory and spectroscopy      #
                  #               Directorship: Frank Neese             #
                  #        Max Planck Institute fuer Kohlenforschung    #
                  #                Kaiser Wilhelm Platz 1               #
                  #                 D-45470 Muelheim/Ruhr               #
                  #                      Germany                        #
                  #                                                     #
                  #                  All rights reserved                #
                  #                        -***-                        #
                  #######################################################


                         Program Version 4.2.0 -  RELEASE  -


 With contributions from (in alphabetic order):
   Daniel Aravena         : Magnetic Suceptibility
   Michael Atanasov       : Ab Initio Ligand Field Theory (pilot matlab implementation)
   Alexander A. Auer      : GIAO ZORA, VPT2
   Ute Becker             : Parallelization
   Giovanni Bistoni       : ED, misc. LED, open-shell LED, HFLED
   Martin Brehm           : Molecular dynamics
   Dmytro Bykov           : SCF Hessian
   Vijay G. Chilkuri      : MRCI spin determinant printing, contributions to CSF-ICE
   Dipayan Datta          : RHF DLPNO-CCSD density
   Achintya Kumar Dutta   : EOM-CC, STEOM-CC
   Dmitry Ganyushin       : Spin-Orbit,Spin-Spin,Magnetic field MRCI
   Miquel Garcia          : C-PCM Hessian, Gaussian charge scheme
   Yang Guo               : DLPNO-NEVPT2, CIM, IAO-localization
   Andreas Hansen         : Spin unrestricted coupled pair/coupled cluster methods
   Benjamin Helmich-Paris : CASSCF linear response (MC-RPA)
   Lee Huntington         : MR-EOM, pCC
   Robert Izsak           : Overlap fitted RIJCOSX, COSX-SCS-MP3, EOM
   Christian Kollmar      : KDIIS, OOCD, Brueckner-CCSD(T), CCSD density
   Simone Kossmann        : Meta GGA functionals, TD-DFT gradient, OOMP2, MP2 Hessian
   Martin Krupicka        : AUTO-CI
   Lucas Lang             : DCDCAS
   Dagmar Lenk            : GEPOL surface, SMD
   Dimitrios Liakos       : Extrapolation schemes; Compound Job, initial MDCI parallelization
   Dimitrios Manganas     : Further ROCIS development; embedding schemes
   Dimitrios Pantazis     : SARC Basis sets
   Taras Petrenko         : DFT Hessian,TD-DFT gradient, ASA, ECA, R-Raman, ABS, FL, XAS/XES, NRVS
   Peter Pinski           : DLPNO-MP2, DLPNO-MP2 Gradient
   Christoph Reimann      : Effective Core Potentials
   Marius Retegan         : Local ZFS, SOC
   Christoph Riplinger    : Optimizer, TS searches, QM/MM, DLPNO-CCSD(T), (RO)-DLPNO pert. Triples
   Tobias Risthaus        : Range-separated hybrids, TD-DFT gradient, RPA, STAB
   Michael Roemelt        : Original ROCIS implementation
   Masaaki Saitow         : Open-shell DLPNO-CCSD energy and density
   Barbara Sandhoefer     : DKH picture change effects
   Avijit Sen             : IP-ROCIS
   Kantharuban Sivalingam : CASSCF convergence, NEVPT2, FIC-MRCI
   Bernardo de Souza      : ESD, SOC TD-DFT
   Georgi Stoychev        : AutoAux, RI-MP2 NMR
   Willem Van den Heuvel  : Paramagnetic NMR
   Boris Wezisla          : Elementary symmetry handling
   Frank Wennmohs         : Technical directorship


 We gratefully acknowledge several colleagues who have allowed us to
 interface, adapt or use parts of their codes:
   Stefan Grimme, W. Hujo, H. Kruse,             : VdW corrections, initial TS optimization,
                  C. Bannwarth                     DFT functionals, gCP, sTDA/sTD-DF
   Ed Valeev, F. Pavosevic, A. Kumar             : LibInt (2-el integral package), F12 methods
   Garnet Chan, S. Sharma, J. Yang, R. Olivares  : DMRG
   Ulf Ekstrom                                   : XCFun DFT Library
   Mihaly Kallay                                 : mrcc  (arbitrary order and MRCC methods)
   Andreas Klamt, Michael Diedenhofen            : otool_cosmo (COSMO solvation model)
   Jiri Pittner, Ondrej Demel                    : Mk-CCSD
   Frank Weinhold                                : gennbo (NPA and NBO analysis)
   Christopher J. Cramer and Donald G. Truhlar   : smd solvation model
   Lars Goerigk                                  : TD-DFT with DH, B97 family of functionals
   V. Asgeirsson, H. Jonsson                     : NEB implementation
   FAccTs GmbH                                   : IRC, NEB, NEB-TS, Multilevel, MM, QM/MM, CI optimization
   S Lehtola, MJT Oliveira, MAL Marques          : LibXC Library


 Your calculation uses the libint2 library for the computation of 2-el integrals
 For citations please refer to: http://libint.valeyev.net

 Your ORCA version has been built with support for libXC version: 4.2.3
 For citations please refer to: https://tddft.org/programs/libxc/

 This ORCA versions uses:
   CBLAS   interface :  Fast vector & matrix operations
   LAPACKE interface :  Fast linear algebra routines
   SCALAPACK package :  Parallel linear algebra routines


Your calculation utilizes the atom-pairwise dispersion correction
with the Becke-Johnson damping scheme (D3BJ)
Cite in your paper:
S.Grimme, S.Ehrlich, L.Goerigk, J Comput Chem, (2011), 32, 1456–1465 
S.Grimme, J.Antony, S.Ehrlich and H.Krieg, J.Chem.Phys., 132, (2010), 154104 
   

----- Orbital basis set information -----
Your calculation utilizes the basis: def2-TZVPPD
   F. Weigend and R. Ahlrichs, Phys. Chem. Chem. Phys. 7, 3297 (2005).
   D. Rappoport and F. Furche, J. Chem. Phys. 133 134105 (2010).

----- AuxC basis set information -----
Your calculation utilizes the auxiliary basis: def2-TZVPPD/C
   A. Hellweg, C. Hattig, S. Hofener and W. Klopper, Theor. Chem. Acc. 117, 587 (2007).

----- AuxJK basis set information -----
Your calculation utilizes the auxiliary basis: def2/JK
   H-Ba, Hf-Rn: F. Weigend, J. Comput. Chem. 29, 167 (2008).

cite the ECPs for Ag [Def2-ECP] as follows:
Ce-Yb(ecp-28): M. Dolg, H. Stoll, H.Preuss, J. Chem. Phys., 1989, 90, 1730-1734.
Y-Cd(ecp-28), Hf-Hg(ecp-46): D. Andrae,U. Haeussermann, M. Dolg, H. Stoll, H. Preuss, Theor. Chim. Acta, 1990, 77, 123-141.
In-Sb(ecp-28), Tl-Bi(ecp-46): B. Metz, H. Stoll, M. Dolg, J. Chem. Phys., 2000, 113, 2563-2569.
Te-Xe(ecp-28), Po-Rn(ecp-46): K. A. Peterson, D. Figgen, E. Goll, H. Stoll, M. Dolg, J. Chem. Phys., 2003, 119, 11113-11123.
Rb(ecp-28), Cs(ecp-46): T. Leininger, A. Nicklass, W. Kuechle, H. Stoll, M. Dolg, A. Bergner, Chem. Phys. Lett., 1996, 255, 274-280.
Sr(ecp-28), Ba(ecp-46): M. Kaupp, P. V. Schleyer, H. Stoll and H. Preuss, J. Chem. Phys., 1991, 94, 1360-1366.
La(ecp-46): M. Dolg, H. Stoll, A. Savin, H. Preuss, Theor. Chim. Acta, 1989, 75, 173-194.
Lu(ecp-28): X. Cao, M. Dolg, J. Chem. Phys., 2001, 115, 7348-7355.

ECP parameters for Ag [Def2-ECP] have been obtained from:
TURBOMOLE (7.0.2)

================================================================================
                                        WARNINGS
                       Please study these warnings very carefully!
================================================================================


WARNING: your system is open-shell and RHF/RKS was chosen
  ===> : WILL SWITCH to UHF/UKS


WARNING: The frozen-core approximation for MP2-gradient calculations is turned on by default.

WARNING: Geometry Optimization
  ===> : Switching off AutoStart
         For restart on a previous wavefunction, please use MOREAD

WARNING: The frozen-core approximation is turned on by default for 
         the MP2 part of double-hybrid DFT.

INFO   : the flag for use of LIBINT has been found!

================================================================================
                                       INPUT FILE
================================================================================
NAME = Ag03N0_D3H.in
|  1> #
|  2> # Ag03N0_D3H ri-B2PLYP-D3BJ/Def2-TZVPPD
|  3> #
|  4> ! rijk ri-b2plyp d3bj def2-tzvppd def2/jk def2-tzvppd/c grid4 nofinalgrid opt xyzfile numfreq
|  5> 
|  6> *xyz 0 2
|  7> Ag       0.000000    1.533951   -0.000000 
|  8> Ag       1.328441   -0.766976    0.000000 
|  9> Ag      -1.328441   -0.766976   -0.000000 
| 10> *
| 11> 
| 12> %maxcore 5000
| 13> 
| 14> %pal
| 15> nprocs = 24
| 16> end
| 17> 
| 18> 
| 19>                          ****END OF INPUT****
================================================================================

                       *****************************
                       * Geometry Optimization Run *
                       *****************************

Geometry optimization settings:
Update method            Update   .... BFGS
Choice of coordinates    CoordSys .... Z-matrix Internals
Initial Hessian          InHess   .... Almoef's Model

Convergence Tolerances:
Energy Change            TolE     ....  5.0000e-06 Eh
Max. Gradient            TolMAXG  ....  3.0000e-04 Eh/bohr
RMS Gradient             TolRMSG  ....  1.0000e-04 Eh/bohr
Max. Displacement        TolMAXD  ....  4.0000e-03 bohr
RMS Displacement         TolRMSD  ....  2.0000e-03 bohr
Strict Convergence                ....  False
------------------------------------------------------------------------------
                        ORCA OPTIMIZATION COORDINATE SETUP
------------------------------------------------------------------------------

The optimization will be done in new redundant internal coordinates
Making redundant internal coordinates   ...  (new redundants) done
Evaluating the initial hessian          ...  (Almloef) done
Evaluating the coordinates              ...  done
Calculating the B-matrix                .... done
Calculating the G-matrix                .... done
Diagonalizing the G-matrix              .... done
The first mode is                       ....    3
The number of degrees of freedom        ....    3

    -----------------------------------------------------------------
                    Redundant Internal Coordinates


    -----------------------------------------------------------------
         Definition                    Initial Value    Approx d2E/dq
    -----------------------------------------------------------------
      1. B(Ag  1,Ag  0)                  2.6569         0.609199   
      2. B(Ag  2,Ag  1)                  2.6569         0.609198   
      3. B(Ag  2,Ag  0)                  2.6569         0.609199   
      4. A(Ag  1,Ag  0,Ag  2)           60.0000         0.654643   
      5. A(Ag  0,Ag  1,Ag  2)           60.0000         0.654643   
      6. A(Ag  0,Ag  2,Ag  1)           60.0000         0.654643   
    -----------------------------------------------------------------

Number of atoms                         .... 3
Number of degrees of freedom            .... 6

         *************************************************************
         *                GEOMETRY OPTIMIZATION CYCLE   1            *
         *************************************************************
---------------------------------
CARTESIAN COORDINATES (ANGSTROEM)
---------------------------------
  Ag     0.000000    1.533951   -0.000000
  Ag     1.328441   -0.766976    0.000000
  Ag    -1.328441   -0.766976   -0.000000

----------------------------
CARTESIAN COORDINATES (A.U.)
----------------------------
  NO LB      ZA    FRAG     MASS         X           Y           Z
   0 Ag   19.0000*   0   107.870    0.000000    2.898747   -0.000000
   1 Ag   19.0000*   0   107.870    2.510390   -1.449375    0.000000
   2 Ag   19.0000*   0   107.870   -2.510390   -1.449375   -0.000000
* core charge reduced due to ECP

--------------------------------
INTERNAL COORDINATES (ANGSTROEM)
--------------------------------
 Ag     0   0   0     0.000000000000     0.00000000     0.00000000
 Ag     1   0   0     2.656881734254     0.00000000     0.00000000
 Ag     1   2   0     2.656881734254    60.00000662     0.00000000

---------------------------
INTERNAL COORDINATES (A.U.)
---------------------------
 Ag     0   0   0     0.000000000000     0.00000000     0.00000000
 Ag     1   0   0     5.020778847957     0.00000000     0.00000000
 Ag     1   2   0     5.020778847957    60.00000662     0.00000000

---------------------
BASIS SET INFORMATION
---------------------
There are 1 groups of distinct atoms

 Group   1 Type Ag  : 7s7p6d2f1g contracted to 6s4p3d2f1g pattern {211111/4111/411/11/1}

Atom   0Ag   basis set group =>   1
Atom   1Ag   basis set group =>   1
Atom   2Ag   basis set group =>   1
---------------------------------
AUXILIARY/C BASIS SET INFORMATION
---------------------------------
There are 1 groups of distinct atoms

 Group   1 Type Ag  : 8s7p6d5f4g3h1i contracted to 8s7p6d5f4g3h1i pattern {11111111/1111111/111111/11111/1111/111/1}

Atom   0Ag   basis set group =>   1
Atom   1Ag   basis set group =>   1
Atom   2Ag   basis set group =>   1
----------------------------------
AUXILIARY/JK BASIS SET INFORMATION
----------------------------------
There are 1 groups of distinct atoms

 Group   1 Type Ag  : 13s12p10d9f6g3h2i contracted to 11s10p9d8f6g3h2i pattern {31111111111/3111111111/211111111/21111111/111111/111/11}

Atom   0Ag   basis set group =>   1
Atom   1Ag   basis set group =>   1
Atom   2Ag   basis set group =>   1
-------------------------
ECP PARAMETER INFORMATION
-------------------------

 Group 1, Type Ag ECP Def2-ECP (replacing 28 core electrons, lmax=3)

Atom   0Ag   ECP group =>   1
Atom   1Ag   ECP group =>   1
Atom   2Ag   ECP group =>   1



           ************************************************************
           *        Program running with 24 parallel MPI-processes    *
           *              working on a common directory               *
           ************************************************************
------------------------------------------------------------------------------
                           ORCA GTO INTEGRAL CALCULATION
                           -- RI-GTO INTEGRALS CHOSEN --
------------------------------------------------------------------------------

                         BASIS SET STATISTICS AND STARTUP INFO

Gaussian basis set:
 # of primitive gaussian shells          ...   69
 # of primitive gaussian functions       ...  243
 # of contracted shells                  ...   48
 # of contracted basis functions         ...  168
 Highest angular momentum                ...    4
 Maximum contraction depth               ...    4
Auxiliary gaussian basis set:
 # of primitive gaussian shells          ...  165
 # of primitive gaussian functions       ...  825
 # of contracted shells                  ...  147
 # of contracted aux-basis functions     ...  765
 Highest angular momentum                ...    6
 Maximum contraction depth               ...    3
Ratio of auxiliary to basis functions    ...  4.55
Integral package used                  ... LIBINT
 One Electron integrals                  
   ECP integrals                         ... done
 Ordering auxiliary basis shells         ... done
 Integral threshhold             Thresh  ...  2.500e-11
 Primitive cut-off               TCut    ...  2.500e-12
 Pre-screening matrix                    ... done
 Shell pair data                         ... 
 Ordering of the shell pairs             ... done (   0.000 sec) 1134 of 1176 pairs
 Determination of significant pairs      ... done (   0.000 sec)
 Creation of shell pair data             ... done (   0.000 sec)
 Storage of shell pair data              ... done (   0.004 sec)
 Shell pair data done in (   0.005 sec)
 Computing two index integrals           ... done
 Cholesky decomposition of the V-matrix  ... done


Timings:
 Total evaluation time                   ...   0.735 sec (  0.012 min)
 One electron matrix time                ...   0.325 sec (  0.005 min) = 44.2%
 Schwartz matrix evaluation time         ...   0.144 sec (  0.002 min) = 19.6%
 Two index repulsion integral time       ...   0.149 sec (  0.002 min) = 20.3%
 Cholesky decomposition of V             ...   0.079 sec (  0.001 min) = 10.7%
 Three index repulsion integral time     ...   0.000 sec (  0.000 min) =  0.0%



           ************************************************************
           *        Program running with 24 parallel MPI-processes    *
           *              working on a common directory               *
           ************************************************************
-------------------------------------------------------------------------------
                                 ORCA SCF
-------------------------------------------------------------------------------

------------
SCF SETTINGS
------------
Hamiltonian:
 Density Functional     Method          .... DFT(GTOs)
 Exchange Functional    Exchange        .... B88
   X-Alpha parameter    XAlpha          ....  0.666667
   Becke's b parameter  XBeta           ....  0.004200
 Correlation Functional Correlation     .... LYP
 LDA part of GGA corr.  LDAOpt          .... VWN-3
 Gradients option       PostSCFGGA      .... off
 Hybrid DFT is turned on
   Fraction HF Exchange ScalHFX         ....  0.530000
   Scaling of DF-GGA-X  ScalDFX         ....  0.470000
   Scaling of DF-GGA-C  ScalDFC         ....  0.730000
   Scaling of DF-LDA-C  ScalLDAC        ....  0.730000
   Perturbative correction              ....  0.270000
   Density functional embedding theory  .... OFF
 RI-approximation to the Coulomb term is turned on
   Number of auxiliary basis functions  .... 765
   RI-JK (J+K treated both via RI)      .... on


General Settings:
 Integral files         IntName         .... Ag03N0_D3H
 Hartree-Fock type      HFTyp           .... UHF
 Total Charge           Charge          ....    0
 Multiplicity           Mult            ....    2
 Number of Electrons    NEL             ....   57
 Basis Dimension        Dim             ....  168
 Nuclear Repulsion      ENuc            ....    215.7035784065 Eh

Convergence Acceleration:
 DIIS                   CNVDIIS         .... on
   Start iteration      DIISMaxIt       ....    12
   Startup error        DIISStart       ....  0.200000
   # of expansion vecs  DIISMaxEq       ....     5
   Bias factor          DIISBfac        ....   1.050
   Max. coefficient     DIISMaxC        ....  10.000
 Newton-Raphson         CNVNR           .... off
 SOSCF                  CNVSOSCF        .... off
 Level Shifting         CNVShift        .... on
   Level shift para.    LevelShift      ....    0.2500
   Turn off err/grad.   ShiftErr        ....    0.0010
 Zerner damping         CNVZerner       .... off
 Static damping         CNVDamp         .... on
   Fraction old density DampFac         ....    0.7000
   Max. Damping (<1)    DampMax         ....    0.9800
   Min. Damping (>=0)   DampMin         ....    0.0000
   Turn off err/grad.   DampErr         ....    0.1000
 Fernandez-Rico         CNVRico         .... off

SCF Procedure:
 Maximum # iterations   MaxIter         ....   125
 SCF integral mode      SCFMode         .... Direct
   Integral package                     .... LIBINT
 Reset frequency        DirectResetFreq ....    20
 Integral Threshold     Thresh          ....  2.500e-11 Eh
 Primitive CutOff       TCut            ....  2.500e-12 Eh

Convergence Tolerance:
 Convergence Check Mode ConvCheckMode   .... Total+1el-Energy
 Convergence forced     ConvForced      .... 0
 Energy Change          TolE            ....  1.000e-08 Eh
 1-El. energy change                    ....  1.000e-05 Eh
 DIIS Error             TolErr          ....  5.000e-07


Diagonalization of the overlap matrix:
Smallest eigenvalue                        ... 2.935e-03
Time for diagonalization                   ...    0.019 sec
Threshold for overlap eigenvalues          ... 1.000e-08
Number of eigenvalues below threshold      ... 0
Time for construction of square roots      ...    0.003 sec
Total time needed                          ...    0.023 sec

-------------------
DFT GRID GENERATION
-------------------

General Integration Accuracy     IntAcc      ...  4.670
Radial Grid Type                 RadialGrid  ... Gauss-Chebyshev
Angular Grid (max. acc.)         AngularGrid ... Lebedev-302
Angular grid pruning method      GridPruning ... 3 (G Style)
Weight generation scheme         WeightScheme... Becke
Basis function cutoff            BFCut       ...    1.0000e-11
Integration weight cutoff        WCut        ...    1.0000e-14
Grids for H and He will be reduced by one unit

# of grid points (after initial pruning)     ...  31974 (   0.0 sec)
# of grid points (after weights+screening)   ...  31838 (   0.0 sec)
nearest neighbour list constructed           ...    0.0 sec
Grid point re-assignment to atoms done       ...    0.0 sec
Grid point division into batches done        ...    0.3 sec
Reduced shell lists constructed in    0.3 sec

Total number of grid points                  ...    31838
Total number of batches                      ...      500
Average number of points per batch           ...       63
Average number of grid points per atom       ...    10613
Average number of shells per batch           ...     5.09 (10.61%)
Average number of basis functions per batch  ...    11.27 ( 6.71%)
Average number of large shells per batch     ...     3.32 (65.18%)
Average number of large basis fcns per batch ...     6.68 (59.27%)
Average number of aux-shells per batch       ...     5.09 ( 3.46%)
Average number of aux functions per batch    ...    11.27 ( 1.47%)
Maximum spatial batch extension              ...  27.02, 24.03, 31.14 au
Average spatial batch extension              ...   0.75,  0.64,  0.72 au

Time for grid setup =    0.368 sec

------------------------------
INITIAL GUESS: MODEL POTENTIAL
------------------------------
Loading Hartree-Fock densities                     ... done
  calling /sw/apps/orca/orca_4_2_0_linux_x86-64_openmpi314/orca Ag03N0_D3H_atom47.inp > Ag03N0_D3H_atom47.out in order to generate an atomic fitting density for atom 0 (Ag with ECP) on-the-fly... 
    atom 0 (Ag), assumed electronic state with S=2: 1s2 2s2 2p6 3s2 3p6 4s2 3d10 4p6 5s2 4d9           ... done
Calculating cut-offs                               ... done
Setting up the integral package                    ... done
Initializing the effective Hamiltonian             ... done
Starting the Coulomb interaction                   ... done (   0.0 sec)
Reading the grid                                   ... done
Mapping shells                                     ... done
Starting the XC term evaluation                    ... done (   0.0 sec)
  promolecular density results
     # of electrons  =    141.001725785
     EX              =   -432.256111637
     EC              =     -2.708915000
     EX+EC           =   -434.965026637
Transforming the Hamiltonian                       ... done (   0.0 sec)
Diagonalizing the Hamiltonian                      ... done (   0.0 sec)
Back transforming the eigenvectors                 ... done (   0.0 sec)
Now organizing SCF variables                       ... done
                      ------------------
                      INITIAL GUESS DONE (   1.9 sec)
                      ------------------
--------------
SCF ITERATIONS
--------------
ITER       Energy         Delta-E        Max-DP      RMS-DP      [F,P]     Damp
  0   -439.8777449791   0.000000000000 0.09271006  0.00127910  0.4919144 0.7000
  1   -439.5972992807   0.280445698409 0.09690130  0.00106394  0.3406147 0.7000
  2   -439.7311408295  -0.133841548790 0.07034374  0.00061778  0.2227617 0.7000
                               ***Turning on DIIS***
  3   -439.9415626133  -0.210421783818 0.04427021  0.00034522  0.1489174 0.7000
  4   -440.0696036248  -0.128041011555 0.02597858  0.00024554  0.1035819 0.7000
  5   -440.1301128517  -0.060509226804 0.06757823  0.00069801  0.0749982 0.0000
  6   -440.1014887821   0.028624069551 0.00853959  0.00011759  0.0219245 0.0000
  7   -440.1033699637  -0.001881181593 0.00279420  0.00006141  0.0072460 0.0000
  8   -440.1036154102  -0.000245446532 0.00140818  0.00003419  0.0029733 0.0000
  9   -440.1036650126  -0.000049602385 0.00177569  0.00003252  0.0008764 0.0000
 10   -440.1036720564  -0.000007043815 0.00057177  0.00000763  0.0003048 0.0000
 11   -440.1036727669  -0.000000710511 0.00017632  0.00000444  0.0002299 0.0000
 12   -440.1036731004  -0.000000333414 0.00009766  0.00000173  0.0000289 0.0000
 13   -440.1036731599  -0.000000059579 0.00007809  0.00000092  0.0000142 0.0000
 14   -440.1036731758  -0.000000015890 0.00004863  0.00000051  0.0000068 0.0000
 15   -440.1036731798  -0.000000003981 0.00002692  0.00000027  0.0000038 0.0000
 16   -440.1036731807  -0.000000000870 0.00000767  0.00000009  0.0000023 0.0000
 17   -440.1036731808  -0.000000000150 0.00000426  0.00000004  0.0000010 0.0000
                 **** Energy Check signals convergence ****

               *****************************************************
               *                     SUCCESS                       *
               *           SCF CONVERGED AFTER  18 CYCLES          *
               *****************************************************


----------------
TOTAL SCF ENERGY
----------------

Total Energy       :         -440.10367318 Eh          -11975.82979 eV

Components:
Nuclear Repulsion  :          215.70357841 Eh            5869.59277 eV
Electronic Energy  :         -655.80725159 Eh          -17845.42256 eV
One Electron Energy:        -1215.11990760 Eh          -33065.09368 eV
Two Electron Energy:          559.31265601 Eh           15219.67112 eV

Virial components:
Potential Energy   :         -609.41024224 Eh          -16582.89575 eV
Kinetic Energy     :          169.30656906 Eh            4607.06596 eV
Virial Ratio       :            3.59944830


DFT components:
N(Alpha)           :       28.999984635629 electrons
N(Beta)            :       27.999984157003 electrons
N(Total)           :       56.999968792631 electrons
E(X)               :      -18.934424029270 Eh       
E(C)               :       -1.577491294639 Eh       
E(XC)              :      -20.511915323909 Eh       
DFET-embed. en.    :        0.000000000000 Eh       

---------------
SCF CONVERGENCE
---------------

  Last Energy change         ...   -3.0468e-11  Tolerance :   1.0000e-08
  Last MAX-Density change    ...    1.5402e-06  Tolerance :   1.0000e-07
  Last RMS-Density change    ...    3.5148e-08  Tolerance :   5.0000e-09
  Last DIIS Error            ...    5.4630e-07  Tolerance :   5.0000e-07

             **** THE GBW FILE WAS UPDATED (Ag03N0_D3H.gbw) ****
             **** DENSITY FILE WAS UPDATED (Ag03N0_D3H.scfp) ****
             **** ENERGY FILE WAS UPDATED (Ag03N0_D3H.en.tmp) ****
----------------------
UHF SPIN CONTAMINATION
----------------------

Warning: in a DFT calculation there is little theoretical justification to 
         calculate <S**2> as in Hartree-Fock theory. We will do it anyways
         but you should keep in mind that the values have only limited relevance

Expectation value of <S**2>     :     0.764281
Ideal value S*(S+1) for S=0.5   :     0.750000
Deviation                       :     0.014281

             **** THE GBW FILE WAS UPDATED (Ag03N0_D3H.gbw) ****
             **** DENSITY FILE WAS UPDATED (Ag03N0_D3H.scfp) ****
----------------
ORBITAL ENERGIES
----------------
                 SPIN UP ORBITALS
  NO   OCC          E(Eh)            E(eV) 
   0   1.0000      -3.990418      -108.5848 
   1   1.0000      -3.990024      -108.5741 
   2   1.0000      -3.968553      -107.9898 
   3   1.0000      -2.528758       -68.8110 
   4   1.0000      -2.524511       -68.6954 
   5   1.0000      -2.524486       -68.6948 
   6   1.0000      -2.523447       -68.6665 
   7   1.0000      -2.523171       -68.6590 
   8   1.0000      -2.523033       -68.6552 
   9   1.0000      -2.502232       -68.0892 
  10   1.0000      -2.501780       -68.0769 
  11   1.0000      -2.499686       -68.0199 
  12   1.0000      -0.455078       -12.3833 
  13   1.0000      -0.442141       -12.0313 
  14   1.0000      -0.434595       -11.8259 
  15   1.0000      -0.432997       -11.7825 
  16   1.0000      -0.420043       -11.4300 
  17   1.0000      -0.419120       -11.4048 
  18   1.0000      -0.413557       -11.2535 
  19   1.0000      -0.400206       -10.8902 
  20   1.0000      -0.396359       -10.7855 
  21   1.0000      -0.392015       -10.6673 
  22   1.0000      -0.383904       -10.4466 
  23   1.0000      -0.382421       -10.4062 
  24   1.0000      -0.378962       -10.3121 
  25   1.0000      -0.376948       -10.2573 
  26   1.0000      -0.363506        -9.8915 
  27   1.0000      -0.273759        -7.4494 
  28   1.0000      -0.153505        -4.1771 
  29   0.0000      -0.070177        -1.9096 
  30   0.0000      -0.010811        -0.2942 
  31   0.0000       0.008311         0.2261 
  32   0.0000       0.025430         0.6920 
  33   0.0000       0.026416         0.7188 
  34   0.0000       0.060289         1.6405 
  35   0.0000       0.060479         1.6457 
  36   0.0000       0.105375         2.8674 
  37   0.0000       0.107404         2.9226 
  38   0.0000       0.110536         3.0078 
  39   0.0000       0.145644         3.9632 
  40   0.0000       0.192678         5.2430 
  41   0.0000       0.194789         5.3005 
  42   0.0000       0.201476         5.4824 
  43   0.0000       0.208747         5.6803 
  44   0.0000       0.226916         6.1747 
  45   0.0000       0.228708         6.2235 
  46   0.0000       0.275914         7.5080 
  47   0.0000       0.280821         7.6415 
  48   0.0000       0.354581         9.6486 
  49   0.0000       0.421536        11.4706 
  50   0.0000       0.421958        11.4821 
  51   0.0000       0.424722        11.5573 
  52   0.0000       0.450619        12.2620 
  53   0.0000       0.456950        12.4342 
  54   0.0000       0.468617        12.7517 
  55   0.0000       0.553733        15.0678 
  56   0.0000       0.557340        15.1660 
  57   0.0000       0.593424        16.1479 
  58   0.0000       0.619827        16.8663 
  59   0.0000       0.647281        17.6134 
  60   0.0000       0.654890        17.8205 
  61   0.0000       0.663791        18.0627 
  62   0.0000       0.664586        18.0843 
  63   0.0000       0.745377        20.2827 
  64   0.0000       0.750239        20.4150 
  65   0.0000       0.793474        21.5915 
  66   0.0000       1.593781        43.3690 
  67   0.0000       1.597494        43.4700 
  68   0.0000       1.632936        44.4344 
  69   0.0000       1.644165        44.7400 
  70   0.0000       1.666690        45.3529 
  71   0.0000       1.677414        45.6448 
  72   0.0000       1.678515        45.6747 
  73   0.0000       1.697135        46.1814 
  74   0.0000       1.702525        46.3281 
  75   0.0000       1.702665        46.3319 
  76   0.0000       1.714593        46.6564 
  77   0.0000       1.718259        46.7562 
  78   0.0000       1.723323        46.8940 
  79   0.0000       1.727925        47.0192 
  80   0.0000       1.733495        47.1708 
  81   0.0000       1.745331        47.4929 
  82   0.0000       1.746948        47.5369 
  83   0.0000       1.749127        47.5962 
  84   0.0000       1.753928        47.7268 
  85   0.0000       1.766484        48.0685 
  86   0.0000       1.775330        48.3092 
  87   0.0000       1.809223        49.2315 
  88   0.0000       1.825983        49.6875 
  89   0.0000       1.832561        49.8665 
  90   0.0000       1.851835        50.3910 
  91   0.0000       1.852170        50.4001 
  92   0.0000       1.859648        50.6036 
  93   0.0000       1.888210        51.3808 
  94   0.0000       1.888892        51.3994 
  95   0.0000       2.040631        55.5284 
  96   0.0000       2.103802        57.2474 
  97   0.0000       2.188283        59.5462 
  98   0.0000       2.193651        59.6923 
  99   0.0000       2.202597        59.9357 
 100   0.0000       2.227043        60.6009 
 101   0.0000       2.232765        60.7566 
 102   0.0000       2.234910        60.8150 
 103   0.0000       2.247892        61.1683 
 104   0.0000       2.259403        61.4815 
 105   0.0000       2.260089        61.5001 
 106   0.0000       2.269669        61.7608 
 107   0.0000       2.283072        62.1255 
 108   0.0000       2.371014        64.5186 
 109   0.0000       2.378836        64.7314 
 110   0.0000       2.406690        65.4894 
 111   0.0000       2.521076        68.6020 
 112   0.0000       2.697848        73.4122 
 113   0.0000       2.705280        73.6144 
 114   0.0000       5.013486       136.4239 
 115   0.0000       5.025569       136.7527 
 116   0.0000       5.030253       136.8802 
 117   0.0000       5.033548       136.9698 
 118   0.0000       5.044341       137.2635 
 119   0.0000       5.044786       137.2756 
 120   0.0000       5.050874       137.4413 
 121   0.0000       5.061149       137.7209 
 122   0.0000       5.063443       137.7833 
 123   0.0000       5.068197       137.9127 
 124   0.0000       5.070073       137.9637 
 125   0.0000       5.088478       138.4645 
 126   0.0000       5.088631       138.4687 
 127   0.0000       5.122320       139.3854 
 128   0.0000       5.139755       139.8599 
 129   0.0000       5.145683       140.0212 
 130   0.0000       5.151113       140.1689 
 131   0.0000       5.152331       140.2020 
 132   0.0000       5.296268       144.1188 
 133   0.0000       5.301845       144.2705 
 134   0.0000       5.319318       144.7460 
 135   0.0000       5.772289       157.0720 
 136   0.0000       5.772446       157.0763 
 137   0.0000       5.772748       157.0845 
 138   0.0000       5.773234       157.0977 
 139   0.0000       5.773420       157.1028 
 140   0.0000       5.773660       157.1093 
 141   0.0000       5.774453       157.1309 
 142   0.0000       5.774470       157.1313 
 143   0.0000       5.775191       157.1509 
 144   0.0000       5.775417       157.1571 
 145   0.0000       5.775798       157.1674 
 146   0.0000       5.776395       157.1837 
 147   0.0000       5.776717       157.1925 
 148   0.0000       5.776784       157.1943 
 149   0.0000       5.776818       157.1952 
 150   0.0000       5.776854       157.1962 
 151   0.0000       5.780681       157.3003 
 152   0.0000       5.782078       157.3383 
 153   0.0000       5.796825       157.7396 
 154   0.0000       5.797495       157.7579 
 155   0.0000       5.798523       157.7858 
 156   0.0000       5.799783       157.8201 
 157   0.0000       5.799816       157.8210 
 158   0.0000       5.800112       157.8291 
 159   0.0000       5.800282       157.8337 
 160   0.0000       5.803782       157.9289 
 161   0.0000       5.804715       157.9543 
 162   0.0000      33.531872       912.4486 
 163   0.0000      33.859856       921.3735 
 164   0.0000      33.874124       921.7618 
 165   0.0000     109.472265      2978.8918 
 166   0.0000     109.569601      2981.5404 
 167   0.0000     109.588635      2982.0584 

                 SPIN DOWN ORBITALS
  NO   OCC          E(Eh)            E(eV) 
   0   1.0000      -3.989960      -108.5723 
   1   1.0000      -3.989567      -108.5616 
   2   1.0000      -3.966812      -107.9424 
   3   1.0000      -2.528558       -68.8056 
   4   1.0000      -2.524543       -68.6963 
   5   1.0000      -2.523967       -68.6806 
   6   1.0000      -2.523433       -68.6661 
   7   1.0000      -2.523034       -68.6553 
   8   1.0000      -2.522449       -68.6393 
   9   1.0000      -2.502032       -68.0837 
  10   1.0000      -2.501006       -68.0558 
  11   1.0000      -2.499186       -68.0063 
  12   1.0000      -0.454260       -12.3610 
  13   1.0000      -0.440207       -11.9786 
  14   1.0000      -0.434157       -11.8140 
  15   1.0000      -0.430407       -11.7120 
  16   1.0000      -0.418242       -11.3810 
  17   1.0000      -0.417988       -11.3740 
  18   1.0000      -0.412488       -11.2244 
  19   1.0000      -0.399699       -10.8764 
  20   1.0000      -0.396307       -10.7841 
  21   1.0000      -0.391764       -10.6604 
  22   1.0000      -0.381366       -10.3775 
  23   1.0000      -0.380115       -10.3434 
  24   1.0000      -0.376001       -10.2315 
  25   1.0000      -0.373404       -10.1608 
  26   1.0000      -0.359635        -9.7862 
  27   1.0000      -0.257930        -7.0186 
  28   0.0000      -0.063510        -1.7282 
  29   0.0000      -0.041986        -1.1425 
  30   0.0000      -0.006065        -0.1650 
  31   0.0000       0.017264         0.4698 
  32   0.0000       0.040681         1.1070 
  33   0.0000       0.041593         1.1318 
  34   0.0000       0.060419         1.6441 
  35   0.0000       0.071258         1.9390 
  36   0.0000       0.105732         2.8771 
  37   0.0000       0.114425         3.1137 
  38   0.0000       0.115874         3.1531 
  39   0.0000       0.146933         3.9982 
  40   0.0000       0.192694         5.2435 
  41   0.0000       0.199393         5.4258 
  42   0.0000       0.210216         5.7203 
  43   0.0000       0.210293         5.7224 
  44   0.0000       0.237073         6.4511 
  45   0.0000       0.237449         6.4613 
  46   0.0000       0.277371         7.5477 
  47   0.0000       0.291951         7.9444 
  48   0.0000       0.363857         9.9010 
  49   0.0000       0.425773        11.5859 
  50   0.0000       0.427759        11.6399 
  51   0.0000       0.436302        11.8724 
  52   0.0000       0.455296        12.3892 
  53   0.0000       0.462806        12.5936 
  54   0.0000       0.473875        12.8948 
  55   0.0000       0.559063        15.2129 
  56   0.0000       0.565575        15.3901 
  57   0.0000       0.599401        16.3105 
  58   0.0000       0.622175        16.9302 
  59   0.0000       0.649956        17.6862 
  60   0.0000       0.662584        18.0298 
  61   0.0000       0.670217        18.2375 
  62   0.0000       0.671517        18.2729 
  63   0.0000       0.747441        20.3389 
  64   0.0000       0.756447        20.5840 
  65   0.0000       0.800433        21.7809 
  66   0.0000       1.595193        43.4074 
  67   0.0000       1.600332        43.5473 
  68   0.0000       1.636117        44.5210 
  69   0.0000       1.646658        44.8078 
  70   0.0000       1.667310        45.3698 
  71   0.0000       1.680198        45.7205 
  72   0.0000       1.680988        45.7420 
  73   0.0000       1.698800        46.2267 
  74   0.0000       1.703515        46.3550 
  75   0.0000       1.704461        46.3807 
  76   0.0000       1.715390        46.6781 
  77   0.0000       1.719348        46.7858 
  78   0.0000       1.724803        46.9343 
  79   0.0000       1.730672        47.0940 
  80   0.0000       1.737062        47.2679 
  81   0.0000       1.749447        47.6049 
  82   0.0000       1.749668        47.6109 
  83   0.0000       1.754269        47.7361 
  84   0.0000       1.755607        47.7725 
  85   0.0000       1.772105        48.2214 
  86   0.0000       1.777265        48.3618 
  87   0.0000       1.814051        49.3628 
  88   0.0000       1.827295        49.7232 
  89   0.0000       1.835582        49.9487 
  90   0.0000       1.853067        50.4245 
  91   0.0000       1.857495        50.5450 
  92   0.0000       1.861965        50.6666 
  93   0.0000       1.891202        51.4622 
  94   0.0000       1.893322        51.5199 
  95   0.0000       2.042128        55.5691 
  96   0.0000       2.106880        57.3311 
  97   0.0000       2.190813        59.6150 
  98   0.0000       2.195460        59.7415 
  99   0.0000       2.205353        60.0107 
 100   0.0000       2.228919        60.6520 
 101   0.0000       2.234118        60.7934 
 102   0.0000       2.238767        60.9199 
 103   0.0000       2.250872        61.2493 
 104   0.0000       2.262892        61.5764 
 105   0.0000       2.264029        61.6074 
 106   0.0000       2.271283        61.8047 
 107   0.0000       2.287502        62.2461 
 108   0.0000       2.372197        64.5508 
 109   0.0000       2.381813        64.8124 
 110   0.0000       2.409664        65.5703 
 111   0.0000       2.521558        68.6151 
 112   0.0000       2.698224        73.4224 
 113   0.0000       2.708363        73.6983 
 114   0.0000       5.014059       136.4395 
 115   0.0000       5.026302       136.7726 
 116   0.0000       5.030957       136.8993 
 117   0.0000       5.033921       136.9800 
 118   0.0000       5.044930       137.2795 
 119   0.0000       5.045533       137.2959 
 120   0.0000       5.051674       137.4630 
 121   0.0000       5.061813       137.7389 
 122   0.0000       5.064166       137.8030 
 123   0.0000       5.068936       137.9328 
 124   0.0000       5.070649       137.9794 
 125   0.0000       5.090052       138.5074 
 126   0.0000       5.090336       138.5151 
 127   0.0000       5.123101       139.4067 
 128   0.0000       5.140544       139.8813 
 129   0.0000       5.146462       140.0424 
 130   0.0000       5.152045       140.1943 
 131   0.0000       5.153587       140.2362 
 132   0.0000       5.296736       144.1315 
 133   0.0000       5.302865       144.2983 
 134   0.0000       5.320474       144.7774 
 135   0.0000       5.772264       157.0713 
 136   0.0000       5.772678       157.0826 
 137   0.0000       5.772980       157.0908 
 138   0.0000       5.773080       157.0935 
 139   0.0000       5.773617       157.1081 
 140   0.0000       5.773666       157.1094 
 141   0.0000       5.774592       157.1346 
 142   0.0000       5.774681       157.1371 
 143   0.0000       5.775266       157.1530 
 144   0.0000       5.775364       157.1556 
 145   0.0000       5.775879       157.1697 
 146   0.0000       5.776314       157.1815 
 147   0.0000       5.776738       157.1930 
 148   0.0000       5.776943       157.1986 
 149   0.0000       5.777105       157.2030 
 150   0.0000       5.777211       157.2059 
 151   0.0000       5.780707       157.3010 
 152   0.0000       5.782514       157.3502 
 153   0.0000       5.797858       157.7677 
 154   0.0000       5.798160       157.7760 
 155   0.0000       5.799281       157.8065 
 156   0.0000       5.799981       157.8255 
 157   0.0000       5.800429       157.8377 
 158   0.0000       5.800513       157.8400 
 159   0.0000       5.800603       157.8424 
 160   0.0000       5.804422       157.9463 
 161   0.0000       5.805598       157.9784 
 162   0.0000      33.532323       912.4609 
 163   0.0000      33.860085       921.3798 
 164   0.0000      33.874837       921.7812 
 165   0.0000     109.470086      2978.8325 
 166   0.0000     109.568911      2981.5216 
 167   0.0000     109.583352      2981.9146 

                    ********************************
                    * MULLIKEN POPULATION ANALYSIS *
                    ********************************

--------------------------------------------
MULLIKEN ATOMIC CHARGES AND SPIN POPULATIONS
--------------------------------------------
   0 Ag:   -0.131640    0.590388
   1 Ag:    0.065820    0.204805
   2 Ag:    0.065820    0.204807
Sum of atomic charges         :   -0.0000000
Sum of atomic spin populations:    1.0000000

-----------------------------------------------------
MULLIKEN REDUCED ORBITAL CHARGES AND SPIN POPULATIONS
-----------------------------------------------------
CHARGE
  0 Ags       :     3.038670  s :     3.038670
      pz      :     2.007081  p :     6.165791
      px      :     2.005835
      py      :     2.152875
      dz2     :     1.990574  d :     9.925717
      dxz     :     1.996504
      dyz     :     1.992020
      dx2y2   :     1.987893
      dxy     :     1.958726
      f0      :     0.000119  f :     0.001444
      f+1     :     0.000090
      f-1     :     0.000253
      f+2     :     0.000065
      f-2     :     0.000154
      f+3     :     0.000473
      f-3     :     0.000291
      g0      :     0.000002  g :     0.000019
      g+1     :     0.000001
      g-1     :     0.000002
      g+2     :     0.000001
      g-2     :     0.000003
      g+3     :     0.000002
      g-3     :     0.000000
      g+4     :     0.000004
      g-4     :     0.000005
  1 Ags       :     2.774343  s :     2.774343
      pz      :     2.008692  p :     6.206296
      px      :     2.047366
      py      :     2.150238
      dz2     :     1.993083  d :     9.951863
      dxz     :     1.995516
      dyz     :     1.997402
      dx2y2   :     1.979066
      dxy     :     1.986796
      f0      :     0.000136  f :     0.001658
      f+1     :     0.000235
      f-1     :     0.000147
      f+2     :     0.000156
      f-2     :     0.000119
      f+3     :     0.000536
      f-3     :     0.000329
      g0      :     0.000002  g :     0.000019
      g+1     :     0.000002
      g-1     :     0.000001
      g+2     :     0.000002
      g-2     :     0.000002
      g+3     :     0.000002
      g-3     :     0.000000
      g+4     :     0.000005
      g-4     :     0.000004
  2 Ags       :     2.774344  s :     2.774344
      pz      :     2.008692  p :     6.206296
      px      :     2.047366
      py      :     2.150238
      dz2     :     1.993083  d :     9.951863
      dxz     :     1.995516
      dyz     :     1.997402
      dx2y2   :     1.979065
      dxy     :     1.986796
      f0      :     0.000136  f :     0.001658
      f+1     :     0.000235
      f-1     :     0.000147
      f+2     :     0.000156
      f-2     :     0.000119
      f+3     :     0.000536
      f-3     :     0.000329
      g0      :     0.000002  g :     0.000019
      g+1     :     0.000002
      g-1     :     0.000001
      g+2     :     0.000002
      g-2     :     0.000002
      g+3     :     0.000002
      g-3     :     0.000000
      g+4     :     0.000005
      g-4     :     0.000004

SPIN
  0 Ags       :     0.514703  s :     0.514703
      pz      :     0.000219  p :     0.068046
      px      :     0.000583
      py      :     0.067244
      dz2     :     0.000863  d :     0.007667
      dxz     :     0.000226
      dyz     :     0.000490
      dx2y2   :     0.001662
      dxy     :     0.004425
      f0      :    -0.000002  f :    -0.000028
      f+1     :    -0.000002
      f-1     :    -0.000004
      f+2     :    -0.000001
      f-2     :    -0.000003
      f+3     :    -0.000013
      f-3     :    -0.000002
      g0      :     0.000000  g :     0.000000
      g+1     :     0.000000
      g-1     :     0.000000
      g+2     :     0.000000
      g-2     :     0.000000
      g+3     :    -0.000000
      g-3     :     0.000000
      g+4     :    -0.000000
      g-4     :    -0.000000
  1 Ags       :     0.084564  s :     0.084564
      pz      :    -0.000041  p :     0.118784
      px      :     0.001106
      py      :     0.117719
      dz2     :     0.000392  d :     0.001453
      dxz     :    -0.000126
      dyz     :    -0.000293
      dx2y2   :     0.000047
      dxy     :     0.001432
      f0      :    -0.000001  f :     0.000005
      f+1     :    -0.000001
      f-1     :     0.000003
      f+2     :    -0.000001
      f-2     :    -0.000002
      f+3     :     0.000012
      f-3     :    -0.000004
      g0      :     0.000000  g :    -0.000000
      g+1     :     0.000000
      g-1     :     0.000000
      g+2     :    -0.000000
      g-2     :     0.000000
      g+3     :    -0.000000
      g-3     :    -0.000000
      g+4     :    -0.000000
      g-4     :    -0.000000
  2 Ags       :     0.084566  s :     0.084566
      pz      :    -0.000041  p :     0.118783
      px      :     0.001106
      py      :     0.117718
      dz2     :     0.000392  d :     0.001453
      dxz     :    -0.000126
      dyz     :    -0.000293
      dx2y2   :     0.000047
      dxy     :     0.001432
      f0      :    -0.000001  f :     0.000005
      f+1     :    -0.000001
      f-1     :     0.000003
      f+2     :    -0.000001
      f-2     :    -0.000002
      f+3     :     0.000012
      f-3     :    -0.000004
      g0      :     0.000000  g :    -0.000000
      g+1     :     0.000000
      g-1     :     0.000000
      g+2     :    -0.000000
      g-2     :     0.000000
      g+3     :    -0.000000
      g-3     :    -0.000000
      g+4     :    -0.000000
      g-4     :    -0.000000


                     *******************************
                     * LOEWDIN POPULATION ANALYSIS *
                     *******************************

-------------------------------------------
LOEWDIN ATOMIC CHARGES AND SPIN POPULATIONS
-------------------------------------------
   0 Ag:   -0.085126    0.470446
   1 Ag:    0.042563    0.264776
   2 Ag:    0.042562    0.264777

----------------------------------------------------
LOEWDIN REDUCED ORBITAL CHARGES AND SPIN POPULATIONS
----------------------------------------------------
CHARGE
  0 Ags       :     2.790609  s :     2.790609
      pz      :     2.009843  p :     6.342051
      px      :     2.017621
      py      :     2.314587
      dz2     :     2.000892  d :     9.950306
      dxz     :     1.996007
      dyz     :     1.989713
      dx2y2   :     1.991867
      dxy     :     1.971828
      f0      :     0.000162  f :     0.002133
      f+1     :     0.000138
      f-1     :     0.000364
      f+2     :     0.000082
      f-2     :     0.000227
      f+3     :     0.000779
      f-3     :     0.000380
      g0      :     0.000002  g :     0.000025
      g+1     :     0.000001
      g-1     :     0.000002
      g+2     :     0.000001
      g-2     :     0.000003
      g+3     :     0.000003
      g-3     :     0.000000
      g+4     :     0.000005
      g-4     :     0.000007
  1 Ags       :     2.629574  s :     2.629574
      pz      :     2.011470  p :     6.351548
      px      :     2.097982
      py      :     2.242096
      dz2     :     2.000055  d :     9.973846
      dxz     :     1.993697
      dyz     :     1.996241
      dx2y2   :     1.989897
      dxy     :     1.993956
      f0      :     0.000186  f :     0.002443
      f+1     :     0.000299
      f-1     :     0.000214
      f+2     :     0.000221
      f-2     :     0.000158
      f+3     :     0.000931
      f-3     :     0.000433
      g0      :     0.000002  g :     0.000026
      g+1     :     0.000002
      g-1     :     0.000001
      g+2     :     0.000003
      g-2     :     0.000002
      g+3     :     0.000003
      g-3     :     0.000000
      g+4     :     0.000007
      g-4     :     0.000006
  2 Ags       :     2.629575  s :     2.629575
      pz      :     2.011470  p :     6.351548
      px      :     2.097982
      py      :     2.242096
      dz2     :     2.000055  d :     9.973846
      dxz     :     1.993697
      dyz     :     1.996241
      dx2y2   :     1.989897
      dxy     :     1.993956
      f0      :     0.000186  f :     0.002443
      f+1     :     0.000299
      f-1     :     0.000214
      f+2     :     0.000221
      f-2     :     0.000158
      f+3     :     0.000931
      f-3     :     0.000433
      g0      :     0.000002  g :     0.000026
      g+1     :     0.000002
      g-1     :     0.000001
      g+2     :     0.000003
      g-2     :     0.000002
      g+3     :     0.000003
      g-3     :     0.000000
      g+4     :     0.000007
      g-4     :     0.000006

SPIN
  0 Ags       :     0.311293  s :     0.311293
      pz      :     0.000276  p :     0.150359
      px      :     0.000108
      py      :     0.149975
      dz2     :     0.001834  d :     0.008773
      dxz     :    -0.000051
      dyz     :     0.000321
      dx2y2   :     0.003687
      dxy     :     0.002983
      f0      :    -0.000001  f :     0.000021
      f+1     :    -0.000001
      f-1     :     0.000034
      f+2     :     0.000000
      f-2     :    -0.000002
      f+3     :    -0.000006
      f-3     :    -0.000003
      g0      :     0.000000  g :     0.000000
      g+1     :     0.000000
      g-1     :     0.000000
      g+2     :     0.000000
      g-2     :     0.000000
      g+3     :    -0.000000
      g-3     :     0.000000
      g+4     :     0.000000
      g-4     :     0.000000
  1 Ags       :     0.059471  s :     0.059471
      pz      :     0.000035  p :     0.195791
      px      :     0.002419
      py      :     0.193337
      dz2     :     0.001263  d :     0.009399
      dxz     :    -0.000151
      dyz     :    -0.000155
      dx2y2   :     0.003678
      dxy     :     0.004763
      f0      :     0.000000  f :     0.000116
      f+1     :     0.000001
      f-1     :     0.000028
      f+2     :     0.000000
      f-2     :    -0.000000
      f+3     :     0.000086
      f-3     :     0.000000
      g0      :     0.000000  g :     0.000001
      g+1     :     0.000000
      g-1     :     0.000000
      g+2     :     0.000000
      g-2     :     0.000000
      g+3     :     0.000000
      g-3     :     0.000000
      g+4     :     0.000000
      g-4     :     0.000000
  2 Ags       :     0.059472  s :     0.059472
      pz      :     0.000035  p :     0.195790
      px      :     0.002418
      py      :     0.193337
      dz2     :     0.001263  d :     0.009399
      dxz     :    -0.000151
      dyz     :    -0.000155
      dx2y2   :     0.003678
      dxy     :     0.004763
      f0      :     0.000000  f :     0.000116
      f+1     :     0.000001
      f-1     :     0.000028
      f+2     :     0.000000
      f-2     :    -0.000000
      f+3     :     0.000086
      f-3     :     0.000000
      g0      :     0.000000  g :     0.000001
      g+1     :     0.000000
      g-1     :     0.000000
      g+2     :     0.000000
      g-2     :     0.000000
      g+3     :     0.000000
      g-3     :     0.000000
      g+4     :     0.000000
      g-4     :     0.000000


                      *****************************
                      * MAYER POPULATION ANALYSIS *
                      *****************************

  NA   - Mulliken gross atomic population
  ZA   - Total nuclear charge
  QA   - Mulliken gross atomic charge
  VA   - Mayer's total valence
  BVA  - Mayer's bonded valence
  FA   - Mayer's free valence

  ATOM       NA         ZA         QA         VA         BVA        FA
  0 Ag    19.1316    19.0000    -0.1316     1.3688     0.9833     0.3855
  1 Ag    18.9342    19.0000     0.0658     1.3116     1.2345     0.0771
  2 Ag    18.9342    19.0000     0.0658     1.3116     1.2345     0.0771

  Mayer bond orders larger than 0.100000
B(  0-Ag,  1-Ag) :   0.4917 B(  0-Ag,  2-Ag) :   0.4917 B(  1-Ag,  2-Ag) :   0.7428 


-------
TIMINGS
-------

Total SCF time: 0 days 0 hours 0 min 8 sec 

Total time                  ....       8.789 sec
Sum of individual times     ....       8.613 sec  ( 98.0%)

Fock matrix formation       ....       6.481 sec  ( 73.7%)
  XC integration            ....       0.800 sec  ( 12.3% of F)
    Basis function eval.    ....       0.080 sec  ( 10.0% of XC)
    Density eval.           ....       0.086 sec  ( 10.8% of XC)
    XC-Functional eval.     ....       0.025 sec  (  3.1% of XC)
    XC-Potential eval.      ....       0.158 sec  ( 19.7% of XC)
Diagonalization             ....       0.135 sec  (  1.5%)
Density matrix formation    ....       0.023 sec  (  0.3%)
Population analysis         ....       0.012 sec  (  0.1%)
Initial guess               ....       1.547 sec  ( 17.6%)
Orbital Transformation      ....       0.000 sec  (  0.0%)
Orbital Orthonormalization  ....       0.000 sec  (  0.0%)
DIIS solution               ....       0.047 sec  (  0.5%)
Grid generation             ....       0.368 sec  (  4.2%)


           ************************************************************
           *        Program running with 24 parallel MPI-processes    *
           *              working on a common directory               *
           ************************************************************

------------------------------------------------------------------------------
                                ORCA  MP2 
------------------------------------------------------------------------------

Freezing NCore=0 chemical core electrons

----------------------
RI-MP2 ENERGY+GRADIENT
----------------------
Dimension of the basis                    ...  168
Memory devoted to MP2                     ... 5000 MB   
Data format for buffers                   ... DOUBLE
Compression type for matrix containers    ... UNCOMPRESSED
Overall scaling of the MP2 energy         ...   2.700e-01
Calculating two index integrals           ... done (    0.012 sec)
Cholesky decomposition of the V-matrix    ... done
Cholesky decomposition of V**-1           ... done (    0.014 sec)

-----------------
RI-TRANSFORMATION (AUX index driven)
-----------------

Dimension of the orbital-basis         ... 168
Dimension of the aux-basis             ... 528
Transformation of internal MOs         ...    0-  28
Transformation of internal/external MOs...    0-  28 to   29- 167
Number Format for Storage              ... Double (8 Byte)
Integral mode                          ... Direct

First Phase: integral generation and transformation of MO indices
  Aux angular momentum 0               ... done (    0.001 sec)
  Aux angular momentum 1               ... done (    0.001 sec)
  Aux angular momentum 2               ... done (    0.002 sec)
  Aux angular momentum 3               ... done (    0.003 sec)
  Aux angular momentum 4               ... done (    0.005 sec)
  Aux angular momentum 5               ... done (    0.007 sec)
  Aux angular momentum 6               ... done (    0.011 sec)
Closing buffer VIJ ( 0.00 GB; CompressionRatio= 1.00)
Closing buffer VIA ( 0.02 GB; CompressionRatio= 1.00)
  Phase 1 completed in     0.128 sec
Second Phase: sorting and transformation of aux index

IJ-Transformation
Memory available                       ... 4991 MB 
Max. # MO pairs treated in a batch     ... 2    
# of internal orbitals                 ... 29
# batches for internal orbitals        ... 1
Closing buffer IJV ( 0.00 GB; CompressionRatio= 1.00)
(ij|v) transformation done in     0.003 sec

IA-Transformation
Memory available                       ... 4991 MB 
Max. # MO pairs treated in a batch     ... 2    
# of internal orbitals                 ... 29
# batches for internal orbitals        ... 1
Closing buffer IAV ( 0.00 GB; CompressionRatio= 1.00)
(ia|v) transformation done in     0.010 sec

  Phase 2 completed in     0.036 sec
RI-Integral transformation completed in     0.166 sec

-----------------
RI-TRANSFORMATION (AUX index driven)
-----------------

Dimension of the orbital-basis         ... 168
Dimension of the aux-basis             ... 528
Transformation of internal MOs         ...    0-  27
Transformation of internal/external MOs...    0-  27 to   28- 167
Number Format for Storage              ... Double (8 Byte)
Integral mode                          ... Direct

First Phase: integral generation and transformation of MO indices
  Aux angular momentum 0               ... done (    0.001 sec)
  Aux angular momentum 1               ... done (    0.001 sec)
  Aux angular momentum 2               ... done (    0.002 sec)
  Aux angular momentum 3               ... done (    0.003 sec)
  Aux angular momentum 4               ... done (    0.005 sec)
  Aux angular momentum 5               ... done (    0.007 sec)
  Aux angular momentum 6               ... done (    0.011 sec)
Closing buffer VIJ ( 0.00 GB; CompressionRatio= 1.00)
Closing buffer VIA ( 0.02 GB; CompressionRatio= 1.00)
  Phase 1 completed in     0.117 sec
Second Phase: sorting and transformation of aux index

IJ-Transformation
Memory available                       ... 4991 MB 
Max. # MO pairs treated in a batch     ... 2    
# of internal orbitals                 ... 28
# batches for internal orbitals        ... 1
Closing buffer IJV ( 0.00 GB; CompressionRatio= 1.00)
(ij|v) transformation done in     0.004 sec

IA-Transformation
Memory available                       ... 4991 MB 
Max. # MO pairs treated in a batch     ... 2    
# of internal orbitals                 ... 28
# batches for internal orbitals        ... 1
Closing buffer IAV ( 0.00 GB; CompressionRatio= 1.00)
(ia|v) transformation done in     0.011 sec

  Phase 2 completed in     0.039 sec
RI-Integral transformation completed in     0.158 sec
Opening buffers                              ... done

Starting loop over batches of integrals:

Operator 0  - window                       ... (  0- 28)x( 29-167)
Operator 0  - Memory available             ...  5000 MB
Operator 0  - Memory needed per MO         ...   1.1 MB
Operator 0  - Number of orbitals per batch ... 2
Operator 0  - Number of batches            ... 1

OPERATOR  0   PASS   0:  MOs     0 ...    1 +    2 ...    3 +    4 ...    5 +    6 ...    7
                            +    8 ...    9 +   10 ...   11 +   12 ...   13 +   14 ...   15
                            +   16 ...   17 +   18 ...   19 +   20 ...   21 +   22 ...   23
                            +   24 ...   25 +   26 ...   27 +   28 ...   28
  Reading integrals       ... ok
Closing buffer GIPV ( 0.00 GB; CompressionRatio= 1.00)

Operator 1  - window                       ... (  0- 27)x( 28-167)
Operator 1  - Memory available             ...  5000 MB
Operator 1  - Memory needed per MO         ...   1.1 MB
Operator 1  - Number of orbitals per batch ... 2
Operator 1  - Number of batches            ... 1

OPERATOR  1   PASS   0:  MOs     0 ...    1 +    2 ...    3 +    4 ...    5 +    6 ...    7
                            +    8 ...    9 +   10 ...   11 +   12 ...   13 +   14 ...   15
                            +   16 ...   17 +   18 ...   19 +   20 ...   21 +   22 ...   23
                            +   24 ...   25 +   26 ...   27
  Reading integrals       ... ok
Closing buffer GIPV ( 0.00 GB; CompressionRatio= 1.00)
Time spent in pair loops =     0.895 sec

Correlation energy components}
 E2 and T2 for alpha/alpha pairs :     -0.110688790 Eh      0.000000000
 E2 and T2 for beta/beta   pairs :     -0.105157654 Eh      0.000000000
 E2 and T2 for alpha/beta  pairs :     -0.422907647 Eh      0.000000000


-----------------------------------------------
 RI-MP2 CORRELATION ENERGY:     -0.638754091 Eh
-----------------------------------------------


---------------------
MP2 DENSITY FORMATION
---------------------

Completing the external part of the density      ... done
Storing the unrelaxed density                    ... done

Calculating the xc-kernel                        ... done
Calculating G(D)                                 ... done
Completing the Lagrangian                        ... done
Solving the Z-vector equations                   ... 

------------------------------------------------------------------------------
                           ORCA CP-SCF CALCULATION
------------------------------------------------------------------------------

Input orbitals are from        ... Ag03N0_D3H.gbw
Input Perturbation             ... Ag03N0_D3H.pin.tmp
Wavefunction output            ... Ag03N0_D3H.pout.tmp
Perturbation mode              ... Real perturbation (singlet)
Solver                         ... POPLE
Max. number of iterations      ... 128
Convergence tolerance          ... 1.000e-08
Integral handling              ... Direct
Number of perturbations        ... 1
Number of operators            ... 2
Orbital ranges used for CP-SCF:
 Operator 0:  Orbitals   0... 28  to  29...167
 Operator 1:  Orbitals   0... 27  to  28...167
DFT calculation                         ... on
Exchange functional (SCF)               ... B88
Exchange functional (CP-SCF)            ... B88
   X-Alpha parameter    XAlpha (SCF)    ...  0.666667
   X-Alpha parameter    XAlpha (CP-SCF) ...  0.666667
   Becke's b parameter  XBeta (SCF)     ...  0.004200
   Becke's b parameter  XBeta (CP-SCF)  ...  0.004200
Correlation functional (SCF)            ... LYP
Correlation functional (CP-SCF)         ... LYP
 LDA part of GGA corr.  LDAOpt (SCF)    ... VWN-3
 LDA part of GGA corr.  LDAOpt (CP-SCF) ... VWN-3
Hybrid DFT                              ... on
   Exchange mixing (SCF)                ...  0.530
   Exchange mixing (CP-SCF)             ...  0.530
   GGA exch. scaling(SCF)               ...  0.470
   GGA exch. scaling (CP-SCF)           ...  0.470
   GGA corr. scaling (SCF)              ...  0.730
   GGA corr. scaling (CP-SCF)           ...  0.730
Variables per vector in CP-SCF ... 7951
Number of vectors sought       ... 1
Recalculating density on grid  ... done
Calculating the xc-kernel      ... done
     CP-SCF ITERATION   0: 
     CP-SCF ITERATION   1:      0.000178114109
     CP-SCF ITERATION   2:      0.000036173462
     CP-SCF ITERATION   3:      0.000005714208
     CP-SCF ITERATION   4:      0.000000820188
     CP-SCF ITERATION   5:      0.000000268352
     CP-SCF ITERATION   6:      0.000000021678
     CP-SCF ITERATION   7:      0.000000004659
done
Finalizing the relaxed density                   ... done
Transforming P to the AO basis                   ... done
Storing the relaxed density                      ... done

------------------------------------
ENERGY WEIGHTED DENSITY FINALIZATION
------------------------------------

Gathering the parts of the W-matrix              ... done
Forming the Z-density                            ... done
Transforming Z to the AO basis                   ... done
Calculating G(Z)                                 ... done
Finalizing the W-matrix                          ... done
Transforming W to the AO basis and storing       ... done
Entering the RIJONX and RIJCOSX sections
Starting the three-index derivative integrals:
Operator 0  - Memory available             ...  5000 MB
Operator 0  - Memory needed per MO         ...   1.4 MB
Operator 0  - Number of orbitals per batch ... 2
Operator 0  - Number of batches            ... 1

OPERATOR  0   PASS   0:  MOs     0 ...    1 +    2 ...    3 +    4 ...    5 +    6 ...    7
                            +    8 ...    9 +   10 ...   11 +   12 ...   13 +   14 ...   15
                            +   16 ...   17 +   18 ...   19 +   20 ...   21 +   22 ...   23
                            +   24 ...   25 +   26 ...   27 +   28 ...   28
Operator 1  - Memory available             ...  5000 MB
Operator 1  - Memory needed per MO         ...   1.4 MB
Operator 1  - Number of orbitals per batch ... 2
Operator 1  - Number of batches            ... 1

OPERATOR  1   PASS   0:  MOs     0 ...    1 +    2 ...    3 +    4 ...    5 +    6 ...    7
                            +    8 ...    9 +   10 ...   11 +   12 ...   13 +   14 ...   15
                            +   16 ...   17 +   18 ...   19 +   20 ...   21 +   22 ...   23
                            +   24 ...   25 +   26 ...   27

----------------------------------
MP2 DERIVATIVE INTEGRAL GENERATION
----------------------------------


Input Correlated Electron Density   ... Ag03N0_D3H.pmp2re
Input Energy Weighted Density       ... Ag03N0_D3H.wmp2.tmp
Input SCF Electron Density          ... Ag03N0_D3H.scfp

One-Electron Terms    ...
  ECP gradient                                           ... One-Electron Terms done
Prescreening matrices              ... done
Exchange-correlation gradient    ... done
Dispersion correction            ... done

                *********************************************
                * UNRELAXED MP2 DENSITY POPULATION ANALYSIS *
                *********************************************

------------------------------------------------------------------------------
                           ORCA POPULATION ANALYSIS
------------------------------------------------------------------------------
Input electron density              ... Ag03N0_D3H.pmp2ur
Input spin density                  ... Ag03N0_D3H.rmp2ur
BaseName (.gbw .S,...)              ... Ag03N0_D3H

                    ********************************
                    * MULLIKEN POPULATION ANALYSIS *
                    ********************************

------------------------------------------
MULLIKEN ATOMIC CHARGES AND SPIN DENSITIES
------------------------------------------
   0 Ag:   -0.130199    0.589495
   1 Ag:    0.065100    0.205252
   2 Ag:    0.065099    0.205253
Sum of atomic charges       :   -0.0000000
Sum of atomic spin densities:    1.0000000

---------------------------------------------------
MULLIKEN REDUCED ORBITAL CHARGES AND SPIN DENSITIES
---------------------------------------------------
CHARGE
  0 Ags       :     3.027810  s :     3.027810
      pz      :     2.012283  p :     6.178485
      px      :     2.011706
      py      :     2.154496
      dz2     :     1.981948  d :     9.881792
      dxz     :     1.988088
      dyz     :     1.983661
      dx2y2   :     1.979168
      dxy     :     1.948927
      f0      :     0.005550  f :     0.039505
      f+1     :     0.005524
      f-1     :     0.005676
      f+2     :     0.005502
      f-2     :     0.005591
      f+3     :     0.005918
      f-3     :     0.005745
      g0      :     0.000288  g :     0.002605
      g+1     :     0.000287
      g-1     :     0.000290
      g+2     :     0.000288
      g-2     :     0.000289
      g+3     :     0.000289
      g-3     :     0.000288
      g+4     :     0.000292
      g-4     :     0.000293
  1 Ags       :     2.768463  s :     2.768463
      pz      :     2.012745  p :     6.214327
      px      :     2.049177
      py      :     2.152405
      dz2     :     1.984790  d :     9.910478
      dxz     :     1.987472
      dyz     :     1.989456
      dx2y2   :     1.970323
      dxy     :     1.978437
      f0      :     0.005466  f :     0.039028
      f+1     :     0.005565
      f-1     :     0.005473
      f+2     :     0.005496
      f-2     :     0.005456
      f+3     :     0.005884
      f-3     :     0.005688
      g0      :     0.000287  g :     0.002604
      g+1     :     0.000288
      g-1     :     0.000287
      g+2     :     0.000289
      g-2     :     0.000288
      g+3     :     0.000289
      g-3     :     0.000288
      g+4     :     0.000294
      g-4     :     0.000293
  2 Ags       :     2.768465  s :     2.768465
      pz      :     2.012745  p :     6.214327
      px      :     2.049177
      py      :     2.152405
      dz2     :     1.984790  d :     9.910478
      dxz     :     1.987472
      dyz     :     1.989456
      dx2y2   :     1.970323
      dxy     :     1.978437
      f0      :     0.005466  f :     0.039028
      f+1     :     0.005565
      f-1     :     0.005473
      f+2     :     0.005496
      f-2     :     0.005456
      f+3     :     0.005884
      f-3     :     0.005688
      g0      :     0.000287  g :     0.002604
      g+1     :     0.000288
      g-1     :     0.000287
      g+2     :     0.000289
      g-2     :     0.000288
      g+3     :     0.000289
      g-3     :     0.000288
      g+4     :     0.000294
      g-4     :     0.000293

SPIN
  0 Ags       :     0.508194  s :     0.508194
      pz      :     0.001228  p :     0.072068
      px      :     0.002080
      py      :     0.068759
      dz2     :     0.001181  d :     0.009459
      dxz     :     0.000538
      dyz     :     0.000806
      dx2y2   :     0.002073
      dxy     :     0.004861
      f0      :    -0.000032  f :    -0.000223
      f+1     :    -0.000032
      f-1     :    -0.000033
      f+2     :    -0.000030
      f-2     :    -0.000031
      f+3     :    -0.000038
      f-3     :    -0.000027
      g0      :    -0.000001  g :    -0.000003
      g+1     :    -0.000001
      g-1     :    -0.000000
      g+2     :    -0.000000
      g-2     :    -0.000000
      g+3     :    -0.000000
      g-3     :    -0.000000
      g+4     :     0.000000
      g-4     :     0.000000
  1 Ags       :     0.084287  s :     0.084287
      pz      :     0.000099  p :     0.118722
      px      :     0.001379
      py      :     0.117244
      dz2     :     0.000474  d :     0.002274
      dxz     :    -0.000077
      dyz     :    -0.000141
      dx2y2   :     0.000290
      dxy     :     0.001729
      f0      :    -0.000006  f :    -0.000030
      f+1     :    -0.000006
      f-1     :    -0.000003
      f+2     :    -0.000007
      f-2     :    -0.000007
      f+3     :     0.000007
      f-3     :    -0.000008
      g0      :    -0.000000  g :    -0.000001
      g+1     :    -0.000000
      g-1     :    -0.000000
      g+2     :    -0.000000
      g-2     :    -0.000000
      g+3     :    -0.000000
      g-3     :    -0.000000
      g+4     :    -0.000000
      g-4     :    -0.000000
  2 Ags       :     0.084290  s :     0.084290
      pz      :     0.000099  p :     0.118721
      px      :     0.001378
      py      :     0.117244
      dz2     :     0.000474  d :     0.002274
      dxz     :    -0.000077
      dyz     :    -0.000141
      dx2y2   :     0.000290
      dxy     :     0.001729
      f0      :    -0.000006  f :    -0.000030
      f+1     :    -0.000006
      f-1     :    -0.000003
      f+2     :    -0.000007
      f-2     :    -0.000007
      f+3     :     0.000007
      f-3     :    -0.000008
      g0      :    -0.000000  g :    -0.000001
      g+1     :    -0.000000
      g-1     :    -0.000000
      g+2     :    -0.000000
      g-2     :    -0.000000
      g+3     :    -0.000000
      g-3     :    -0.000000
      g+4     :    -0.000000
      g-4     :    -0.000000


                     *******************************
                     * LOEWDIN POPULATION ANALYSIS *
                     *******************************

-----------------------------------------
LOEWDIN ATOMIC CHARGES AND SPIN DENSITIES
-----------------------------------------
   0 Ag:   -0.084241    0.471266
   1 Ag:    0.042121    0.264366
   2 Ag:    0.042120    0.264367

--------------------------------------------------
LOEWDIN REDUCED ORBITAL CHARGES AND SPIN DENSITIES
--------------------------------------------------
CHARGE
  0 Ags       :     2.781117  s :     2.781117
      pz      :     2.014927  p :     6.352573
      px      :     2.023968
      py      :     2.313678
      dz2     :     1.992481  d :     9.907534
      dxz     :     1.987606
      dyz     :     1.981385
      dx2y2   :     1.983264
      dxy     :     1.962798
      f0      :     0.005600  f :     0.040405
      f+1     :     0.005588
      f-1     :     0.005829
      f+2     :     0.005522
      f-2     :     0.005677
      f+3     :     0.006340
      f-3     :     0.005849
      g0      :     0.000289  g :     0.002613
      g+1     :     0.000287
      g-1     :     0.000290
      g+2     :     0.000289
      g-2     :     0.000290
      g+3     :     0.000290
      g-3     :     0.000288
      g+4     :     0.000293
      g-4     :     0.000296
  1 Ags       :     2.623054  s :     2.623054
      pz      :     2.015462  p :     6.358688
      px      :     2.100018
      py      :     2.243208
      dz2     :     1.992047  d :     9.933520
      dxz     :     1.985667
      dyz     :     1.988345
      dx2y2   :     1.981663
      dxy     :     1.985799
      f0      :     0.005523  f :     0.040006
      f+1     :     0.005663
      f-1     :     0.005560
      f+2     :     0.005571
      f-2     :     0.005500
      f+3     :     0.006384
      f-3     :     0.005806
      g0      :     0.000288  g :     0.002611
      g+1     :     0.000289
      g-1     :     0.000287
      g+2     :     0.000290
      g-2     :     0.000289
      g+3     :     0.000290
      g-3     :     0.000288
      g+4     :     0.000297
      g-4     :     0.000295
  2 Ags       :     2.623054  s :     2.623054
      pz      :     2.015462  p :     6.358688
      px      :     2.100018
      py      :     2.243208
      dz2     :     1.992047  d :     9.933520
      dxz     :     1.985667
      dyz     :     1.988345
      dx2y2   :     1.981663
      dxy     :     1.985799
      f0      :     0.005523  f :     0.040006
      f+1     :     0.005663
      f-1     :     0.005560
      f+2     :     0.005571
      f-2     :     0.005500
      f+3     :     0.006384
      f-3     :     0.005806
      g0      :     0.000288  g :     0.002611
      g+1     :     0.000289
      g-1     :     0.000287
      g+2     :     0.000290
      g-2     :     0.000289
      g+3     :     0.000290
      g-3     :     0.000288
      g+4     :     0.000297
      g-4     :     0.000295

SPIN
  0 Ags       :     0.308148  s :     0.308148
      pz      :     0.001244  p :     0.152752
      px      :     0.001166
      py      :     0.150342
      dz2     :     0.002162  d :     0.010550
      dxz     :     0.000254
      dyz     :     0.000658
      dx2y2   :     0.004072
      dxy     :     0.003404
      f0      :    -0.000031  f :    -0.000181
      f+1     :    -0.000032
      f-1     :     0.000005
      f+2     :    -0.000029
      f-2     :    -0.000031
      f+3     :    -0.000035
      f-3     :    -0.000028
      g0      :    -0.000000  g :    -0.000002
      g+1     :    -0.000001
      g-1     :    -0.000000
      g+2     :    -0.000000
      g-2     :    -0.000000
      g+3     :    -0.000000
      g-3     :    -0.000000
      g+4     :     0.000000
      g-4     :     0.000000
  1 Ags       :     0.059776  s :     0.059776
      pz      :     0.000170  p :     0.194368
      px      :     0.002780
      py      :     0.191418
      dz2     :     0.001373  d :     0.010143
      dxz     :    -0.000106
      dyz     :     0.000019
      dx2y2   :     0.003882
      dxy     :     0.004974
      f0      :    -0.000005  f :     0.000081
      f+1     :    -0.000004
      f-1     :     0.000021
      f+2     :    -0.000005
      f-2     :    -0.000005
      f+3     :     0.000080
      f-3     :    -0.000002
      g0      :    -0.000000  g :    -0.000001
      g+1     :    -0.000000
      g-1     :    -0.000000
      g+2     :    -0.000000
      g-2     :    -0.000000
      g+3     :    -0.000000
      g-3     :    -0.000000
      g+4     :     0.000000
      g-4     :     0.000000
  2 Ags       :     0.059777  s :     0.059777
      pz      :     0.000170  p :     0.194368
      px      :     0.002780
      py      :     0.191418
      dz2     :     0.001373  d :     0.010143
      dxz     :    -0.000106
      dyz     :     0.000019
      dx2y2   :     0.003882
      dxy     :     0.004974
      f0      :    -0.000005  f :     0.000081
      f+1     :    -0.000004
      f-1     :     0.000021
      f+2     :    -0.000005
      f-2     :    -0.000005
      f+3     :     0.000080
      f-3     :    -0.000002
      g0      :    -0.000000  g :    -0.000001
      g+1     :    -0.000000
      g-1     :    -0.000000
      g+2     :    -0.000000
      g-2     :    -0.000000
      g+3     :    -0.000000
      g-3     :    -0.000000
      g+4     :     0.000000
      g-4     :     0.000000


                      *****************************
                      * MAYER POPULATION ANALYSIS *
                      *****************************

  NA   - Mulliken gross atomic population
  ZA   - Total nuclear charge
  QA   - Mulliken gross atomic charge
  VA   - Mayer's total valence
  BVA  - Mayer's bonded valence
  FA   - Mayer's free valence

  ATOM       NA         ZA         QA         VA         BVA        FA
  0 Ag    19.1302    19.0000    -0.1302     1.7434     0.9439     0.7995
  1 Ag    18.9349    19.0000     0.0651     1.6647     1.1803     0.4843
  2 Ag    18.9349    19.0000     0.0651     1.6647     1.1803     0.4843

  Mayer bond orders larger than 0.100000
B(  0-Ag,  1-Ag) :   0.4719 B(  0-Ag,  2-Ag) :   0.4719 B(  1-Ag,  2-Ag) :   0.7084 



                *******************************************
                * RELAXED MP2 DENSITY POPULATION ANALYSIS *
                *******************************************

------------------------------------------------------------------------------
[...]
      f+1     :    -0.000005
      f-1     :     0.000025
      f+2     :    -0.000004
      f-2     :    -0.000004
      f+3     :     0.000090
      f-3     :     0.000001
      g0      :    -0.000000  g :    -0.000001
      g+1     :    -0.000000
      g-1     :    -0.000000
      g+2     :    -0.000000
      g-2     :    -0.000000
      g+3     :    -0.000000
      g-3     :    -0.000000
      g+4     :     0.000000
      g-4     :     0.000000
  2 Ags       :     0.059466  s :     0.059466
      pz      :     0.000228  p :     0.172786
      px      :     0.002320
      py      :     0.170237
      dz2     :     0.001444  d :     0.012731
      dxz     :    -0.000119
      dyz     :    -0.000031
      dx2y2   :     0.005965
      dxy     :     0.005472
      f0      :    -0.000004  f :     0.000099
      f+1     :    -0.000005
      f-1     :     0.000025
      f+2     :    -0.000004
      f-2     :    -0.000004
      f+3     :     0.000090
      f-3     :     0.000001
      g0      :    -0.000000  g :    -0.000001
      g+1     :    -0.000000
      g-1     :    -0.000000
      g+2     :    -0.000000
      g-2     :    -0.000000
      g+3     :    -0.000000
      g-3     :    -0.000000
      g+4     :     0.000000
      g-4     :     0.000000


                      *****************************
                      * MAYER POPULATION ANALYSIS *
                      *****************************

  NA   - Mulliken gross atomic population
  ZA   - Total nuclear charge
  QA   - Mulliken gross atomic charge
  VA   - Mayer's total valence
  BVA  - Mayer's bonded valence
  FA   - Mayer's free valence

  ATOM       NA         ZA         QA         VA         BVA        FA
  0 Ag    19.1239    19.0000    -0.1239     1.6725     0.8634     0.8091
  1 Ag    18.9381    19.0000     0.0619     1.6376     1.1817     0.4558
  2 Ag    18.9381    19.0000     0.0619     1.6376     1.1817     0.4558

  Mayer bond orders larger than 0.100000
B(  0-Ag,  1-Ag) :   0.4317 B(  0-Ag,  2-Ag) :   0.4317 B(  1-Ag,  2-Ag) :   0.7500 



-------
TIMINGS
-------

Total time                :   17.151 sec
Integral trafo            :    0.311 sec (  1.8%)
I/O of integrals          :    0.005 sec (  0.0%)
K(i,j) Operators          :    0.087 sec (  0.5%)
T(i,j) pair energies      :    0.015 sec (  0.1%)
V-calculation             :    0.008 sec (  0.0%)
V**(-1/2)                 :    0.010 sec (  0.1%)
Gamma(ia|P)               :    0.067 sec (  0.4%)
Gamma-Trafo               :    0.016 sec (  0.1%)
D(virtual)                :    0.010 sec (  0.1%)
D(internal)               :    0.029 sec (  0.2%)
W(virtual)                :    0.010 sec (  0.1%)
W(internal)               :    0.115 sec (  0.7%)
L(virtual)                :    0.432 sec (  2.5%)
L(internal)               :    0.003 sec (  0.0%)
G(D)                      :    1.523 sec (  8.9%)
G(Z)                      :    1.411 sec (  8.2%)
Z-Vector Solution         :    5.797 sec ( 33.8%)
Z-Vector Solution         :    5.797 sec ( 33.8%)
3-Index Derivative 
+ Separable RIJ part      :    2.747 sec ( 16.0%)
2-Index Derivative 
+ Separable RIJ part      :    0.007 sec (  0.0%)
Separable Gradient (X)    :    4.047 sec ( 23.6%)


---------------------------------------
MP2 TOTAL ENERGY:     -440.745102948 Eh
---------------------------------------

-----------------------------------
NORM OF THE MP2 GRADIENT:  0.000036
-----------------------------------


-------------------------------------------------------------------------------
                          DFT DISPERSION CORRECTION                            
                                                                               
                              DFTD3 V3.1  Rev 1                                
                          USING Becke-Johnson damping                          
-------------------------------------------------------------------------------
The B2PLYP functional is recognized
Active option DFTDOPT                   ...         4   

molecular C6(AA) [au] = 2417.599340 


            DFT-D V3
 parameters
 s6 scaling factor         :     0.6400 
 a1 scaling factor         :     0.3065 
 s8 scaling factor         :     0.9147 
 a2 scaling factor         :     5.0570 
 ad hoc parameters k1-k3   :    16.0000     1.3333    -4.0000 

 Edisp/kcal,au: -3.700076516635  -0.005896446627 
 E6   /kcal   :  -1.195266491 
 E8   /kcal   :  -2.504810026 
 % E8         :  67.696168303 

-------------------------   ----------------
Dispersion correction           -0.005896447
-------------------------   ----------------


-------------------------   --------------------
FINAL SINGLE POINT ENERGY      -440.750999394135
-------------------------   --------------------

                                *** OPTIMIZATION RUN DONE ***

                            ***************************************
                            *     ORCA property calculations      *
                            ***************************************

                                    ---------------------
                                    Active property flags
                                    ---------------------
   (+) Dipole Moment


------------------------------------------------------------------------------
                       ORCA ELECTRIC PROPERTIES CALCULATION
------------------------------------------------------------------------------

Dipole Moment Calculation                       ... on
Quadrupole Moment Calculation                   ... off
Polarizability Calculation                      ... off
GBWName                                         ... Ag03N0_D3H.gbw
Electron density file                           ... Ag03N0_D3H.scfp
The origin for moment calculation is the CENTER OF MASS  = (-0.000000, -0.000001  0.000000)

-------------
DIPOLE MOMENT
-------------
                                X             Y             Z
Electronic contribution:      0.00000      -0.52073       0.00000
Nuclear contribution   :      0.00000       0.00000       0.00000
                        -----------------------------------------
Total Dipole Moment    :      0.00000      -0.52073       0.00000
                        -----------------------------------------
Magnitude (a.u.)       :      0.52073
Magnitude (Debye)      :      1.32359



--------------------
Rotational spectrum 
--------------------
 
Rotational constants in cm-1:     0.046824     0.038086     0.021003 
Rotational constants in MHz :  1403.742364  1141.786957   629.643001 

 Dipole components along the rotational axes: 
x,y,z [a.u.] :     0.520728    -0.000006     0.000000 
x,y,z [Debye]:     1.323585    -0.000016     0.000000 

 

                         *** MP2 UNRELAXED DENSITY ***

------------------------------------------------------------------------------
                       ORCA ELECTRIC PROPERTIES CALCULATION
------------------------------------------------------------------------------

Dipole Moment Calculation                       ... on
Quadrupole Moment Calculation                   ... off
Polarizability Calculation                      ... off
GBWName                                         ... Ag03N0_D3H.gbw
Electron density file                           ... Ag03N0_D3H.pmp2ur
The origin for moment calculation is the CENTER OF MASS  = (-0.000000, -0.000001  0.000000)

-------------
DIPOLE MOMENT
-------------
                                X             Y             Z
Electronic contribution:      0.00000      -0.51759       0.00000
Nuclear contribution   :      0.00000       0.00000       0.00000
                        -----------------------------------------
Total Dipole Moment    :      0.00000      -0.51759       0.00000
                        -----------------------------------------
Magnitude (a.u.)       :      0.51759
Magnitude (Debye)      :      1.31561



--------------------
Rotational spectrum 
--------------------
 
Rotational constants in cm-1:     0.046824     0.038086     0.021003 
Rotational constants in MHz :  1403.742364  1141.786957   629.643001 

 Dipole components along the rotational axes: 
x,y,z [a.u.] :     0.517591    -0.000006     0.000000 
x,y,z [Debye]:     1.315613    -0.000016     0.000000 

 

                           *** MP2 RELAXED DENSITY ***

------------------------------------------------------------------------------
                       ORCA ELECTRIC PROPERTIES CALCULATION
------------------------------------------------------------------------------

Dipole Moment Calculation                       ... on
Quadrupole Moment Calculation                   ... off
Polarizability Calculation                      ... off
GBWName                                         ... Ag03N0_D3H.gbw
Electron density file                           ... Ag03N0_D3H.pmp2re
The origin for moment calculation is the CENTER OF MASS  = (-0.000000, -0.000001  0.000000)

-------------
DIPOLE MOMENT
-------------
                                X             Y             Z
Electronic contribution:      0.00000      -0.49725       0.00000
Nuclear contribution   :      0.00000       0.00000       0.00000
                        -----------------------------------------
Total Dipole Moment    :      0.00000      -0.49725       0.00000
                        -----------------------------------------
Magnitude (a.u.)       :      0.49725
Magnitude (Debye)      :      1.26392



--------------------
Rotational spectrum 
--------------------
 
Rotational constants in cm-1:     0.046824     0.038086     0.021003 
Rotational constants in MHz :  1403.742364  1141.786957   629.643001 

 Dipole components along the rotational axes: 
x,y,z [a.u.] :     0.497253    -0.000007     0.000000 
x,y,z [Debye]:     1.263916    -0.000017     0.000000 

 

----------------------------------------------------------------------------
                           ORCA NUMERICAL FREQUENCIES
                              (24-process run)
----------------------------------------------------------------------------

Number of atoms                ... 3
Central differences            ... used
Number of displacements        ... 18
Numerical increment            ... 5.000e-03 bohr
IR-spectrum generation         ... on
Raman-spectrum generation      ... off
Surface Crossing Hessian       ... off

 WARNING: There are more processes than displacements to do
  ====> : Reducing number of processes to   9

The output will be reduced. Please look at the following files:
SCF program output             ... >Ag03N0_D3H.lastscf
Integral program output        ... >Ag03N0_D3H.lastint
Gradient program output        ... >Ag03N0_D3H.lastgrad
Dipole moment program output   ... >Ag03N0_D3H.lastmom
AutoCI program output          ... >Ag03N0_D3H.lastautoci


         <<< Energy and Gradient at the input geometry >>>

        <<< Energy and Gradient at displaced geometries >>>
             <<<Displacing   1/coordinate 1 (+)>>>
             <<<Displacing   3/coordinate 3 (+)>>>
             <<<Displacing   2/coordinate 1 (+)>>>
             <<<Displacing   2/coordinate 2 (+)>>>
             <<<Displacing   2/coordinate 3 (+)>>>
             <<<Displacing   1/coordinate 3 (+)>>>
             <<<Displacing   1/coordinate 2 (+)>>>
             <<<Displacing   3/coordinate 1 (+)>>>
             <<<Displacing   3/coordinate 2 (+)>>>
             <<<Displacing   1/coordinate 3 (-)>>>
             <<<Displacing   2/coordinate 3 (-)>>>
             <<<Displacing   3/coordinate 3 (-)>>>
             <<<Displacing   1/coordinate 2 (-)>>>
             <<<Displacing   3/coordinate 2 (-)>>>
             <<<Displacing   1/coordinate 1 (-)>>>
             <<<Displacing   2/coordinate 1 (-)>>>
             <<<Displacing   2/coordinate 2 (-)>>>
             <<<Displacing   3/coordinate 1 (-)>>>

-----------------------
VIBRATIONAL FREQUENCIES
-----------------------

Scaling factor for frequencies =  1.000000000 (already applied!)

   0:         0.00 cm**-1
   1:         0.00 cm**-1
   2:         0.00 cm**-1
   3:         0.00 cm**-1
   4:         0.00 cm**-1
   5:         0.00 cm**-1
   6:       -87.14 cm**-1 ***imaginary mode***
   7:       111.55 cm**-1
   8:       181.45 cm**-1


------------
NORMAL MODES
------------

These modes are the cartesian displacements weighted by the diagonal matrix
M(i,i)=1/sqrt(m[i]) where m[i] is the mass of the displaced atom
Thus, these vectors are normalized but *not* orthogonal

                  0          1          2          3          4          5    
      0       0.000000   0.000000   0.000000   0.000000   0.000000   0.000000
      1       0.000000   0.000000   0.000000   0.000000   0.000000   0.000000
      2       0.000000   0.000000   0.000000   0.000000   0.000000   0.000000
      3       0.000000   0.000000   0.000000   0.000000   0.000000   0.000000
      4       0.000000   0.000000   0.000000   0.000000   0.000000   0.000000
      5       0.000000   0.000000   0.000000   0.000000   0.000000   0.000000
      6       0.000000   0.000000   0.000000   0.000000   0.000000   0.000000
      7       0.000000   0.000000   0.000000   0.000000   0.000000   0.000000
      8       0.000000   0.000000   0.000000   0.000000   0.000000   0.000000
                   6          7          8    
      0       0.546837   0.000038  -0.000008
      1      -0.000052   0.795837   0.182512
      2       0.000000   0.000000   0.000000
      3      -0.273398  -0.158078   0.689219
      4       0.525123  -0.397883  -0.091263
      5       0.000000   0.000000   0.000000
      6      -0.273439   0.158041  -0.689211
      7      -0.525071  -0.397954  -0.091249
      8       0.000000   0.000000   0.000000


-----------
IR SPECTRUM  
-----------

 Mode    freq (cm**-1)   T**2         TX         TY         TZ
-------------------------------------------------------------------
   7:       111.55    0.080806  (  0.000235  -0.284263   0.000013)
   8:       181.45    0.293800  (  0.000106  -0.542033   0.000005)

The first frequency considered to be a vibration is 7
The total number of vibrations considered is 2


--------------------------
THERMOCHEMISTRY AT 298.15K
--------------------------

Temperature         ... 298.15 K
Pressure            ... 1.00 atm
Total Mass          ... 323.61 AMU

Throughout the following assumptions are being made:
  (1) The electronic state is orbitally nondegenerate
      but the spin degeneracy is treated
  (2) There are no thermally accessible electronically excited states
  (3) Hindered rotations indicated by low frequency modes are not
      treated as such but are treated as vibrations and this may
      cause some error
  (4) All equations used are the standard statistical mechanics
      equations for an ideal gas
  (5) All vibrations are strictly harmonic

freq.     111.55  E(vib)   ...       0.45 
freq.     181.45  E(vib)   ...       0.37 

------------
INNER ENERGY
------------

The inner energy is: U= E(el) + E(ZPE) + E(vib) + E(rot) + E(trans)
    E(el)   - is the total energy from the electronic structure calculation
              = E(kin-el) + E(nuc-el) + E(el-el) + E(nuc-nuc)
    E(ZPE)  - the the zero temperature vibrational energy from the frequency calculation
    E(vib)  - the the finite temperature correction to E(ZPE) due to population
              of excited vibrational states
    E(rot)  - is the rotational thermal energy
    E(trans)- is the translational thermal energy

Summary of contributions to the inner energy U:
Electronic energy                ...   -440.75099923 Eh
Zero point energy                ...      0.00066750 Eh       0.42 kcal/mol
Thermal vibrational correction   ...      0.00130318 Eh       0.82 kcal/mol
Thermal rotational correction    ...      0.00141627 Eh       0.89 kcal/mol
Thermal translational correction ...      0.00141627 Eh       0.89 kcal/mol
-----------------------------------------------------------------------
Total thermal energy                   -440.74619601 Eh


Summary of corrections to the electronic energy:
(perhaps to be used in another calculation)
Total thermal correction                  0.00413572 Eh       2.60 kcal/mol
Non-thermal (ZPE) correction              0.00066750 Eh       0.42 kcal/mol
-----------------------------------------------------------------------
Total correction                          0.00480322 Eh       3.01 kcal/mol


--------
ENTHALPY
--------

The enthalpy is H = U + kB*T
                kB is Boltzmann's constant
Total free energy                 ...   -440.74619601 Eh 
Thermal Enthalpy correction       ...      0.00094421 Eh       0.59 kcal/mol
-----------------------------------------------------------------------
Total Enthalpy                    ...   -440.74525180 Eh


Note: Rotational entropy computed according to Herzberg 
Infrared and Raman Spectra, Chapter V,1, Van Nostrand Reinhold, 1945 
Point Group:  Cs, Symmetry Number:   1  
Rotational constants in cm-1:     0.046824     0.038086     0.021003 

Vibrational entropy computed according to the QRRHO of S. Grimme
Chem.Eur.J. 2012 18 9955


-------
ENTROPY
-------

The entropy contributions are T*S = T*(S(el)+S(vib)+S(rot)+S(trans))
     S(el)   - electronic entropy
     S(vib)  - vibrational entropy
     S(rot)  - rotational entropy
     S(trans)- translational entropy
The entropies will be listed as mutliplied by the temperature to get
units of energy

Electronic entropy                ...      0.00065446 Eh      0.41 kcal/mol
Vibrational entropy               ...      0.00254515 Eh      1.60 kcal/mol
Rotational entropy                ...      0.01432254 Eh      8.99 kcal/mol
Translational entropy             ...      0.02053447 Eh     12.89 kcal/mol
-----------------------------------------------------------------------
Final entropy term                ...      0.03805661 Eh     23.88 kcal/mol

In case the symmetry of your molecule has not been determined correctly
or in case you have a reason to use a different symmetry number we print 
out the resulting rotational entropy values for sn=1,12 :
 --------------------------------------------------------
|  sn= 1 | S(rot)=       0.01432254 Eh      8.99 kcal/mol|
|  sn= 2 | S(rot)=       0.01366808 Eh      8.58 kcal/mol|
|  sn= 3 | S(rot)=       0.01328525 Eh      8.34 kcal/mol|
|  sn= 4 | S(rot)=       0.01301362 Eh      8.17 kcal/mol|
|  sn= 5 | S(rot)=       0.01280294 Eh      8.03 kcal/mol|
|  sn= 6 | S(rot)=       0.01263079 Eh      7.93 kcal/mol|
|  sn= 7 | S(rot)=       0.01248525 Eh      7.83 kcal/mol|
|  sn= 8 | S(rot)=       0.01235917 Eh      7.76 kcal/mol|
|  sn= 9 | S(rot)=       0.01224796 Eh      7.69 kcal/mol|
|  sn=10 | S(rot)=       0.01214848 Eh      7.62 kcal/mol|
|  sn=11 | S(rot)=       0.01205849 Eh      7.57 kcal/mol|
|  sn=12 | S(rot)=       0.01197634 Eh      7.52 kcal/mol|
 --------------------------------------------------------


-------------------
GIBBS FREE ENERGY
-------------------

The Gibbs free energy is G = H - T*S

Total enthalpy                    ...   -440.74525180 Eh 
Total entropy correction          ...     -0.03805661 Eh    -23.88 kcal/mol
-----------------------------------------------------------------------
Final Gibbs free energy         ...   -440.78330842 Eh

For completeness - the Gibbs free energy minus the electronic energy
G-E(el)                           ...     -0.03230919 Eh    -20.27 kcal/mol


Total Time for Numerical Frequencies  :       260.209 sec

Timings for individual modules:

Sum of individual times         ...      258.377 sec (=   4.306 min)
GTO integral calculation        ...       11.844 sec (=   0.197 min)   4.6 %
SCF iterations                  ...       49.750 sec (=   0.829 min)  19.3 %
MP2 module                      ...      196.322 sec (=   3.272 min)  76.0 %
Geometry relaxation             ...        0.461 sec (=   0.008 min)   0.2 %
                             ****ORCA TERMINATED NORMALLY****
TOTAL RUN TIME: 0 days 0 hours 8 minutes 19 seconds 354 msec
