
                                 *****************
                                 * O   R   C   A *
                                 *****************

           --- An Ab Initio, DFT and Semiempirical electronic structure package ---

                  #######################################################
                  #                        -***-                        #
                  #          Department of theory and spectroscopy      #
                  #               Directorship: Frank Neese             #
                  #        Max Planck Institute fuer Kohlenforschung    #
                  #                Kaiser Wilhelm Platz 1               #
                  #                 D-45470 Muelheim/Ruhr               #
                  #                      Germany                        #
                  #                                                     #
                  #                  All rights reserved                #
                  #                        -***-                        #
                  #######################################################


                         Program Version 4.2.0 -  RELEASE  -


 With contributions from (in alphabetic order):
   Daniel Aravena         : Magnetic Suceptibility
   Michael Atanasov       : Ab Initio Ligand Field Theory (pilot matlab implementation)
   Alexander A. Auer      : GIAO ZORA, VPT2
   Ute Becker             : Parallelization
   Giovanni Bistoni       : ED, misc. LED, open-shell LED, HFLED
   Martin Brehm           : Molecular dynamics
   Dmytro Bykov           : SCF Hessian
   Vijay G. Chilkuri      : MRCI spin determinant printing, contributions to CSF-ICE
   Dipayan Datta          : RHF DLPNO-CCSD density
   Achintya Kumar Dutta   : EOM-CC, STEOM-CC
   Dmitry Ganyushin       : Spin-Orbit,Spin-Spin,Magnetic field MRCI
   Miquel Garcia          : C-PCM Hessian, Gaussian charge scheme
   Yang Guo               : DLPNO-NEVPT2, CIM, IAO-localization
   Andreas Hansen         : Spin unrestricted coupled pair/coupled cluster methods
   Benjamin Helmich-Paris : CASSCF linear response (MC-RPA)
   Lee Huntington         : MR-EOM, pCC
   Robert Izsak           : Overlap fitted RIJCOSX, COSX-SCS-MP3, EOM
   Christian Kollmar      : KDIIS, OOCD, Brueckner-CCSD(T), CCSD density
   Simone Kossmann        : Meta GGA functionals, TD-DFT gradient, OOMP2, MP2 Hessian
   Martin Krupicka        : AUTO-CI
   Lucas Lang             : DCDCAS
   Dagmar Lenk            : GEPOL surface, SMD
   Dimitrios Liakos       : Extrapolation schemes; Compound Job, initial MDCI parallelization
   Dimitrios Manganas     : Further ROCIS development; embedding schemes
   Dimitrios Pantazis     : SARC Basis sets
   Taras Petrenko         : DFT Hessian,TD-DFT gradient, ASA, ECA, R-Raman, ABS, FL, XAS/XES, NRVS
   Peter Pinski           : DLPNO-MP2, DLPNO-MP2 Gradient
   Christoph Reimann      : Effective Core Potentials
   Marius Retegan         : Local ZFS, SOC
   Christoph Riplinger    : Optimizer, TS searches, QM/MM, DLPNO-CCSD(T), (RO)-DLPNO pert. Triples
   Tobias Risthaus        : Range-separated hybrids, TD-DFT gradient, RPA, STAB
   Michael Roemelt        : Original ROCIS implementation
   Masaaki Saitow         : Open-shell DLPNO-CCSD energy and density
   Barbara Sandhoefer     : DKH picture change effects
   Avijit Sen             : IP-ROCIS
   Kantharuban Sivalingam : CASSCF convergence, NEVPT2, FIC-MRCI
   Bernardo de Souza      : ESD, SOC TD-DFT
   Georgi Stoychev        : AutoAux, RI-MP2 NMR
   Willem Van den Heuvel  : Paramagnetic NMR
   Boris Wezisla          : Elementary symmetry handling
   Frank Wennmohs         : Technical directorship


 We gratefully acknowledge several colleagues who have allowed us to
 interface, adapt or use parts of their codes:
   Stefan Grimme, W. Hujo, H. Kruse,             : VdW corrections, initial TS optimization,
                  C. Bannwarth                     DFT functionals, gCP, sTDA/sTD-DF
   Ed Valeev, F. Pavosevic, A. Kumar             : LibInt (2-el integral package), F12 methods
   Garnet Chan, S. Sharma, J. Yang, R. Olivares  : DMRG
   Ulf Ekstrom                                   : XCFun DFT Library
   Mihaly Kallay                                 : mrcc  (arbitrary order and MRCC methods)
   Andreas Klamt, Michael Diedenhofen            : otool_cosmo (COSMO solvation model)
   Jiri Pittner, Ondrej Demel                    : Mk-CCSD
   Frank Weinhold                                : gennbo (NPA and NBO analysis)
   Christopher J. Cramer and Donald G. Truhlar   : smd solvation model
   Lars Goerigk                                  : TD-DFT with DH, B97 family of functionals
   V. Asgeirsson, H. Jonsson                     : NEB implementation
   FAccTs GmbH                                   : IRC, NEB, NEB-TS, Multilevel, MM, QM/MM, CI optimization
   S Lehtola, MJT Oliveira, MAL Marques          : LibXC Library


 Your calculation uses the libint2 library for the computation of 2-el integrals
 For citations please refer to: http://libint.valeyev.net

 Your ORCA version has been built with support for libXC version: 4.2.3
 For citations please refer to: https://tddft.org/programs/libxc/

 This ORCA versions uses:
   CBLAS   interface :  Fast vector & matrix operations
   LAPACKE interface :  Fast linear algebra routines
   SCALAPACK package :  Parallel linear algebra routines


Your calculation utilizes the atom-pairwise dispersion correction
with the Becke-Johnson damping scheme (D3BJ)
Cite in your paper:
S.Grimme, S.Ehrlich, L.Goerigk, J Comput Chem, (2011), 32, 1456–1465 
S.Grimme, J.Antony, S.Ehrlich and H.Krieg, J.Chem.Phys., 132, (2010), 154104 
   

----- Orbital basis set information -----
Your calculation utilizes the basis: def2-TZVPPD
   F. Weigend and R. Ahlrichs, Phys. Chem. Chem. Phys. 7, 3297 (2005).
   D. Rappoport and F. Furche, J. Chem. Phys. 133 134105 (2010).

----- AuxC basis set information -----
Your calculation utilizes the auxiliary basis: def2-TZVPPD/C
   A. Hellweg, C. Hattig, S. Hofener and W. Klopper, Theor. Chem. Acc. 117, 587 (2007).

----- AuxJK basis set information -----
Your calculation utilizes the auxiliary basis: def2/JK
   H-Ba, Hf-Rn: F. Weigend, J. Comput. Chem. 29, 167 (2008).

cite the ECPs for Ag [Def2-ECP] as follows:
Ce-Yb(ecp-28): M. Dolg, H. Stoll, H.Preuss, J. Chem. Phys., 1989, 90, 1730-1734.
Y-Cd(ecp-28), Hf-Hg(ecp-46): D. Andrae,U. Haeussermann, M. Dolg, H. Stoll, H. Preuss, Theor. Chim. Acta, 1990, 77, 123-141.
In-Sb(ecp-28), Tl-Bi(ecp-46): B. Metz, H. Stoll, M. Dolg, J. Chem. Phys., 2000, 113, 2563-2569.
Te-Xe(ecp-28), Po-Rn(ecp-46): K. A. Peterson, D. Figgen, E. Goll, H. Stoll, M. Dolg, J. Chem. Phys., 2003, 119, 11113-11123.
Rb(ecp-28), Cs(ecp-46): T. Leininger, A. Nicklass, W. Kuechle, H. Stoll, M. Dolg, A. Bergner, Chem. Phys. Lett., 1996, 255, 274-280.
Sr(ecp-28), Ba(ecp-46): M. Kaupp, P. V. Schleyer, H. Stoll and H. Preuss, J. Chem. Phys., 1991, 94, 1360-1366.
La(ecp-46): M. Dolg, H. Stoll, A. Savin, H. Preuss, Theor. Chim. Acta, 1989, 75, 173-194.
Lu(ecp-28): X. Cao, M. Dolg, J. Chem. Phys., 2001, 115, 7348-7355.

ECP parameters for Ag [Def2-ECP] have been obtained from:
TURBOMOLE (7.0.2)

================================================================================
                                        WARNINGS
                       Please study these warnings very carefully!
================================================================================


WARNING: The frozen-core approximation for MP2-gradient calculations is turned on by default.

WARNING: Geometry Optimization
  ===> : Switching off AutoStart
         For restart on a previous wavefunction, please use MOREAD

WARNING: The frozen-core approximation is turned on by default for 
         the MP2 part of double-hybrid DFT.

INFO   : the flag for use of LIBINT has been found!

================================================================================
                                       INPUT FILE
================================================================================
NAME = Ag03C1_D3H.in
|  1> #
|  2> # Ag03C1_D3H ri-B2PLYP-D3BJ/Def2-TZVPPD
|  3> #
|  4> ! rijk ri-b2plyp d3bj def2-tzvppd def2/jk def2-tzvppd/c grid4 nofinalgrid opt xyzfile numfreq
|  5> 
|  6> *xyz 1 1
|  7> Ag       0.000000    1.529877    0.000000 
|  8> Ag       1.324912   -0.764938    0.000000 
|  9> Ag      -1.324912   -0.764938    0.000000 
| 10> *
| 11> 
| 12> %maxcore 5000
| 13> 
| 14> %pal
| 15> nprocs = 24
| 16> end
| 17> 
| 18> 
| 19>                          ****END OF INPUT****
================================================================================

                       *****************************
                       * Geometry Optimization Run *
                       *****************************

Geometry optimization settings:
Update method            Update   .... BFGS
Choice of coordinates    CoordSys .... Z-matrix Internals
Initial Hessian          InHess   .... Almoef's Model

Convergence Tolerances:
Energy Change            TolE     ....  5.0000e-06 Eh
Max. Gradient            TolMAXG  ....  3.0000e-04 Eh/bohr
RMS Gradient             TolRMSG  ....  1.0000e-04 Eh/bohr
Max. Displacement        TolMAXD  ....  4.0000e-03 bohr
RMS Displacement         TolRMSD  ....  2.0000e-03 bohr
Strict Convergence                ....  False
------------------------------------------------------------------------------
                        ORCA OPTIMIZATION COORDINATE SETUP
------------------------------------------------------------------------------

The optimization will be done in new redundant internal coordinates
Making redundant internal coordinates   ...  (new redundants) done
Evaluating the initial hessian          ...  (Almloef) done
Evaluating the coordinates              ...  done
Calculating the B-matrix                .... done
Calculating the G-matrix                .... done
Diagonalizing the G-matrix              .... done
The first mode is                       ....    3
The number of degrees of freedom        ....    3

    -----------------------------------------------------------------
                    Redundant Internal Coordinates


    -----------------------------------------------------------------
         Definition                    Initial Value    Approx d2E/dq
    -----------------------------------------------------------------
      1. B(Ag  1,Ag  0)                  2.6498         0.625200   
      2. B(Ag  2,Ag  1)                  2.6498         0.625201   
      3. B(Ag  2,Ag  0)                  2.6498         0.625200   
      4. A(Ag  1,Ag  0,Ag  2)           60.0000         0.661321   
      5. A(Ag  0,Ag  1,Ag  2)           60.0000         0.661321   
      6. A(Ag  0,Ag  2,Ag  1)           60.0000         0.661321   
    -----------------------------------------------------------------

Number of atoms                         .... 3
Number of degrees of freedom            .... 6

         *************************************************************
         *                GEOMETRY OPTIMIZATION CYCLE   1            *
         *************************************************************
---------------------------------
CARTESIAN COORDINATES (ANGSTROEM)
---------------------------------
  Ag     0.000000    1.529877    0.000000
  Ag     1.324912   -0.764938    0.000000
  Ag    -1.324912   -0.764938    0.000000

----------------------------
CARTESIAN COORDINATES (A.U.)
----------------------------
  NO LB      ZA    FRAG     MASS         X           Y           Z
   0 Ag   19.0000*   0   107.870    0.000000    2.891049    0.000000
   1 Ag   19.0000*   0   107.870    2.503721   -1.445523    0.000000
   2 Ag   19.0000*   0   107.870   -2.503721   -1.445523    0.000000
* core charge reduced due to ECP

--------------------------------
INTERNAL COORDINATES (ANGSTROEM)
--------------------------------
 Ag     0   0   0     0.000000000000     0.00000000     0.00000000
 Ag     1   0   0     2.649824086986     0.00000000     0.00000000
 Ag     2   1   0     2.649824000000    60.00000109     0.00000000

---------------------------
INTERNAL COORDINATES (A.U.)
---------------------------
 Ag     0   0   0     0.000000000000     0.00000000     0.00000000
 Ag     1   0   0     5.007441827471     0.00000000     0.00000000
 Ag     2   1   0     5.007441663092    60.00000109     0.00000000

---------------------
BASIS SET INFORMATION
---------------------
There are 1 groups of distinct atoms

 Group   1 Type Ag  : 7s7p6d2f1g contracted to 6s4p3d2f1g pattern {211111/4111/411/11/1}

Atom   0Ag   basis set group =>   1
Atom   1Ag   basis set group =>   1
Atom   2Ag   basis set group =>   1
---------------------------------
AUXILIARY/C BASIS SET INFORMATION
---------------------------------
There are 1 groups of distinct atoms

 Group   1 Type Ag  : 8s7p6d5f4g3h1i contracted to 8s7p6d5f4g3h1i pattern {11111111/1111111/111111/11111/1111/111/1}

Atom   0Ag   basis set group =>   1
Atom   1Ag   basis set group =>   1
Atom   2Ag   basis set group =>   1
----------------------------------
AUXILIARY/JK BASIS SET INFORMATION
----------------------------------
There are 1 groups of distinct atoms

 Group   1 Type Ag  : 13s12p10d9f6g3h2i contracted to 11s10p9d8f6g3h2i pattern {31111111111/3111111111/211111111/21111111/111111/111/11}

Atom   0Ag   basis set group =>   1
Atom   1Ag   basis set group =>   1
Atom   2Ag   basis set group =>   1
-------------------------
ECP PARAMETER INFORMATION
-------------------------

 Group 1, Type Ag ECP Def2-ECP (replacing 28 core electrons, lmax=3)

Atom   0Ag   ECP group =>   1
Atom   1Ag   ECP group =>   1
Atom   2Ag   ECP group =>   1



           ************************************************************
           *        Program running with 24 parallel MPI-processes    *
           *              working on a common directory               *
           ************************************************************
------------------------------------------------------------------------------
                           ORCA GTO INTEGRAL CALCULATION
                           -- RI-GTO INTEGRALS CHOSEN --
------------------------------------------------------------------------------

                         BASIS SET STATISTICS AND STARTUP INFO

Gaussian basis set:
 # of primitive gaussian shells          ...   69
 # of primitive gaussian functions       ...  243
 # of contracted shells                  ...   48
 # of contracted basis functions         ...  168
 Highest angular momentum                ...    4
 Maximum contraction depth               ...    4
Auxiliary gaussian basis set:
 # of primitive gaussian shells          ...  165
 # of primitive gaussian functions       ...  825
 # of contracted shells                  ...  147
 # of contracted aux-basis functions     ...  765
 Highest angular momentum                ...    6
 Maximum contraction depth               ...    3
Ratio of auxiliary to basis functions    ...  4.55
Integral package used                  ... LIBINT
 One Electron integrals                  
   ECP integrals                         ... done
 Ordering auxiliary basis shells         ... done
 Integral threshhold             Thresh  ...  2.500e-11
 Primitive cut-off               TCut    ...  2.500e-12
 Pre-screening matrix                    ... done
 Shell pair data                         ... 
 Ordering of the shell pairs             ... done (   0.000 sec) 1134 of 1176 pairs
 Determination of significant pairs      ... done (   0.000 sec)
 Creation of shell pair data             ... done (   0.000 sec)
 Storage of shell pair data              ... done (   0.011 sec)
 Shell pair data done in (   0.012 sec)
 Computing two index integrals           ... done
 Cholesky decomposition of the V-matrix  ... done


Timings:
 Total evaluation time                   ...   0.760 sec (  0.013 min)
 One electron matrix time                ...   0.344 sec (  0.006 min) = 45.3%
 Schwartz matrix evaluation time         ...   0.141 sec (  0.002 min) = 18.5%
 Two index repulsion integral time       ...   0.143 sec (  0.002 min) = 18.8%
 Cholesky decomposition of V             ...   0.082 sec (  0.001 min) = 10.8%
 Three index repulsion integral time     ...   0.000 sec (  0.000 min) =  0.0%



           ************************************************************
           *        Program running with 24 parallel MPI-processes    *
           *              working on a common directory               *
           ************************************************************
-------------------------------------------------------------------------------
                                 ORCA SCF
-------------------------------------------------------------------------------

------------
SCF SETTINGS
------------
Hamiltonian:
 Density Functional     Method          .... DFT(GTOs)
 Exchange Functional    Exchange        .... B88
   X-Alpha parameter    XAlpha          ....  0.666667
   Becke's b parameter  XBeta           ....  0.004200
 Correlation Functional Correlation     .... LYP
 LDA part of GGA corr.  LDAOpt          .... VWN-3
 Gradients option       PostSCFGGA      .... off
 Hybrid DFT is turned on
   Fraction HF Exchange ScalHFX         ....  0.530000
   Scaling of DF-GGA-X  ScalDFX         ....  0.470000
   Scaling of DF-GGA-C  ScalDFC         ....  0.730000
   Scaling of DF-LDA-C  ScalLDAC        ....  0.730000
   Perturbative correction              ....  0.270000
   Density functional embedding theory  .... OFF
 RI-approximation to the Coulomb term is turned on
   Number of auxiliary basis functions  .... 765
   RI-JK (J+K treated both via RI)      .... on


General Settings:
 Integral files         IntName         .... Ag03C1_D3H
 Hartree-Fock type      HFTyp           .... RHF
 Total Charge           Charge          ....    1
 Multiplicity           Mult            ....    1
 Number of Electrons    NEL             ....   56
 Basis Dimension        Dim             ....  168
 Nuclear Repulsion      ENuc            ....    216.2781015067 Eh

Convergence Acceleration:
 DIIS                   CNVDIIS         .... on
   Start iteration      DIISMaxIt       ....    12
   Startup error        DIISStart       ....  0.200000
   # of expansion vecs  DIISMaxEq       ....     5
   Bias factor          DIISBfac        ....   1.050
   Max. coefficient     DIISMaxC        ....  10.000
 Newton-Raphson         CNVNR           .... off
 SOSCF                  CNVSOSCF        .... off
 Level Shifting         CNVShift        .... on
   Level shift para.    LevelShift      ....    0.2500
   Turn off err/grad.   ShiftErr        ....    0.0010
 Zerner damping         CNVZerner       .... off
 Static damping         CNVDamp         .... on
   Fraction old density DampFac         ....    0.7000
   Max. Damping (<1)    DampMax         ....    0.9800
   Min. Damping (>=0)   DampMin         ....    0.0000
   Turn off err/grad.   DampErr         ....    0.1000
 Fernandez-Rico         CNVRico         .... off

SCF Procedure:
 Maximum # iterations   MaxIter         ....   125
 SCF integral mode      SCFMode         .... Direct
   Integral package                     .... LIBINT
 Reset frequency        DirectResetFreq ....    20
 Integral Threshold     Thresh          ....  2.500e-11 Eh
 Primitive CutOff       TCut            ....  2.500e-12 Eh

Convergence Tolerance:
 Convergence Check Mode ConvCheckMode   .... Total+1el-Energy
 Convergence forced     ConvForced      .... 0
 Energy Change          TolE            ....  1.000e-08 Eh
 1-El. energy change                    ....  1.000e-05 Eh
 DIIS Error             TolErr          ....  5.000e-07


Diagonalization of the overlap matrix:
Smallest eigenvalue                        ... 2.894e-03
Time for diagonalization                   ...    0.023 sec
Threshold for overlap eigenvalues          ... 1.000e-08
Number of eigenvalues below threshold      ... 0
Time for construction of square roots      ...    0.002 sec
Total time needed                          ...    0.025 sec

-------------------
DFT GRID GENERATION
-------------------

General Integration Accuracy     IntAcc      ...  4.670
Radial Grid Type                 RadialGrid  ... Gauss-Chebyshev
Angular Grid (max. acc.)         AngularGrid ... Lebedev-302
Angular grid pruning method      GridPruning ... 3 (G Style)
Weight generation scheme         WeightScheme... Becke
Basis function cutoff            BFCut       ...    1.0000e-11
Integration weight cutoff        WCut        ...    1.0000e-14
Grids for H and He will be reduced by one unit

# of grid points (after initial pruning)     ...  31974 (   0.0 sec)
# of grid points (after weights+screening)   ...  31838 (   0.0 sec)
nearest neighbour list constructed           ...    0.0 sec
Grid point re-assignment to atoms done       ...    0.0 sec
Grid point division into batches done        ...    0.3 sec
Reduced shell lists constructed in    0.3 sec

Total number of grid points                  ...    31838
Total number of batches                      ...      500
Average number of points per batch           ...       63
Average number of grid points per atom       ...    10613
Average number of shells per batch           ...     5.18 (10.80%)
Average number of basis functions per batch  ...    11.36 ( 6.76%)
Average number of large shells per batch     ...     3.32 (64.04%)
Average number of large basis fcns per batch ...     6.68 (58.80%)
Average number of aux-shells per batch       ...     5.18 ( 3.53%)
Average number of aux functions per batch    ...    11.36 ( 1.49%)
Maximum spatial batch extension              ...  27.01, 22.64, 31.14 au
Average spatial batch extension              ...   0.75,  0.63,  0.73 au

Time for grid setup =    0.345 sec

------------------------------
INITIAL GUESS: MODEL POTENTIAL
------------------------------
Loading Hartree-Fock densities                     ... done
  calling /sw/apps/orca/orca_4_2_0_linux_x86-64_openmpi314/orca Ag03C1_D3H_atom47.inp > Ag03C1_D3H_atom47.out in order to generate an atomic fitting density for atom 0 (Ag with ECP) on-the-fly... 
    atom 0 (Ag), assumed electronic state with S=2: 1s2 2s2 2p6 3s2 3p6 4s2 3d10 4p6 5s2 4d9           ... done
Calculating cut-offs                               ... done
Setting up the integral package                    ... done
Initializing the effective Hamiltonian             ... done
Starting the Coulomb interaction                   ... done (   0.0 sec)
Reading the grid                                   ... done
Mapping shells                                     ... done
Starting the XC term evaluation                    ... done (   0.0 sec)
  promolecular density results
     # of electrons  =    141.001729661
     EX              =   -432.257517252
     EC              =     -2.709136641
     EX+EC           =   -434.966653893
Transforming the Hamiltonian                       ... done (   0.0 sec)
Diagonalizing the Hamiltonian                      ... done (   0.0 sec)
Back transforming the eigenvectors                 ... done (   0.0 sec)
Now organizing SCF variables                       ... done
                      ------------------
                      INITIAL GUESS DONE (   1.9 sec)
                      ------------------
--------------
SCF ITERATIONS
--------------
ITER       Energy         Delta-E        Max-DP      RMS-DP      [F,P]     Damp
  0   -439.7405397659   0.000000000000 0.09815506  0.00189074  0.4930499 0.7000
  1   -439.4970884510   0.243451314888 0.06837914  0.00137765  0.3428998 0.7000
  2   -439.6114675977  -0.114379146677 0.03400120  0.00065512  0.2254956 0.7000
                               ***Turning on DIIS***
  3   -439.7843040571  -0.172836459467 0.01604753  0.00031302  0.1510431 0.7000
  4   -439.8886855069  -0.104381449780 0.00833974  0.00028072  0.1047596 0.7000
  5   -439.9410108414  -0.052325334523 0.03519844  0.00082075  0.0755381 0.0000
  6   -439.9141056096   0.026905231813 0.00556829  0.00018456  0.0180801 0.0000
  7   -439.9154993531  -0.001393743429 0.00414476  0.00009609  0.0055346 0.0000
  8   -439.9156574457  -0.000158092614 0.00098090  0.00004007  0.0020544 0.0000
  9   -439.9156792794  -0.000021833764 0.00097531  0.00002755  0.0004605 0.0000
 10   -439.9156813455  -0.000002066071 0.00023251  0.00000518  0.0000455 0.0000
 11   -439.9156814027  -0.000000057185 0.00003564  0.00000091  0.0000389 0.0000
 12   -439.9156814119  -0.000000009188 0.00002599  0.00000057  0.0000078 0.0000
 13   -439.9156814132  -0.000000001286 0.00000762  0.00000014  0.0000020 0.0000
                 **** Energy Check signals convergence ****

               *****************************************************
               *                     SUCCESS                       *
               *           SCF CONVERGED AFTER  14 CYCLES          *
               *****************************************************


----------------
TOTAL SCF ENERGY
----------------

Total Energy       :         -439.91568141 Eh          -11970.71427 eV

Components:
Nuclear Repulsion  :          216.27810151 Eh            5885.22634 eV
Electronic Energy  :         -656.19378292 Eh          -17855.94061 eV
One Electron Energy:        -1205.44330133 Eh          -32801.77984 eV
Two Electron Energy:          549.24951841 Eh           14945.83923 eV

Virial components:
Potential Energy   :         -609.26558535 Eh          -16578.95944 eV
Kinetic Energy     :          169.34990393 Eh            4608.24516 eV
Virial Ratio       :            3.59767305


DFT components:
N(Alpha)           :       27.999983712229 electrons
N(Beta)            :       27.999983712229 electrons
N(Total)           :       55.999967424457 electrons
E(X)               :      -18.868524762482 Eh       
E(C)               :       -1.562870780782 Eh       
E(XC)              :      -20.431395543264 Eh       
DFET-embed. en.    :        0.000000000000 Eh       

---------------
SCF CONVERGENCE
---------------

  Last Energy change         ...   -8.6459e-11  Tolerance :   1.0000e-08
  Last MAX-Density change    ...    1.3645e-06  Tolerance :   1.0000e-07
  Last RMS-Density change    ...    2.4004e-08  Tolerance :   5.0000e-09
  Last DIIS Error            ...    4.1833e-07  Tolerance :   5.0000e-07

             **** THE GBW FILE WAS UPDATED (Ag03C1_D3H.gbw) ****
             **** DENSITY FILE WAS UPDATED (Ag03C1_D3H.scfp) ****
             **** ENERGY FILE WAS UPDATED (Ag03C1_D3H.en.tmp) ****
             **** THE GBW FILE WAS UPDATED (Ag03C1_D3H.gbw) ****
             **** DENSITY FILE WAS UPDATED (Ag03C1_D3H.scfp) ****
----------------
ORBITAL ENERGIES
----------------

  NO   OCC          E(Eh)            E(eV) 
   0   2.0000      -4.173382      -113.5635 
   1   2.0000      -4.172775      -113.5470 
   2   2.0000      -4.172773      -113.5469 
   3   2.0000      -2.713120       -73.8277 
   4   2.0000      -2.710009       -73.7431 
   5   2.0000      -2.710006       -73.7430 
   6   2.0000      -2.706489       -73.6473 
   7   2.0000      -2.706378       -73.6443 
   8   2.0000      -2.706122       -73.6373 
   9   2.0000      -2.706118       -73.6372 
  10   2.0000      -2.705759       -73.6274 
  11   2.0000      -2.705758       -73.6274 
  12   2.0000      -0.643809       -17.5189 
  13   2.0000      -0.626904       -17.0589 
  14   2.0000      -0.626902       -17.0589 
  15   2.0000      -0.621900       -16.9228 
  16   2.0000      -0.607360       -16.5271 
  17   2.0000      -0.604210       -16.4414 
  18   2.0000      -0.604205       -16.4413 
  19   2.0000      -0.584125       -15.8948 
  20   2.0000      -0.584124       -15.8948 
  21   2.0000      -0.580889       -15.8068 
  22   2.0000      -0.576964       -15.7000 
  23   2.0000      -0.576950       -15.6996 
  24   2.0000      -0.574823       -15.6417 
  25   2.0000      -0.574813       -15.6415 
  26   2.0000      -0.554623       -15.0921 
  27   2.0000      -0.441764       -12.0210 
  28   0.0000      -0.222266        -6.0482 
  29   0.0000      -0.222265        -6.0481 
  30   0.0000      -0.162410        -4.4194 
  31   0.0000      -0.129417        -3.5216 
  32   0.0000      -0.114318        -3.1107 
  33   0.0000      -0.114317        -3.1107 
  34   0.0000      -0.076166        -2.0726 
  35   0.0000      -0.076166        -2.0726 
  36   0.0000      -0.019212        -0.5228 
  37   0.0000      -0.019211        -0.5227 
  38   0.0000      -0.019202        -0.5225 
  39   0.0000      -0.001133        -0.0308 
  40   0.0000       0.057969         1.5774 
  41   0.0000       0.057970         1.5774 
  42   0.0000       0.058972         1.6047 
  43   0.0000       0.059534         1.6200 
  44   0.0000       0.081847         2.2272 
  45   0.0000       0.081848         2.2272 
  46   0.0000       0.126997         3.4558 
  47   0.0000       0.126998         3.4558 
  48   0.0000       0.197733         5.3806 
  49   0.0000       0.249161         6.7800 
  50   0.0000       0.259418         7.0591 
  51   0.0000       0.259421         7.0592 
  52   0.0000       0.283339         7.7100 
  53   0.0000       0.283341         7.7101 
  54   0.0000       0.297075         8.0838 
  55   0.0000       0.385423        10.4879 
  56   0.0000       0.385424        10.4879 
  57   0.0000       0.424271        11.5450 
  58   0.0000       0.452122        12.3029 
  59   0.0000       0.481684        13.1073 
  60   0.0000       0.481687        13.1074 
  61   0.0000       0.493234        13.4216 
  62   0.0000       0.493237        13.4217 
  63   0.0000       0.576672        15.6920 
  64   0.0000       0.576677        15.6922 
  65   0.0000       0.621057        16.8998 
  66   0.0000       1.404664        38.2229 
  67   0.0000       1.404667        38.2229 
  68   0.0000       1.440879        39.2083 
  69   0.0000       1.451642        39.5012 
  70   0.0000       1.483029        40.3553 
  71   0.0000       1.484794        40.4033 
  72   0.0000       1.484805        40.4036 
  73   0.0000       1.511927        41.1416 
  74   0.0000       1.511933        41.1418 
  75   0.0000       1.515071        41.2272 
  76   0.0000       1.530422        41.6449 
  77   0.0000       1.530433        41.6452 
  78   0.0000       1.531741        41.6808 
  79   0.0000       1.540787        41.9270 
  80   0.0000       1.540790        41.9270 
  81   0.0000       1.559077        42.4247 
  82   0.0000       1.559079        42.4247 
  83   0.0000       1.564521        42.5728 
  84   0.0000       1.575367        42.8679 
  85   0.0000       1.575371        42.8680 
  86   0.0000       1.585553        43.1451 
  87   0.0000       1.626494        44.2592 
  88   0.0000       1.642500        44.6947 
  89   0.0000       1.642515        44.6951 
  90   0.0000       1.668513        45.4025 
  91   0.0000       1.670450        45.4552 
  92   0.0000       1.670456        45.4554 
  93   0.0000       1.703317        46.3496 
  94   0.0000       1.703320        46.3497 
  95   0.0000       1.853397        50.4335 
  96   0.0000       1.921205        52.2786 
  97   0.0000       2.003084        54.5067 
  98   0.0000       2.013076        54.7786 
  99   0.0000       2.013099        54.7792 
 100   0.0000       2.045044        55.6485 
 101   0.0000       2.045068        55.6491 
 102   0.0000       2.048437        55.7408 
 103   0.0000       2.061978        56.1093 
 104   0.0000       2.072123        56.3853 
 105   0.0000       2.072167        56.3865 
 106   0.0000       2.090791        56.8933 
 107   0.0000       2.090842        56.8947 
 108   0.0000       2.193354        59.6842 
 109   0.0000       2.193387        59.6851 
 110   0.0000       2.223673        60.5092 
 111   0.0000       2.336699        63.5848 
 112   0.0000       2.518276        68.5258 
 113   0.0000       2.518277        68.5258 
 114   0.0000       4.822290       131.2212 
 115   0.0000       4.838616       131.6654 
 116   0.0000       4.838647       131.6663 
 117   0.0000       4.849242       131.9546 
 118   0.0000       4.851771       132.0234 
 119   0.0000       4.851816       132.0246 
 120   0.0000       4.859128       132.2236 
 121   0.0000       4.874641       132.6457 
 122   0.0000       4.878644       132.7546 
 123   0.0000       4.878667       132.7553 
 124   0.0000       4.887053       132.9835 
 125   0.0000       4.887096       132.9847 
 126   0.0000       4.892204       133.1236 
 127   0.0000       4.934889       134.2852 
 128   0.0000       4.956598       134.8759 
 129   0.0000       4.956634       134.8769 
 130   0.0000       4.958438       134.9259 
 131   0.0000       4.958538       134.9287 
 132   0.0000       5.113277       139.1393 
 133   0.0000       5.113283       139.1395 
 134   0.0000       5.130848       139.6175 
 135   0.0000       5.587623       152.0470 
 136   0.0000       5.588824       152.0796 
 137   0.0000       5.588868       152.0808 
 138   0.0000       5.589016       152.0849 
 139   0.0000       5.589151       152.0885 
 140   0.0000       5.589508       152.0983 
 141   0.0000       5.589596       152.1006 
 142   0.0000       5.589777       152.1056 
 143   0.0000       5.589815       152.1066 
 144   0.0000       5.590054       152.1131 
 145   0.0000       5.590187       152.1167 
 146   0.0000       5.590235       152.1180 
 147   0.0000       5.590798       152.1334 
 148   0.0000       5.590932       152.1370 
 149   0.0000       5.591398       152.1497 
 150   0.0000       5.591739       152.1590 
 151   0.0000       5.592131       152.1696 
 152   0.0000       5.592394       152.1768 
 153   0.0000       5.592401       152.1770 
 154   0.0000       5.592464       152.1787 
 155   0.0000       5.592546       152.1809 
 156   0.0000       5.592708       152.1853 
 157   0.0000       5.593359       152.2030 
 158   0.0000       5.593514       152.2073 
 159   0.0000       5.595436       152.2596 
 160   0.0000       5.603400       152.4763 
 161   0.0000       5.603461       152.4779 
 162   0.0000      33.345665       907.3817 
 163   0.0000      33.680837       916.5022 
 164   0.0000      33.680837       916.5022 
 165   0.0000     109.281906      2973.7118 
 166   0.0000     109.386887      2976.5685 
 167   0.0000     109.386891      2976.5686 

                    ********************************
                    * MULLIKEN POPULATION ANALYSIS *
                    ********************************

-----------------------
MULLIKEN ATOMIC CHARGES
-----------------------
   0 Ag:    0.333333
   1 Ag:    0.333334
   2 Ag:    0.333333
Sum of atomic charges:    1.0000000

--------------------------------
MULLIKEN REDUCED ORBITAL CHARGES
--------------------------------
  0 Ags       :     2.622257  s :     2.622257
      pz      :     2.006764  p :     6.096010
      px      :     2.007905
      py      :     2.081341
      dz2     :     1.994184  d :     9.946766
      dxz     :     1.997786
      dyz     :     1.995045
      dx2y2   :     1.990174
      dxy     :     1.969578
      f0      :     0.000135  f :     0.001613
      f+1     :     0.000096
      f-1     :     0.000286
      f+2     :     0.000086
      f-2     :     0.000178
      f+3     :     0.000507
      f-3     :     0.000324
      g0      :     0.000002  g :     0.000020
      g+1     :     0.000001
      g-1     :     0.000002
      g+2     :     0.000001
      g-2     :     0.000003
      g+3     :     0.000002
      g-3     :     0.000000
      g+4     :     0.000004
      g-4     :     0.000005
  1 Ags       :     2.622258  s :     2.622258
      pz      :     2.006764  p :     6.096012
      px      :     2.062984
      py      :     2.026264
      dz2     :     1.994182  d :     9.946763
      dxz     :     1.995731
      dyz     :     1.997100
      dx2y2   :     1.974726
      dxy     :     1.985023
      f0      :     0.000135  f :     0.001613
      f+1     :     0.000239
      f-1     :     0.000144
      f+2     :     0.000155
      f-2     :     0.000109
      f+3     :     0.000507
      f-3     :     0.000324
      g0      :     0.000002  g :     0.000020
      g+1     :     0.000002
      g-1     :     0.000001
      g+2     :     0.000002
      g-2     :     0.000002
      g+3     :     0.000002
      g-3     :     0.000000
      g+4     :     0.000005
      g-4     :     0.000004
  2 Ags       :     2.622259  s :     2.622259
      pz      :     2.006764  p :     6.096012
      px      :     2.062984
      py      :     2.026264
      dz2     :     1.994182  d :     9.946763
      dxz     :     1.995731
      dyz     :     1.997100
      dx2y2   :     1.974726
      dxy     :     1.985023
      f0      :     0.000135  f :     0.001613
      f+1     :     0.000239
      f-1     :     0.000144
      f+2     :     0.000155
      f-2     :     0.000109
      f+3     :     0.000507
      f-3     :     0.000324
      g0      :     0.000002  g :     0.000020
      g+1     :     0.000002
      g-1     :     0.000001
      g+2     :     0.000002
      g-2     :     0.000002
      g+3     :     0.000002
      g-3     :     0.000000
      g+4     :     0.000005
      g-4     :     0.000004


                     *******************************
                     * LOEWDIN POPULATION ANALYSIS *
                     *******************************

----------------------
LOEWDIN ATOMIC CHARGES
----------------------
   0 Ag:    0.333332
   1 Ag:    0.333334
   2 Ag:    0.333334

-------------------------------
LOEWDIN REDUCED ORBITAL CHARGES
-------------------------------
  0 Ags       :     2.526401  s :     2.526401
      pz      :     2.009500  p :     6.174306
      px      :     2.018085
      py      :     2.146720
      dz2     :     2.001066  d :     9.963651
      dxz     :     1.997134
      dyz     :     1.992817
      dx2y2   :     1.992364
      dxy     :     1.980270
      f0      :     0.000181  f :     0.002284
      f+1     :     0.000146
      f-1     :     0.000353
      f+2     :     0.000108
      f-2     :     0.000253
      f+3     :     0.000819
      f-3     :     0.000424
      g0      :     0.000002  g :     0.000026
      g+1     :     0.000001
      g-1     :     0.000002
      g+2     :     0.000001
      g-2     :     0.000004
      g+3     :     0.000003
      g-3     :     0.000000
      g+4     :     0.000005
      g-4     :     0.000007
  1 Ags       :     2.526396  s :     2.526396
      pz      :     2.009500  p :     6.174307
      px      :     2.114563
      py      :     2.050244
      dz2     :     2.001066  d :     9.963652
      dxz     :     1.993898
      dyz     :     1.996055
      dx2y2   :     1.983294
      dxy     :     1.989340
      f0      :     0.000181  f :     0.002284
      f+1     :     0.000302
      f-1     :     0.000198
      f+2     :     0.000216
      f-2     :     0.000144
      f+3     :     0.000819
      f-3     :     0.000424
      g0      :     0.000002  g :     0.000026
      g+1     :     0.000002
      g-1     :     0.000001
      g+2     :     0.000003
      g-2     :     0.000002
      g+3     :     0.000003
      g-3     :     0.000000
      g+4     :     0.000007
      g-4     :     0.000005
  2 Ags       :     2.526396  s :     2.526396
      pz      :     2.009500  p :     6.174307
      px      :     2.114563
      py      :     2.050244
      dz2     :     2.001066  d :     9.963652
      dxz     :     1.993898
      dyz     :     1.996055
      dx2y2   :     1.983294
      dxy     :     1.989340
      f0      :     0.000181  f :     0.002284
      f+1     :     0.000302
      f-1     :     0.000198
      f+2     :     0.000216
      f-2     :     0.000144
      f+3     :     0.000819
      f-3     :     0.000424
      g0      :     0.000002  g :     0.000026
      g+1     :     0.000002
      g-1     :     0.000001
      g+2     :     0.000003
      g-2     :     0.000002
      g+3     :     0.000003
      g-3     :     0.000000
      g+4     :     0.000007
      g-4     :     0.000005


                      *****************************
                      * MAYER POPULATION ANALYSIS *
                      *****************************

  NA   - Mulliken gross atomic population
  ZA   - Total nuclear charge
  QA   - Mulliken gross atomic charge
  VA   - Mayer's total valence
  BVA  - Mayer's bonded valence
  FA   - Mayer's free valence

  ATOM       NA         ZA         QA         VA         BVA        FA
  0 Ag    18.6667    19.0000     0.3333     1.0283     1.0283    -0.0000
  1 Ag    18.6667    19.0000     0.3333     1.0283     1.0283     0.0000
  2 Ag    18.6667    19.0000     0.3333     1.0283     1.0283     0.0000

  Mayer bond orders larger than 0.100000
B(  0-Ag,  1-Ag) :   0.5142 B(  0-Ag,  2-Ag) :   0.5142 B(  1-Ag,  2-Ag) :   0.5141 


-------
TIMINGS
-------

Total SCF time: 0 days 0 hours 0 min 5 sec 

Total time                  ....       5.722 sec
Sum of individual times     ....       5.575 sec  ( 97.4%)

Fock matrix formation       ....       3.610 sec  ( 63.1%)
  XC integration            ....       0.528 sec  ( 14.6% of F)
    Basis function eval.    ....       0.057 sec  ( 10.8% of XC)
    Density eval.           ....       0.038 sec  (  7.2% of XC)
    XC-Functional eval.     ....       0.014 sec  (  2.6% of XC)
    XC-Potential eval.      ....       0.066 sec  ( 12.5% of XC)
Diagonalization             ....       0.054 sec  (  0.9%)
Density matrix formation    ....       0.009 sec  (  0.2%)
Population analysis         ....       0.004 sec  (  0.1%)
Initial guess               ....       1.529 sec  ( 26.7%)
Orbital Transformation      ....       0.000 sec  (  0.0%)
Orbital Orthonormalization  ....       0.000 sec  (  0.0%)
DIIS solution               ....       0.023 sec  (  0.4%)
Grid generation             ....       0.345 sec  (  6.0%)


           ************************************************************
           *        Program running with 24 parallel MPI-processes    *
           *              working on a common directory               *
           ************************************************************

------------------------------------------------------------------------------
                                ORCA  MP2 
------------------------------------------------------------------------------

Freezing NCore=0 chemical core electrons

----------------------
RI-MP2 ENERGY+GRADIENT
----------------------
Dimension of the basis                    ...  168
Memory devoted to MP2                     ... 5000 MB   
Data format for buffers                   ... DOUBLE
Compression type for matrix containers    ... UNCOMPRESSED
Overall scaling of the MP2 energy         ...   2.700e-01
Calculating two index integrals           ... done (    0.011 sec)
Cholesky decomposition of the V-matrix    ... done
Cholesky decomposition of V**-1           ... done (    0.009 sec)

-----------------
RI-TRANSFORMATION (AUX index driven)
-----------------

Dimension of the orbital-basis         ... 168
Dimension of the aux-basis             ... 528
Transformation of internal MOs         ...    0-  27
Transformation of internal/external MOs...    0-  27 to   28- 167
Number Format for Storage              ... Double (8 Byte)
Integral mode                          ... Direct

First Phase: integral generation and transformation of MO indices
  Aux angular momentum 0               ... done (    0.001 sec)
  Aux angular momentum 1               ... done (    0.001 sec)
  Aux angular momentum 2               ... done (    0.002 sec)
  Aux angular momentum 3               ... done (    0.003 sec)
  Aux angular momentum 4               ... done (    0.005 sec)
  Aux angular momentum 5               ... done (    0.007 sec)
  Aux angular momentum 6               ... done (    0.011 sec)
Closing buffer VIJ ( 0.00 GB; CompressionRatio= 1.00)
Closing buffer VIA ( 0.02 GB; CompressionRatio= 1.00)
  Phase 1 completed in     0.127 sec
Second Phase: sorting and transformation of aux index

IJ-Transformation
Memory available                       ... 4992 MB 
Max. # MO pairs treated in a batch     ... 2    
# of internal orbitals                 ... 28
# batches for internal orbitals        ... 1
Closing buffer IJV ( 0.00 GB; CompressionRatio= 1.00)
(ij|v) transformation done in     0.003 sec

IA-Transformation
Memory available                       ... 4992 MB 
Max. # MO pairs treated in a batch     ... 2    
# of internal orbitals                 ... 28
# batches for internal orbitals        ... 1
Closing buffer IAV ( 0.00 GB; CompressionRatio= 1.00)
(ia|v) transformation done in     0.011 sec

  Phase 2 completed in     0.036 sec
RI-Integral transformation completed in     0.165 sec
Opening buffers                              ... done

Starting loop over batches of integrals:

Operator 0  - window                       ... (  0- 27)x( 28-167)
Operator 0  - Memory available             ...  5000 MB
Operator 0  - Memory needed per MO         ...   1.1 MB
Operator 0  - Number of orbitals per batch ... 2
Operator 0  - Number of batches            ... 1

OPERATOR  0   PASS   0:  MOs     0 ...    1 +    2 ...    3 +    4 ...    5 +    6 ...    7
                            +    8 ...    9 +   10 ...   11 +   12 ...   13 +   14 ...   15
                            +   16 ...   17 +   18 ...   19 +   20 ...   21 +   22 ...   23
                            +   24 ...   25 +   26 ...   27
  Reading integrals       ... ok
Closing buffer GIPV ( 0.00 GB; CompressionRatio= 1.00)
Time spent in pair loops =     0.379 sec

-----------------------------------------------
 RI-MP2 CORRELATION ENERGY:     -0.623188034 Eh
-----------------------------------------------


---------------------
MP2 DENSITY FORMATION
---------------------

Completing the external part of the density      ... done
Storing the unrelaxed density                    ... done

Calculating the xc-kernel                        ... done
Calculating G(D)                                 ... done
Completing the Lagrangian                        ... done
Solving the Z-vector equations                   ... 

------------------------------------------------------------------------------
                           ORCA CP-SCF CALCULATION
------------------------------------------------------------------------------

Input orbitals are from        ... Ag03C1_D3H.gbw
Input Perturbation             ... Ag03C1_D3H.pin.tmp
Wavefunction output            ... Ag03C1_D3H.pout.tmp
Perturbation mode              ... Real perturbation (singlet)
Solver                         ... POPLE
Max. number of iterations      ... 128
Convergence tolerance          ... 1.000e-08
Integral handling              ... Direct
Number of perturbations        ... 1
Number of operators            ... 1
Orbital ranges used for CP-SCF:
 Operator 0:  Orbitals   0... 27  to  28...167
DFT calculation                         ... on
Exchange functional (SCF)               ... B88
Exchange functional (CP-SCF)            ... B88
   X-Alpha parameter    XAlpha (SCF)    ...  0.666667
   X-Alpha parameter    XAlpha (CP-SCF) ...  0.666667
   Becke's b parameter  XBeta (SCF)     ...  0.004200
   Becke's b parameter  XBeta (CP-SCF)  ...  0.004200
Correlation functional (SCF)            ... LYP
Correlation functional (CP-SCF)         ... LYP
 LDA part of GGA corr.  LDAOpt (SCF)    ... VWN-3
 LDA part of GGA corr.  LDAOpt (CP-SCF) ... VWN-3
Hybrid DFT                              ... on
   Exchange mixing (SCF)                ...  0.530
   Exchange mixing (CP-SCF)             ...  0.530
   GGA exch. scaling(SCF)               ...  0.470
   GGA exch. scaling (CP-SCF)           ...  0.470
   GGA corr. scaling (SCF)              ...  0.730
   GGA corr. scaling (CP-SCF)           ...  0.730
Variables per vector in CP-SCF ... 3920
Number of vectors sought       ... 1
Recalculating density on grid  ... done
Calculating the xc-kernel      ... done
     CP-SCF ITERATION   0: 
     CP-SCF ITERATION   1:      0.000121578483
     CP-SCF ITERATION   2:      0.000013658282
     CP-SCF ITERATION   3:      0.000002122325
     CP-SCF ITERATION   4:      0.000000050702
     CP-SCF ITERATION   5:      0.000000003146
done
Finalizing the relaxed density                   ... done
Transforming P to the AO basis                   ... done
Storing the relaxed density                      ... done

------------------------------------
ENERGY WEIGHTED DENSITY FINALIZATION
------------------------------------

Gathering the parts of the W-matrix              ... done
Forming the Z-density                            ... done
Transforming Z to the AO basis                   ... done
Calculating G(Z)                                 ... done
Finalizing the W-matrix                          ... done
Transforming W to the AO basis and storing       ... done
Entering the RIJONX and RIJCOSX sections
Starting the three-index derivative integrals:
Operator 0  - Memory available             ...  5000 MB
Operator 0  - Memory needed per MO         ...   1.4 MB
Operator 0  - Number of orbitals per batch ... 2
Operator 0  - Number of batches            ... 1

OPERATOR  0   PASS   0:  MOs     0 ...    1 +    2 ...    3 +    4 ...    5 +    6 ...    7
                            +    8 ...    9 +   10 ...   11 +   12 ...   13 +   14 ...   15
                            +   16 ...   17 +   18 ...   19 +   20 ...   21 +   22 ...   23
                            +   24 ...   25 +   26 ...   27

----------------------------------
MP2 DERIVATIVE INTEGRAL GENERATION
----------------------------------


Input Correlated Electron Density   ... Ag03C1_D3H.pmp2re
Input Energy Weighted Density       ... Ag03C1_D3H.wmp2.tmp
Input SCF Electron Density          ... Ag03C1_D3H.scfp

One-Electron Terms    ...
  ECP gradient                                           ... One-Electron Terms done
Prescreening matrices              ... done
Exchange-correlation gradient    ... done
Dispersion correction            ... done

                *********************************************
                * UNRELAXED MP2 DENSITY POPULATION ANALYSIS *
                *********************************************

------------------------------------------------------------------------------
                           ORCA POPULATION ANALYSIS
------------------------------------------------------------------------------
Input electron density              ... Ag03C1_D3H.pmp2ur
BaseName (.gbw .S,...)              ... Ag03C1_D3H

                    ********************************
                    * MULLIKEN POPULATION ANALYSIS *
                    ********************************

-----------------------
MULLIKEN ATOMIC CHARGES
-----------------------
   0 Ag:    0.333333
   1 Ag:    0.333334
   2 Ag:    0.333333
Sum of atomic charges:    1.0000000

--------------------------------
MULLIKEN REDUCED ORBITAL CHARGES
--------------------------------
  0 Ags       :     2.618009  s :     2.618009
      pz      :     2.009517  p :     6.101555
      px      :     2.010902
      py      :     2.081135
      dz2     :     1.986077  d :     9.905942
      dxz     :     1.989845
      dyz     :     1.987278
      dx2y2   :     1.982027
      dxy     :     1.960715
      f0      :     0.005406  f :     0.038558
      f+1     :     0.005372
      f-1     :     0.005547
      f+2     :     0.005362
      f-2     :     0.005458
      f+3     :     0.005793
      f-3     :     0.005620
      g0      :     0.000288  g :     0.002603
      g+1     :     0.000286
      g-1     :     0.000289
      g+2     :     0.000288
      g-2     :     0.000289
      g+3     :     0.000289
      g-3     :     0.000287
      g+4     :     0.000293
      g-4     :     0.000294
  1 Ags       :     2.618009  s :     2.618009
      pz      :     2.009517  p :     6.101556
      px      :     2.063579
      py      :     2.028461
      dz2     :     1.986076  d :     9.905939
      dxz     :     1.987921
      dyz     :     1.989202
      dx2y2   :     1.966043
      dxy     :     1.976697
      f0      :     0.005406  f :     0.038558
      f+1     :     0.005503
      f-1     :     0.005416
      f+2     :     0.005434
      f-2     :     0.005386
      f+3     :     0.005793
      f-3     :     0.005620
      g0      :     0.000288  g :     0.002603
      g+1     :     0.000288
      g-1     :     0.000287
      g+2     :     0.000289
      g-2     :     0.000288
      g+3     :     0.000289
      g-3     :     0.000287
      g+4     :     0.000293
      g-4     :     0.000293
  2 Ags       :     2.618010  s :     2.618010
      pz      :     2.009517  p :     6.101557
      px      :     2.063579
      py      :     2.028461
      dz2     :     1.986076  d :     9.905939
      dxz     :     1.987921
      dyz     :     1.989202
      dx2y2   :     1.966043
      dxy     :     1.976697
      f0      :     0.005406  f :     0.038558
      f+1     :     0.005503
      f-1     :     0.005416
      f+2     :     0.005434
      f-2     :     0.005386
      f+3     :     0.005793
      f-3     :     0.005620
      g0      :     0.000288  g :     0.002603
      g+1     :     0.000288
      g-1     :     0.000287
      g+2     :     0.000289
      g-2     :     0.000288
      g+3     :     0.000289
      g-3     :     0.000287
      g+4     :     0.000293
      g-4     :     0.000293


                     *******************************
                     * LOEWDIN POPULATION ANALYSIS *
                     *******************************

----------------------
LOEWDIN ATOMIC CHARGES
----------------------
   0 Ag:    0.333332
   1 Ag:    0.333334
   2 Ag:    0.333334

-------------------------------
LOEWDIN REDUCED ORBITAL CHARGES
-------------------------------
  0 Ags       :     2.521101  s :     2.521101
      pz      :     2.012216  p :     6.179668
      px      :     2.021719
      py      :     2.145733
      dz2     :     1.993156  d :     9.923880
      dxz     :     1.989210
      dyz     :     1.985051
      dx2y2   :     1.984388
      dxy     :     1.972074
      f0      :     0.005458  f :     0.039410
      f+1     :     0.005435
      f-1     :     0.005651
      f+2     :     0.005386
      f-2     :     0.005543
      f+3     :     0.006206
      f-3     :     0.005731
      g0      :     0.000288  g :     0.002610
      g+1     :     0.000286
      g-1     :     0.000290
      g+2     :     0.000288
      g-2     :     0.000290
      g+3     :     0.000290
      g-3     :     0.000287
      g+4     :     0.000294
      g-4     :     0.000297
  1 Ags       :     2.521096  s :     2.521096
      pz      :     2.012216  p :     6.179670
      px      :     2.114732
      py      :     2.052723
      dz2     :     1.993156  d :     9.923881
      dxz     :     1.986092
      dyz     :     1.988170
      dx2y2   :     1.975154
      dxy     :     1.981309
      f0      :     0.005458  f :     0.039410
      f+1     :     0.005597
      f-1     :     0.005489
      f+2     :     0.005503
      f-2     :     0.005425
      f+3     :     0.006206
      f-3     :     0.005731
      g0      :     0.000288  g :     0.002610
      g+1     :     0.000289
      g-1     :     0.000287
      g+2     :     0.000290
      g-2     :     0.000289
      g+3     :     0.000290
      g-3     :     0.000287
      g+4     :     0.000296
      g-4     :     0.000294
  2 Ags       :     2.521096  s :     2.521096
      pz      :     2.012216  p :     6.179670
      px      :     2.114732
      py      :     2.052723
      dz2     :     1.993156  d :     9.923881
      dxz     :     1.986092
      dyz     :     1.988170
      dx2y2   :     1.975154
      dxy     :     1.981309
      f0      :     0.005458  f :     0.039410
      f+1     :     0.005597
      f-1     :     0.005489
      f+2     :     0.005503
      f-2     :     0.005425
      f+3     :     0.006206
      f-3     :     0.005731
      g0      :     0.000288  g :     0.002610
      g+1     :     0.000289
      g-1     :     0.000287
      g+2     :     0.000290
      g-2     :     0.000289
      g+3     :     0.000290
      g-3     :     0.000287
      g+4     :     0.000296
      g-4     :     0.000294


                      *****************************
                      * MAYER POPULATION ANALYSIS *
                      *****************************

  NA   - Mulliken gross atomic population
  ZA   - Total nuclear charge
  QA   - Mulliken gross atomic charge
  VA   - Mayer's total valence
  BVA  - Mayer's bonded valence
  FA   - Mayer's free valence

  ATOM       NA         ZA         QA         VA         BVA        FA
  0 Ag    18.6667    19.0000     0.3333     1.3665     0.9869     0.3796
  1 Ag    18.6667    19.0000     0.3333     1.3665     0.9869     0.3796
  2 Ag    18.6667    19.0000     0.3333     1.3665     0.9869     0.3796

  Mayer bond orders larger than 0.100000
B(  0-Ag,  1-Ag) :   0.4934 B(  0-Ag,  2-Ag) :   0.4934 B(  1-Ag,  2-Ag) :   0.4934 



                *******************************************
                * RELAXED MP2 DENSITY POPULATION ANALYSIS *
                *******************************************

------------------------------------------------------------------------------
                           ORCA POPULATION ANALYSIS
------------------------------------------------------------------------------
Input electron density              ... Ag03C1_D3H.pmp2re
BaseName (.gbw .S,...)              ... Ag03C1_D3H

                    ********************************
                    * MULLIKEN POPULATION ANALYSIS *
                    ********************************

-----------------------
MULLIKEN ATOMIC CHARGES
-----------------------
   0 Ag:    0.333331
   1 Ag:    0.333335
   2 Ag:    0.333334
Sum of atomic charges:    1.0000000

--------------------------------
MULLIKEN REDUCED ORBITAL CHARGES
--------------------------------
  0 Ags       :     2.636308  s :     2.636308
      pz      :     2.011234  p :     6.096077
      px      :     2.012832
      py      :     2.072010
      dz2     :     1.984546  d :     9.893064
      dxz     :     1.989267
      dyz     :     1.986121
      dx2y2   :     1.979930
      dxy     :     1.953200
      f0      :     0.005413  f :     0.038617
      f+1     :     0.005376
      f-1     :     0.005553
      f+2     :     0.005364
      f-2     :     0.005466
      f+3     :     0.005810
      f-3     :     0.005635
      g0      :     0.000288  g :     0.002604
      g+1     :     0.000286
      g-1     :     0.000290
      g+2     :     0.000288
      g-2     :     0.000289
      g+3     :     0.000289
      g-3     :     0.000287
      g+4     :     0.000293
      g-4     :     0.000294
  1 Ags       :     2.636305  s :     2.636305
      pz      :     2.011234  p :     6.096077
      px      :     2.057217
      py      :     2.027627
      dz2     :     1.984545  d :     9.893061
      dxz     :     1.986909
      dyz     :     1.988480
      dx2y2   :     1.959882
      dxy     :     1.973245
      f0      :     0.005413  f :     0.038617
      f+1     :     0.005509
      f-1     :     0.005421
      f+2     :     0.005440
      f-2     :     0.005389
      f+3     :     0.005810
      f-3     :     0.005635
      g0      :     0.000288  g :     0.002604
      g+1     :     0.000289
      g-1     :     0.000287
      g+2     :     0.000289
      g-2     :     0.000288
      g+3     :     0.000289
      g-3     :     0.000287
      g+4     :     0.000294
      g-4     :     0.000293
  2 Ags       :     2.636306  s :     2.636306
      pz      :     2.011234  p :     6.096078
      px      :     2.057217
      py      :     2.027627
      dz2     :     1.984545  d :     9.893061
      dxz     :     1.986909
      dyz     :     1.988480
      dx2y2   :     1.959882
      dxy     :     1.973245
      f0      :     0.005413  f :     0.038617
      f+1     :     0.005509
      f-1     :     0.005421
      f+2     :     0.005440
      f-2     :     0.005389
      f+3     :     0.005810
      f-3     :     0.005635
      g0      :     0.000288  g :     0.002604
      g+1     :     0.000289
      g-1     :     0.000287
      g+2     :     0.000289
      g-2     :     0.000288
      g+3     :     0.000289
      g-3     :     0.000287
      g+4     :     0.000294
      g-4     :     0.000293


                     *******************************
                     * LOEWDIN POPULATION ANALYSIS *
                     *******************************

----------------------
LOEWDIN ATOMIC CHARGES
----------------------
   0 Ag:    0.333332
   1 Ag:    0.333334
   2 Ag:    0.333334

-------------------------------
LOEWDIN REDUCED ORBITAL CHARGES
-------------------------------
  0 Ags       :     2.530582  s :     2.530582
      pz      :     2.013804  p :     6.178324
      px      :     2.024376
      py      :     2.140144
      dz2     :     1.992950  d :     9.915676
      dxz     :     1.988728
      dyz     :     1.983924
      dx2y2   :     1.982789
      dxy     :     1.967284
      f0      :     0.005466  f :     0.039476
      f+1     :     0.005439
      f-1     :     0.005651
      f+2     :     0.005388
      f-2     :     0.005552
      f+3     :     0.006229
      f-3     :     0.005749
      g0      :     0.000288  g :     0.002611
      g+1     :     0.000286
      g-1     :     0.000290
      g+2     :     0.000288
      g-2     :     0.000290
      g+3     :     0.000290
      g-3     :     0.000288
      g+4     :     0.000294
      g-4     :     0.000297
  1 Ags       :     2.530576  s :     2.530576
      pz      :     2.013804  p :     6.178326
      px      :     2.111204
      py      :     2.053319
      dz2     :     1.992950  d :     9.915677
      dxz     :     1.985127
      dyz     :     1.987527
      dx2y2   :     1.971161
      dxy     :     1.978912
      f0      :     0.005466  f :     0.039476
      f+1     :     0.005598
      f-1     :     0.005492
      f+2     :     0.005511
      f-2     :     0.005429
      f+3     :     0.006229
      f-3     :     0.005749
      g0      :     0.000288  g :     0.002611
      g+1     :     0.000289
      g-1     :     0.000287
      g+2     :     0.000290
      g-2     :     0.000289
      g+3     :     0.000290
      g-3     :     0.000288
      g+4     :     0.000296
      g-4     :     0.000294
  2 Ags       :     2.530576  s :     2.530576
      pz      :     2.013804  p :     6.178326
      px      :     2.111204
      py      :     2.053319
      dz2     :     1.992950  d :     9.915677
      dxz     :     1.985127
      dyz     :     1.987527
      dx2y2   :     1.971161
      dxy     :     1.978912
      f0      :     0.005466  f :     0.039476
      f+1     :     0.005598
      f-1     :     0.005492
      f+2     :     0.005511
      f-2     :     0.005429
      f+3     :     0.006229
      f-3     :     0.005749
      g0      :     0.000288  g :     0.002611
      g+1     :     0.000289
      g-1     :     0.000287
      g+2     :     0.000290
      g-2     :     0.000289
      g+3     :     0.000290
      g-3     :     0.000288
      g+4     :     0.000296
      g-4     :     0.000294


                      *****************************
                      * MAYER POPULATION ANALYSIS *
                      *****************************

  NA   - Mulliken gross atomic population
  ZA   - Total nuclear charge
  QA   - Mulliken gross atomic charge
  VA   - Mayer's total valence
  BVA  - Mayer's bonded valence
  FA   - Mayer's free valence

  ATOM       NA         ZA         QA         VA         BVA        FA
  0 Ag    18.6667    19.0000     0.3333     1.3951     1.0196     0.3755
  1 Ag    18.6667    19.0000     0.3333     1.3951     1.0196     0.3755
  2 Ag    18.6667    19.0000     0.3333     1.3951     1.0196     0.3755

  Mayer bond orders larger than 0.100000
B(  0-Ag,  1-Ag) :   0.5098 B(  0-Ag,  2-Ag) :   0.5098 B(  1-Ag,  2-Ag) :   0.5098 



-------
TIMINGS
-------

Total time                :   12.714 sec
Integral trafo            :    0.178 sec (  1.4%)
I/O of integrals          :    0.003 sec (  0.0%)
K(i,j) Operators          :    0.020 sec (  0.2%)
T(i,j) pair energies      :    0.005 sec (  0.0%)
V-calculation             :    0.011 sec (  0.1%)
V**(-1/2)                 :    0.009 sec (  0.1%)
Gamma(ia|P)               :    0.016 sec (  0.1%)
Gamma-Trafo               :    0.008 sec (  0.1%)
D(virtual)                :    0.001 sec (  0.0%)
D(internal)               :    0.012 sec (  0.1%)
W(virtual)                :    0.001 sec (  0.0%)
W(internal)               :    0.042 sec (  0.3%)
L(virtual)                :    0.221 sec (  1.7%)
L(internal)               :    0.001 sec (  0.0%)
G(D)                      :    1.016 sec (  8.0%)
G(Z)                      :    1.011 sec (  8.0%)
Z-Vector Solution         :    4.186 sec ( 32.9%)
Z-Vector Solution         :    4.186 sec ( 32.9%)
3-Index Derivative 
+ Separable RIJ part      :    1.351 sec ( 10.6%)
2-Index Derivative 
+ Separable RIJ part      :    0.007 sec (  0.1%)
Separable Gradient (X)    :    4.082 sec ( 32.1%)


---------------------------------------
MP2 TOTAL ENERGY:     -440.538869448 Eh
---------------------------------------

-----------------------------------
NORM OF THE MP2 GRADIENT:  0.010445
-----------------------------------


-------------------------------------------------------------------------------
                          DFT DISPERSION CORRECTION                            
                                                                               
                              DFTD3 V3.1  Rev 1                                
                          USING Becke-Johnson damping                          
-------------------------------------------------------------------------------
The B2PLYP functional is recognized
Active option DFTDOPT                   ...         4   

molecular C6(AA) [au] = 2417.546456 


            DFT-D V3
 parameters
 s6 scaling factor         :     0.6400 
 a1 scaling factor         :     0.3065 
 s8 scaling factor         :     0.9147 
 a2 scaling factor         :     5.0570 
 ad hoc parameters k1-k3   :    16.0000     1.3333    -4.0000 

 Edisp/kcal,au: -3.732487490859  -0.005948096797 
 E6   /kcal   :  -1.209681755 
 E8   /kcal   :  -2.522805736 
 % E8         :  67.590467264 

-------------------------   ----------------
Dispersion correction           -0.005948097
-------------------------   ----------------


-------------------------   --------------------
FINAL SINGLE POINT ENERGY      -440.544817544337
-------------------------   --------------------

------------------------------------------------------------------------------
                         ORCA GEOMETRY RELAXATION STEP
------------------------------------------------------------------------------

Reading the OPT-File                    .... done
Getting information on internals        .... done
Copying old internal coords+grads       .... done
Making the new internal coordinates     .... (new redundants).... done
Validating the new internal coordinates .... (new redundants).... done
Calculating the B-matrix                .... done
Calculating the G,G- and P matrices     .... done
Transforming gradient to internals      .... done
Projecting the internal gradient        .... done
Number of atoms                         ....   3
Number of internal coordinates          ....   6
Current Energy                          ....  -440.544817544 Eh
Current gradient norm                   ....     0.010444633 Eh/bohr
Maximum allowed component of the step   ....  0.300
Current trust radius                    ....  0.300
Evaluating the initial hessian          ....  (Almloef) done
Projecting the Hessian                  .... done
Forming the augmented Hessian           .... done
Diagonalizing the augmented Hessian     .... done
Last element of RFO vector              ....  0.999953495
Lowest eigenvalues of augmented Hessian:
 -0.000058160  0.625258560  0.629060144  0.629060271 1000.000000000
Length of the computed step             ....  0.009644533
The final length of the internal step   ....  0.009644533
Converting the step to cartesian space:
 Initial RMS(Int)=    0.0039373640
Transforming coordinates:
 Iter   0:  RMS(Cart)=    0.0018562303 RMS(Int)=    0.0039373643
 Iter   1:  RMS(Cart)=    0.0000000040 RMS(Int)=    0.0000000063
done
Storing new coordinates                 .... done

                                .--------------------.
          ----------------------|Geometry convergence|-------------------------
          Item                value                   Tolerance       Converged
          ---------------------------------------------------------------------
          RMS gradient        0.0024618735            0.0001000000      NO
          MAX gradient        0.0035136050            0.0003000000      NO
          RMS step            0.0039373640            0.0020000000      NO
          MAX step            0.0056191265            0.0040000000      NO
          ........................................................
          Max(Bonds)      0.0030      Max(Angles)    0.00
          Max(Dihed)        0.00      Max(Improp)    0.00
          ---------------------------------------------------------------------

The optimization has not yet converged - more geometry cycles are needed


    ---------------------------------------------------------------------------
                         Redundant Internal Coordinates
                            (Angstroem and degrees)

        Definition                    Value    dE/dq     Step     New-Value
    ----------------------------------------------------------------------------
     1. B(Ag  1,Ag  0)                2.6498 -0.003514  0.0030    2.6528   
     2. B(Ag  2,Ag  1)                2.6498 -0.003417  0.0029    2.6527   
     3. B(Ag  2,Ag  0)                2.6498 -0.003514  0.0030    2.6528   
     4. A(Ag  1,Ag  0,Ag  2)           60.00  0.000022   -0.00     60.00   
     5. A(Ag  0,Ag  1,Ag  2)           60.00 -0.000011    0.00     60.00   
     6. A(Ag  0,Ag  2,Ag  1)           60.00 -0.000011    0.00     60.00   
    ----------------------------------------------------------------------------

         *************************************************************
         *                GEOMETRY OPTIMIZATION CYCLE   2            *
         *************************************************************
---------------------------------
CARTESIAN COORDINATES (ANGSTROEM)
---------------------------------
  Ag     0.000000    1.531609    0.000000
  Ag     1.326358   -0.765804    0.000000
  Ag    -1.326358   -0.765804    0.000000

----------------------------
CARTESIAN COORDINATES (A.U.)
----------------------------
  NO LB      ZA    FRAG     MASS         X           Y           Z
   0 Ag   19.0000*   0   107.870    0.000000    2.894322    0.000000
   1 Ag   19.0000*   0   107.870    2.506453   -1.447160    0.000000
   2 Ag   19.0000*   0   107.870   -2.506453   -1.447160    0.000000
* core charge reduced due to ECP

--------------------------------
INTERNAL COORDINATES (ANGSTROEM)
--------------------------------
 Ag     0   0   0     0.000000000000     0.00000000     0.00000000
 Ag     1   0   0     2.652797603632     0.00000000     0.00000000
 Ag     2   1   0     2.652715933989    60.00101840     0.00000000

---------------------------
INTERNAL COORDINATES (A.U.)
---------------------------
 Ag     0   0   0     0.000000000000     0.00000000     0.00000000
 Ag     1   0   0     5.013060959587     0.00000000     0.00000000
 Ag     2   1   0     5.012906626328    60.00101840     0.00000000



           ************************************************************
           *        Program running with 24 parallel MPI-processes    *
           *              working on a common directory               *
           ************************************************************
 One Electron integrals                  ... done
 Pre-screening matrix                    ... done


           ************************************************************
           *        Program running with 24 parallel MPI-processes    *
           *              working on a common directory               *
           ************************************************************

Diagonalization of the overlap matrix:
Smallest eigenvalue                        ... 2.911e-03
Time for diagonalization                   ...    0.006 sec
Threshold for overlap eigenvalues          ... 1.000e-08
Number of eigenvalues below threshold      ... 0
Time for construction of square roots      ...    0.003 sec
Total time needed                          ...    0.010 sec

-------------------
DFT GRID GENERATION
-------------------

General Integration Accuracy     IntAcc      ...  4.670
Radial Grid Type                 RadialGrid  ... Gauss-Chebyshev
Angular Grid (max. acc.)         AngularGrid ... Lebedev-302
Angular grid pruning method      GridPruning ... 3 (G Style)
Weight generation scheme         WeightScheme... Becke
Basis function cutoff            BFCut       ...    1.0000e-11
Integration weight cutoff        WCut        ...    1.0000e-14
Grids for H and He will be reduced by one unit

# of grid points (after initial pruning)     ...  31974 (   0.0 sec)
# of grid points (after weights+screening)   ...  31838 (   0.0 sec)
nearest neighbour list constructed           ...    0.0 sec
Grid point re-assignment to atoms done       ...    0.0 sec
Grid point division into batches done        ...    0.3 sec
Reduced shell lists constructed in    0.3 sec

Total number of grid points                  ...    31838
Total number of batches                      ...      499
Average number of points per batch           ...       63
Average number of grid points per atom       ...    10613
Average number of shells per batch           ...     5.14 (10.70%)
Average number of basis functions per batch  ...    11.32 ( 6.74%)
Average number of large shells per batch     ...     3.32 (64.60%)
Average number of large basis fcns per batch ...     6.68 (59.04%)
Average number of aux-shells per batch       ...     5.14 ( 3.49%)
Average number of aux functions per batch    ...    11.32 ( 1.48%)
Maximum spatial batch extension              ...  27.01, 24.03, 31.14 au
Average spatial batch extension              ...   0.75,  0.64,  0.72 au

Time for grid setup =    0.333 sec

--------------
SCF ITERATIONS
--------------
ITER       Energy         Delta-E        Max-DP      RMS-DP      [F,P]     Damp
  0   -439.9158363816   0.000000000000 0.00007512  0.00000229  0.0031491 0.7000
  1   -439.9159675864  -0.000131204770 0.00008068  0.00000237  0.0022146 0.7000
                               ***Turning on DIIS***
  2   -439.9159519521   0.000015634312 0.00023020  0.00000629  0.0015506 0.0000
  3   -439.9158372327   0.000114719392 0.00005009  0.00000214  0.0000663 0.0000
  4   -439.9158372403  -0.000000007640 0.00002415  0.00000091  0.0000645 0.0000
  5   -439.9158372611  -0.000000020817 0.00000661  0.00000016  0.0000022 0.0000
                            ***DIIS convergence achieved***

               *****************************************************
               *                     SUCCESS                       *
               *           SCF CONVERGED AFTER   6 CYCLES          *
               *****************************************************

Total Energy       :         -439.91583726 Eh          -11970.71851 eV
  Last Energy change         ...   -1.2432e-10  Tolerance :   1.0000e-08
  Last MAX-Density change    ...    2.5011e-06  Tolerance :   1.0000e-07
             **** THE GBW FILE WAS UPDATED (Ag03C1_D3H.gbw) ****
             **** DENSITY FILE WAS UPDATED (Ag03C1_D3H.scfp) ****
             **** ENERGY FILE WAS UPDATED (Ag03C1_D3H.en.tmp) ****
             **** THE GBW FILE WAS UPDATED (Ag03C1_D3H.gbw) ****
             **** DENSITY FILE WAS UPDATED (Ag03C1_D3H.scfp) ****
Total SCF time: 0 days 0 hours 0 min 2 sec 


           ************************************************************
           *        Program running with 24 parallel MPI-processes    *
           *              working on a common directory               *
           ************************************************************

------------------------------------------------------------------------------
                                ORCA  MP2 
------------------------------------------------------------------------------

Freezing NCore=0 chemical core electrons

----------------------
RI-MP2 ENERGY+GRADIENT
----------------------
Dimension of the basis                    ...  168
Memory devoted to MP2                     ... 5000 MB   
Data format for buffers                   ... DOUBLE
Compression type for matrix containers    ... UNCOMPRESSED
Overall scaling of the MP2 energy         ...   2.700e-01
Calculating two index integrals           ... done (    0.011 sec)
Cholesky decomposition of the V-matrix    ... done
Cholesky decomposition of V**-1           ... done (    0.009 sec)

-----------------
RI-TRANSFORMATION (AUX index driven)
-----------------

Dimension of the orbital-basis         ... 168
Dimension of the aux-basis             ... 528
Transformation of internal MOs         ...    0-  27
Transformation of internal/external MOs...    0-  27 to   28- 167
Number Format for Storage              ... Double (8 Byte)
Integral mode                          ... Direct

First Phase: integral generation and transformation of MO indices
  Aux angular momentum 0               ... done (    0.001 sec)
  Aux angular momentum 1               ... done (    0.001 sec)
  Aux angular momentum 2               ... done (    0.002 sec)
  Aux angular momentum 3               ... done (    0.003 sec)
  Aux angular momentum 4               ... done (    0.005 sec)
  Aux angular momentum 5               ... done (    0.007 sec)
  Aux angular momentum 6               ... done (    0.011 sec)
Closing buffer VIJ ( 0.00 GB; CompressionRatio= 1.00)
Closing buffer VIA ( 0.02 GB; CompressionRatio= 1.00)
  Phase 1 completed in     0.103 sec
Second Phase: sorting and transformation of aux index

IJ-Transformation
Memory available                       ... 4992 MB 
Max. # MO pairs treated in a batch     ... 2    
# of internal orbitals                 ... 28
# batches for internal orbitals        ... 1
Closing buffer IJV ( 0.00 GB; CompressionRatio= 1.00)
(ij|v) transformation done in     0.003 sec

IA-Transformation
Memory available                       ... 4992 MB 
Max. # MO pairs treated in a batch     ... 2    
# of internal orbitals                 ... 28
# batches for internal orbitals        ... 1
Closing buffer IAV ( 0.00 GB; CompressionRatio= 1.00)
(ia|v) transformation done in     0.010 sec

  Phase 2 completed in     0.036 sec
RI-Integral transformation completed in     0.140 sec
Opening buffers                              ... done

Starting loop over batches of integrals:

Operator 0  - window                       ... (  0- 27)x( 28-167)
Operator 0  - Memory available             ...  5000 MB
Operator 0  - Memory needed per MO         ...   1.1 MB
Operator 0  - Number of orbitals per batch ... 2
Operator 0  - Number of batches            ... 1

OPERATOR  0   PASS   0:  MOs     0 ...    1 +    2 ...    3 +    4 ...    5 +    6 ...    7
                            +    8 ...    9 +   10 ...   11 +   12 ...   13 +   14 ...   15
                            +   16 ...   17 +   18 ...   19 +   20 ...   21 +   22 ...   23
                            +   24 ...   25 +   26 ...   27
  Reading integrals       ... ok
Closing buffer GIPV ( 0.00 GB; CompressionRatio= 1.00)
Time spent in pair loops =     0.377 sec

-----------------------------------------------
 RI-MP2 CORRELATION ENERGY:     -0.623090149 Eh
[...]
      f+2     :     0.005459
      f-2     :     0.005392
      f+3     :     0.006068
      f-3     :     0.005658
      g0      :     0.000288  g :     0.002603
      g+1     :     0.000288
      g-1     :     0.000287
      g+2     :     0.000289
      g-2     :     0.000288
      g+3     :     0.000289
      g-3     :     0.000287
      g+4     :     0.000294
      g-4     :     0.000293
  2 Ags       :     2.531859  s :     2.531859
      pz      :     2.012892  p :     6.175584
      px      :     2.110500
      py      :     2.052191
      dz2     :     1.992854  d :     9.917696
      dxz     :     1.985714
      dyz     :     1.987932
      dx2y2   :     1.971629
      dxy     :     1.979567
      f0      :     0.005420  f :     0.038988
      f+1     :     0.005543
      f-1     :     0.005448
      f+2     :     0.005459
      f-2     :     0.005392
      f+3     :     0.006068
      f-3     :     0.005658
      g0      :     0.000288  g :     0.002603
      g+1     :     0.000288
      g-1     :     0.000287
      g+2     :     0.000289
      g-2     :     0.000288
      g+3     :     0.000289
      g-3     :     0.000287
      g+4     :     0.000294
      g-4     :     0.000293


                      *****************************
                      * MAYER POPULATION ANALYSIS *
                      *****************************

  NA   - Mulliken gross atomic population
  ZA   - Total nuclear charge
  QA   - Mulliken gross atomic charge
  VA   - Mayer's total valence
  BVA  - Mayer's bonded valence
  FA   - Mayer's free valence

  ATOM       NA         ZA         QA         VA         BVA        FA
  0 Ag    18.6665    19.0000     0.3335     1.3845     1.0100     0.3745
  1 Ag    18.6667    19.0000     0.3333     1.3849     1.0103     0.3745
  2 Ag    18.6667    19.0000     0.3333     1.3849     1.0103     0.3745

  Mayer bond orders larger than 0.100000
B(  0-Ag,  1-Ag) :   0.5050 B(  0-Ag,  2-Ag) :   0.5050 B(  1-Ag,  2-Ag) :   0.5053 



-------
TIMINGS
-------

Total time                :   12.573 sec
Integral trafo            :    0.189 sec (  1.5%)
I/O of integrals          :    0.003 sec (  0.0%)
K(i,j) Operators          :    0.020 sec (  0.2%)
T(i,j) pair energies      :    0.005 sec (  0.0%)
V-calculation             :    0.011 sec (  0.1%)
V**(-1/2)                 :    0.014 sec (  0.1%)
Gamma(ia|P)               :    0.016 sec (  0.1%)
Gamma-Trafo               :    0.008 sec (  0.1%)
D(virtual)                :    0.001 sec (  0.0%)
D(internal)               :    0.012 sec (  0.1%)
W(virtual)                :    0.001 sec (  0.0%)
W(internal)               :    0.042 sec (  0.3%)
L(virtual)                :    0.221 sec (  1.8%)
L(internal)               :    0.001 sec (  0.0%)
G(D)                      :    1.121 sec (  8.9%)
G(Z)                      :    1.048 sec (  8.3%)
Z-Vector Solution         :    4.128 sec ( 32.8%)
Z-Vector Solution         :    4.128 sec ( 32.8%)
3-Index Derivative 
+ Separable RIJ part      :    1.347 sec ( 10.7%)
2-Index Derivative 
+ Separable RIJ part      :    0.007 sec (  0.1%)
Separable Gradient (X)    :    3.956 sec ( 31.5%)


---------------------------------------
MP2 TOTAL ENERGY:     -440.539296093 Eh
---------------------------------------

-----------------------------------
NORM OF THE MP2 GRADIENT:  0.000070
-----------------------------------


-------------------------------------------------------------------------------
                          DFT DISPERSION CORRECTION                            
                                                                               
                              DFTD3 V3.1  Rev 1                                
                          USING Becke-Johnson damping                          
-------------------------------------------------------------------------------
The B2PLYP functional is recognized
Active option DFTDOPT                   ...         4   

molecular C6(AA) [au] = 2417.558523 


            DFT-D V3
 parameters
 s6 scaling factor         :     0.6400 
 a1 scaling factor         :     0.3065 
 s8 scaling factor         :     0.9147 
 a2 scaling factor         :     5.0570 
 ad hoc parameters k1-k3   :    16.0000     1.3333    -4.0000 

 Edisp/kcal,au: -3.717575632047  -0.005924333240 
 E6   /kcal   :  -1.202794643 
 E8   /kcal   :  -2.514780989 
 % E8         :  67.645725018 

-------------------------   ----------------
Dispersion correction           -0.005924333
-------------------------   ----------------


-------------------------   --------------------
FINAL SINGLE POINT ENERGY      -440.545220426136
-------------------------   --------------------

                                *** OPTIMIZATION RUN DONE ***

                            ***************************************
                            *     ORCA property calculations      *
                            ***************************************

                                    ---------------------
                                    Active property flags
                                    ---------------------
   (+) Dipole Moment


------------------------------------------------------------------------------
                       ORCA ELECTRIC PROPERTIES CALCULATION
------------------------------------------------------------------------------

Dipole Moment Calculation                       ... on
Quadrupole Moment Calculation                   ... off
Polarizability Calculation                      ... off
GBWName                                         ... Ag03C1_D3H.gbw
Electron density file                           ... Ag03C1_D3H.scfp
The origin for moment calculation is the CENTER OF MASS  = ( 0.000000,  0.000001  0.000000)

-------------
DIPOLE MOMENT
-------------
                                X             Y             Z
Electronic contribution:      0.00000       0.00057       0.00000
Nuclear contribution   :      0.00000      -0.00000       0.00000
                        -----------------------------------------
Total Dipole Moment    :      0.00000       0.00057       0.00000
                        -----------------------------------------
Magnitude (a.u.)       :      0.00057
Magnitude (Debye)      :      0.00146



--------------------
Rotational spectrum 
--------------------
 
Rotational constants in cm-1:     0.043183     0.043132     0.021579 
Rotational constants in MHz :  1294.591427  1293.068170   646.914675 

 Dipole components along the rotational axes: 
x,y,z [a.u.] :    -0.000573    -0.000000     0.000000 
x,y,z [Debye]:    -0.001456    -0.000000     0.000000 

 

                         *** MP2 UNRELAXED DENSITY ***

------------------------------------------------------------------------------
                       ORCA ELECTRIC PROPERTIES CALCULATION
------------------------------------------------------------------------------

Dipole Moment Calculation                       ... on
Quadrupole Moment Calculation                   ... off
Polarizability Calculation                      ... off
GBWName                                         ... Ag03C1_D3H.gbw
Electron density file                           ... Ag03C1_D3H.pmp2ur
The origin for moment calculation is the CENTER OF MASS  = ( 0.000000,  0.000001  0.000000)

-------------
DIPOLE MOMENT
-------------
                                X             Y             Z
Electronic contribution:      0.00000       0.00057       0.00000
Nuclear contribution   :      0.00000      -0.00000       0.00000
                        -----------------------------------------
Total Dipole Moment    :      0.00000       0.00057       0.00000
                        -----------------------------------------
Magnitude (a.u.)       :      0.00057
Magnitude (Debye)      :      0.00146



--------------------
Rotational spectrum 
--------------------
 
Rotational constants in cm-1:     0.043183     0.043132     0.021579 
Rotational constants in MHz :  1294.591427  1293.068170   646.914675 

 Dipole components along the rotational axes: 
x,y,z [a.u.] :    -0.000573    -0.000000     0.000000 
x,y,z [Debye]:    -0.001455    -0.000000     0.000000 

 

                           *** MP2 RELAXED DENSITY ***

------------------------------------------------------------------------------
                       ORCA ELECTRIC PROPERTIES CALCULATION
------------------------------------------------------------------------------

Dipole Moment Calculation                       ... on
Quadrupole Moment Calculation                   ... off
Polarizability Calculation                      ... off
GBWName                                         ... Ag03C1_D3H.gbw
Electron density file                           ... Ag03C1_D3H.pmp2re
The origin for moment calculation is the CENTER OF MASS  = ( 0.000000,  0.000001  0.000000)

-------------
DIPOLE MOMENT
-------------
                                X             Y             Z
Electronic contribution:      0.00000       0.00063       0.00000
Nuclear contribution   :      0.00000      -0.00000       0.00000
                        -----------------------------------------
Total Dipole Moment    :      0.00000       0.00063       0.00000
                        -----------------------------------------
Magnitude (a.u.)       :      0.00063
Magnitude (Debye)      :      0.00160



--------------------
Rotational spectrum 
--------------------
 
Rotational constants in cm-1:     0.043183     0.043132     0.021579 
Rotational constants in MHz :  1294.591427  1293.068170   646.914675 

 Dipole components along the rotational axes: 
x,y,z [a.u.] :    -0.000630    -0.000000     0.000000 
x,y,z [Debye]:    -0.001601    -0.000000     0.000000 

 

----------------------------------------------------------------------------
                           ORCA NUMERICAL FREQUENCIES
                              (24-process run)
----------------------------------------------------------------------------

Number of atoms                ... 3
Central differences            ... used
Number of displacements        ... 18
Numerical increment            ... 5.000e-03 bohr
IR-spectrum generation         ... on
Raman-spectrum generation      ... off
Surface Crossing Hessian       ... off

 WARNING: There are more processes than displacements to do
  ====> : Reducing number of processes to   9

The output will be reduced. Please look at the following files:
SCF program output             ... >Ag03C1_D3H.lastscf
Integral program output        ... >Ag03C1_D3H.lastint
Gradient program output        ... >Ag03C1_D3H.lastgrad
Dipole moment program output   ... >Ag03C1_D3H.lastmom
AutoCI program output          ... >Ag03C1_D3H.lastautoci


         <<< Energy and Gradient at the input geometry >>>

        <<< Energy and Gradient at displaced geometries >>>
             <<<Displacing   3/coordinate 2 (+)>>>
             <<<Displacing   1/coordinate 2 (+)>>>
             <<<Displacing   1/coordinate 1 (+)>>>
             <<<Displacing   2/coordinate 3 (+)>>>
             <<<Displacing   2/coordinate 1 (+)>>>
             <<<Displacing   2/coordinate 2 (+)>>>
             <<<Displacing   1/coordinate 3 (+)>>>
             <<<Displacing   3/coordinate 1 (+)>>>
             <<<Displacing   3/coordinate 3 (+)>>>
             <<<Displacing   1/coordinate 3 (-)>>>
             <<<Displacing   3/coordinate 3 (-)>>>
             <<<Displacing   2/coordinate 3 (-)>>>
             <<<Displacing   1/coordinate 1 (-)>>>
             <<<Displacing   1/coordinate 2 (-)>>>
             <<<Displacing   2/coordinate 1 (-)>>>
             <<<Displacing   2/coordinate 2 (-)>>>
             <<<Displacing   3/coordinate 1 (-)>>>
             <<<Displacing   3/coordinate 2 (-)>>>

-----------------------
VIBRATIONAL FREQUENCIES
-----------------------

Scaling factor for frequencies =  1.000000000 (already applied!)

   0:         0.00 cm**-1
   1:         0.00 cm**-1
   2:         0.00 cm**-1
   3:         0.00 cm**-1
   4:         0.00 cm**-1
   5:         0.00 cm**-1
   6:       116.98 cm**-1
   7:       118.03 cm**-1
   8:       173.06 cm**-1


------------
NORMAL MODES
------------

These modes are the cartesian displacements weighted by the diagonal matrix
M(i,i)=1/sqrt(m[i]) where m[i] is the mass of the displaced atom
Thus, these vectors are normalized but *not* orthogonal

                  0          1          2          3          4          5    
      0       0.000000   0.000000   0.000000   0.000000   0.000000   0.000000
      1       0.000000   0.000000   0.000000   0.000000   0.000000   0.000000
      2       0.000000   0.000000   0.000000   0.000000   0.000000   0.000000
      3       0.000000   0.000000   0.000000   0.000000   0.000000   0.000000
      4       0.000000   0.000000   0.000000   0.000000   0.000000   0.000000
      5       0.000000   0.000000   0.000000   0.000000   0.000000   0.000000
      6       0.000000   0.000000   0.000000   0.000000   0.000000   0.000000
      7       0.000000   0.000000   0.000000   0.000000   0.000000   0.000000
      8       0.000000   0.000000   0.000000   0.000000   0.000000   0.000000
                   6          7          8    
      0       0.577180   0.000154  -0.000017
      1      -0.000136   0.574877   0.579813
      2       0.000000   0.000000   0.000000
      3      -0.288441  -0.502210   0.497867
      4       0.500215  -0.287305  -0.289921
      5       0.000000   0.000000   0.000000
      6      -0.288739   0.502055  -0.497850
      7      -0.500079  -0.287572  -0.289891
      8       0.000000   0.000000   0.000000


-----------
IR SPECTRUM  
-----------

 Mode    freq (cm**-1)   T**2         TX         TY         TZ
-------------------------------------------------------------------
   6:       116.98    1.482595  ( -1.217618  -0.000342  -0.000001)
   7:       118.03    1.666601  ( -0.000318   1.290969  -0.000011)
   8:       173.06    0.000014  (  0.000038   0.003703  -0.000002)

The first frequency considered to be a vibration is 6
The total number of vibrations considered is 3


--------------------------
THERMOCHEMISTRY AT 298.15K
--------------------------

Temperature         ... 298.15 K
Pressure            ... 1.00 atm
Total Mass          ... 323.61 AMU

Throughout the following assumptions are being made:
  (1) The electronic state is orbitally nondegenerate
  (2) There are no thermally accessible electronically excited states
  (3) Hindered rotations indicated by low frequency modes are not
      treated as such but are treated as vibrations and this may
      cause some error
  (4) All equations used are the standard statistical mechanics
      equations for an ideal gas
  (5) All vibrations are strictly harmonic

freq.     116.98  E(vib)   ...       0.44 
freq.     118.03  E(vib)   ...       0.44 
freq.     173.06  E(vib)   ...       0.38 

------------
INNER ENERGY
------------

The inner energy is: U= E(el) + E(ZPE) + E(vib) + E(rot) + E(trans)
    E(el)   - is the total energy from the electronic structure calculation
              = E(kin-el) + E(nuc-el) + E(el-el) + E(nuc-nuc)
    E(ZPE)  - the the zero temperature vibrational energy from the frequency calculation
    E(vib)  - the the finite temperature correction to E(ZPE) due to population
              of excited vibrational states
    E(rot)  - is the rotational thermal energy
    E(trans)- is the translational thermal energy

Summary of contributions to the inner energy U:
Electronic energy                ...   -440.54522038 Eh
Zero point energy                ...      0.00092966 Eh       0.58 kcal/mol
Thermal vibrational correction   ...      0.00200755 Eh       1.26 kcal/mol
Thermal rotational correction    ...      0.00141627 Eh       0.89 kcal/mol
Thermal translational correction ...      0.00141627 Eh       0.89 kcal/mol
-----------------------------------------------------------------------
Total thermal energy                   -440.53945063 Eh


Summary of corrections to the electronic energy:
(perhaps to be used in another calculation)
Total thermal correction                  0.00484009 Eh       3.04 kcal/mol
Non-thermal (ZPE) correction              0.00092966 Eh       0.58 kcal/mol
-----------------------------------------------------------------------
Total correction                          0.00576975 Eh       3.62 kcal/mol


--------
ENTHALPY
--------

The enthalpy is H = U + kB*T
                kB is Boltzmann's constant
Total free energy                 ...   -440.53945063 Eh 
Thermal Enthalpy correction       ...      0.00094421 Eh       0.59 kcal/mol
-----------------------------------------------------------------------
Total Enthalpy                    ...   -440.53850642 Eh


Note: Rotational entropy computed according to Herzberg 
Infrared and Raman Spectra, Chapter V,1, Van Nostrand Reinhold, 1945 
Point Group:  C2v, Symmetry Number:   2  
Rotational constants in cm-1:     0.043183     0.043132     0.021579 

Vibrational entropy computed according to the QRRHO of S. Grimme
Chem.Eur.J. 2012 18 9955


-------
ENTROPY
-------

The entropy contributions are T*S = T*(S(el)+S(vib)+S(rot)+S(trans))
     S(el)   - electronic entropy
     S(vib)  - vibrational entropy
     S(rot)  - rotational entropy
     S(trans)- translational entropy
The entropies will be listed as mutliplied by the temperature to get
units of energy

Electronic entropy                ...      0.00000000 Eh      0.00 kcal/mol
Vibrational entropy               ...      0.00397584 Eh      2.49 kcal/mol
Rotational entropy                ...      0.01363478 Eh      8.56 kcal/mol
Translational entropy             ...      0.02053447 Eh     12.89 kcal/mol
-----------------------------------------------------------------------
Final entropy term                ...      0.03814509 Eh     23.94 kcal/mol

In case the symmetry of your molecule has not been determined correctly
or in case you have a reason to use a different symmetry number we print 
out the resulting rotational entropy values for sn=1,12 :
 --------------------------------------------------------
|  sn= 1 | S(rot)=       0.01428924 Eh      8.97 kcal/mol|
|  sn= 2 | S(rot)=       0.01363478 Eh      8.56 kcal/mol|
|  sn= 3 | S(rot)=       0.01325195 Eh      8.32 kcal/mol|
|  sn= 4 | S(rot)=       0.01298032 Eh      8.15 kcal/mol|
|  sn= 5 | S(rot)=       0.01276964 Eh      8.01 kcal/mol|
|  sn= 6 | S(rot)=       0.01259749 Eh      7.91 kcal/mol|
|  sn= 7 | S(rot)=       0.01245195 Eh      7.81 kcal/mol|
|  sn= 8 | S(rot)=       0.01232587 Eh      7.73 kcal/mol|
|  sn= 9 | S(rot)=       0.01221466 Eh      7.66 kcal/mol|
|  sn=10 | S(rot)=       0.01211518 Eh      7.60 kcal/mol|
|  sn=11 | S(rot)=       0.01202519 Eh      7.55 kcal/mol|
|  sn=12 | S(rot)=       0.01194303 Eh      7.49 kcal/mol|
 --------------------------------------------------------


-------------------
GIBBS FREE ENERGY
-------------------

The Gibbs free energy is G = H - T*S

Total enthalpy                    ...   -440.53850642 Eh 
Total entropy correction          ...     -0.03814509 Eh    -23.94 kcal/mol
-----------------------------------------------------------------------
Final Gibbs free energy         ...   -440.57665151 Eh

For completeness - the Gibbs free energy minus the electronic energy
G-E(el)                           ...     -0.03143113 Eh    -19.72 kcal/mol


Total Time for Numerical Frequencies  :       190.427 sec

Timings for individual modules:

Sum of individual times         ...      105.696 sec (=   1.762 min)
GTO integral calculation        ...        6.683 sec (=   0.111 min)   6.3 %
SCF iterations                  ...       19.464 sec (=   0.324 min)  18.4 %
MP2 module                      ...       79.213 sec (=   1.320 min)  74.9 %
Geometry relaxation             ...        0.336 sec (=   0.006 min)   0.3 %
                             ****ORCA TERMINATED NORMALLY****
TOTAL RUN TIME: 0 days 0 hours 4 minutes 41 seconds 389 msec
