
                                 *****************
                                 * O   R   C   A *
                                 *****************

           --- An Ab Initio, DFT and Semiempirical electronic structure package ---

                  #######################################################
                  #                        -***-                        #
                  #          Department of theory and spectroscopy      #
                  #               Directorship: Frank Neese             #
                  #        Max Planck Institute fuer Kohlenforschung    #
                  #                Kaiser Wilhelm Platz 1               #
                  #                 D-45470 Muelheim/Ruhr               #
                  #                      Germany                        #
                  #                                                     #
                  #                  All rights reserved                #
                  #                        -***-                        #
                  #######################################################


                         Program Version 4.2.0 -  RELEASE  -


 With contributions from (in alphabetic order):
   Daniel Aravena         : Magnetic Suceptibility
   Michael Atanasov       : Ab Initio Ligand Field Theory (pilot matlab implementation)
   Alexander A. Auer      : GIAO ZORA, VPT2
   Ute Becker             : Parallelization
   Giovanni Bistoni       : ED, misc. LED, open-shell LED, HFLED
   Martin Brehm           : Molecular dynamics
   Dmytro Bykov           : SCF Hessian
   Vijay G. Chilkuri      : MRCI spin determinant printing, contributions to CSF-ICE
   Dipayan Datta          : RHF DLPNO-CCSD density
   Achintya Kumar Dutta   : EOM-CC, STEOM-CC
   Dmitry Ganyushin       : Spin-Orbit,Spin-Spin,Magnetic field MRCI
   Miquel Garcia          : C-PCM Hessian, Gaussian charge scheme
   Yang Guo               : DLPNO-NEVPT2, CIM, IAO-localization
   Andreas Hansen         : Spin unrestricted coupled pair/coupled cluster methods
   Benjamin Helmich-Paris : CASSCF linear response (MC-RPA)
   Lee Huntington         : MR-EOM, pCC
   Robert Izsak           : Overlap fitted RIJCOSX, COSX-SCS-MP3, EOM
   Christian Kollmar      : KDIIS, OOCD, Brueckner-CCSD(T), CCSD density
   Simone Kossmann        : Meta GGA functionals, TD-DFT gradient, OOMP2, MP2 Hessian
   Martin Krupicka        : AUTO-CI
   Lucas Lang             : DCDCAS
   Dagmar Lenk            : GEPOL surface, SMD
   Dimitrios Liakos       : Extrapolation schemes; Compound Job, initial MDCI parallelization
   Dimitrios Manganas     : Further ROCIS development; embedding schemes
   Dimitrios Pantazis     : SARC Basis sets
   Taras Petrenko         : DFT Hessian,TD-DFT gradient, ASA, ECA, R-Raman, ABS, FL, XAS/XES, NRVS
   Peter Pinski           : DLPNO-MP2, DLPNO-MP2 Gradient
   Christoph Reimann      : Effective Core Potentials
   Marius Retegan         : Local ZFS, SOC
   Christoph Riplinger    : Optimizer, TS searches, QM/MM, DLPNO-CCSD(T), (RO)-DLPNO pert. Triples
   Tobias Risthaus        : Range-separated hybrids, TD-DFT gradient, RPA, STAB
   Michael Roemelt        : Original ROCIS implementation
   Masaaki Saitow         : Open-shell DLPNO-CCSD energy and density
   Barbara Sandhoefer     : DKH picture change effects
   Avijit Sen             : IP-ROCIS
   Kantharuban Sivalingam : CASSCF convergence, NEVPT2, FIC-MRCI
   Bernardo de Souza      : ESD, SOC TD-DFT
   Georgi Stoychev        : AutoAux, RI-MP2 NMR
   Willem Van den Heuvel  : Paramagnetic NMR
   Boris Wezisla          : Elementary symmetry handling
   Frank Wennmohs         : Technical directorship


 We gratefully acknowledge several colleagues who have allowed us to
 interface, adapt or use parts of their codes:
   Stefan Grimme, W. Hujo, H. Kruse,             : VdW corrections, initial TS optimization,
                  C. Bannwarth                     DFT functionals, gCP, sTDA/sTD-DF
   Ed Valeev, F. Pavosevic, A. Kumar             : LibInt (2-el integral package), F12 methods
   Garnet Chan, S. Sharma, J. Yang, R. Olivares  : DMRG
   Ulf Ekstrom                                   : XCFun DFT Library
   Mihaly Kallay                                 : mrcc  (arbitrary order and MRCC methods)
   Andreas Klamt, Michael Diedenhofen            : otool_cosmo (COSMO solvation model)
   Jiri Pittner, Ondrej Demel                    : Mk-CCSD
   Frank Weinhold                                : gennbo (NPA and NBO analysis)
   Christopher J. Cramer and Donald G. Truhlar   : smd solvation model
   Lars Goerigk                                  : TD-DFT with DH, B97 family of functionals
   V. Asgeirsson, H. Jonsson                     : NEB implementation
   FAccTs GmbH                                   : IRC, NEB, NEB-TS, Multilevel, MM, QM/MM, CI optimization
   S Lehtola, MJT Oliveira, MAL Marques          : LibXC Library


 Your calculation uses the libint2 library for the computation of 2-el integrals
 For citations please refer to: http://libint.valeyev.net

 Your ORCA version has been built with support for libXC version: 4.2.3
 For citations please refer to: https://tddft.org/programs/libxc/

 This ORCA versions uses:
   CBLAS   interface :  Fast vector & matrix operations
   LAPACKE interface :  Fast linear algebra routines
   SCALAPACK package :  Parallel linear algebra routines


Your calculation utilizes the atom-pairwise dispersion correction
with the Becke-Johnson damping scheme (D3BJ)
Cite in your paper:
S.Grimme, S.Ehrlich, L.Goerigk, J Comput Chem, (2011), 32, 1456–1465 
S.Grimme, J.Antony, S.Ehrlich and H.Krieg, J.Chem.Phys., 132, (2010), 154104 
   

----- Orbital basis set information -----
Your calculation utilizes the basis: def2-TZVPPD
   F. Weigend and R. Ahlrichs, Phys. Chem. Chem. Phys. 7, 3297 (2005).
   D. Rappoport and F. Furche, J. Chem. Phys. 133 134105 (2010).

----- AuxC basis set information -----
Your calculation utilizes the auxiliary basis: def2-TZVPPD/C
   A. Hellweg, C. Hattig, S. Hofener and W. Klopper, Theor. Chem. Acc. 117, 587 (2007).

----- AuxJK basis set information -----
Your calculation utilizes the auxiliary basis: def2/JK
   H-Ba, Hf-Rn: F. Weigend, J. Comput. Chem. 29, 167 (2008).

cite the ECPs for Au [Def2-ECP] as follows:
Ce-Yb(ecp-28): M. Dolg, H. Stoll, H.Preuss, J. Chem. Phys., 1989, 90, 1730-1734.
Y-Cd(ecp-28), Hf-Hg(ecp-46): D. Andrae,U. Haeussermann, M. Dolg, H. Stoll, H. Preuss, Theor. Chim. Acta, 1990, 77, 123-141.
In-Sb(ecp-28), Tl-Bi(ecp-46): B. Metz, H. Stoll, M. Dolg, J. Chem. Phys., 2000, 113, 2563-2569.
Te-Xe(ecp-28), Po-Rn(ecp-46): K. A. Peterson, D. Figgen, E. Goll, H. Stoll, M. Dolg, J. Chem. Phys., 2003, 119, 11113-11123.
Rb(ecp-28), Cs(ecp-46): T. Leininger, A. Nicklass, W. Kuechle, H. Stoll, M. Dolg, A. Bergner, Chem. Phys. Lett., 1996, 255, 274-280.
Sr(ecp-28), Ba(ecp-46): M. Kaupp, P. V. Schleyer, H. Stoll and H. Preuss, J. Chem. Phys., 1991, 94, 1360-1366.
La(ecp-46): M. Dolg, H. Stoll, A. Savin, H. Preuss, Theor. Chim. Acta, 1989, 75, 173-194.
Lu(ecp-28): X. Cao, M. Dolg, J. Chem. Phys., 2001, 115, 7348-7355.

ECP parameters for Au [Def2-ECP] have been obtained from:
TURBOMOLE (7.0.2)

================================================================================
                                        WARNINGS
                       Please study these warnings very carefully!
================================================================================


WARNING: your system is open-shell and RHF/RKS was chosen
  ===> : WILL SWITCH to UHF/UKS


WARNING: The frozen-core approximation for MP2-gradient calculations is turned on by default.

WARNING: Geometry Optimization
  ===> : Switching off AutoStart
         For restart on a previous wavefunction, please use MOREAD

WARNING: The frozen-core approximation is turned on by default for 
         the MP2 part of double-hybrid DFT.

INFO   : the flag for use of LIBINT has been found!

================================================================================
                                       INPUT FILE
================================================================================
NAME = Au03N0_LIN.in
|  1> #
|  2> # Au03N0_LIN ri-B2PLYP-D3BJ/Def2-TZVPPD
|  3> #
|  4> ! rijk ri-b2plyp d3bj def2-tzvppd def2/jk def2-tzvppd/c grid4 nofinalgrid opt xyzfile numfreq
|  5> 
|  6> *xyz 0 2
|  7> Au       0.000000    0.000000    0.000000 
|  8> Au       0.000000    0.000000    2.547414 
|  9> Au       0.000000    0.000000   -2.547414 
| 10> *
| 11> 
| 12> %maxcore 5000
| 13> 
| 14> %pal
| 15> nprocs = 24
| 16> end
| 17> 
| 18> 
| 19>                          ****END OF INPUT****
================================================================================

                       *****************************
                       * Geometry Optimization Run *
                       *****************************

Geometry optimization settings:
Update method            Update   .... BFGS
Choice of coordinates    CoordSys .... Z-matrix Internals
Initial Hessian          InHess   .... Almoef's Model

Convergence Tolerances:
Energy Change            TolE     ....  5.0000e-06 Eh
Max. Gradient            TolMAXG  ....  3.0000e-04 Eh/bohr
RMS Gradient             TolRMSG  ....  1.0000e-04 Eh/bohr
Max. Displacement        TolMAXD  ....  4.0000e-03 bohr
RMS Displacement         TolRMSD  ....  2.0000e-03 bohr
Strict Convergence                ....  False
------------------------------------------------------------------------------
                        ORCA OPTIMIZATION COORDINATE SETUP
------------------------------------------------------------------------------

The optimization will be done in new redundant internal coordinates
Making redundant internal coordinates   ...  (new redundants) done
Evaluating the initial hessian          ...  (Almloef) done
Evaluating the coordinates              ...  done
Calculating the B-matrix                .... done
Calculating the G-matrix                .... done
Diagonalizing the G-matrix              .... done
The first mode is                       ....    0
The number of degrees of freedom        ....    4

    -----------------------------------------------------------------
                    Redundant Internal Coordinates


    -----------------------------------------------------------------
         Definition                    Initial Value    Approx d2E/dq
    -----------------------------------------------------------------
      1. B(Au  1,Au  0)                  2.5474         0.017232   
      2. B(Au  2,Au  0)                  2.5474         0.017232   
      3. L(Au  1,Au  0,Au  2, 2)       180.0000         0.163790   
      4. L(Au  1,Au  0,Au  2, 1)       180.0000         0.163790   
    -----------------------------------------------------------------

Number of atoms                         .... 3
Number of degrees of freedom            .... 4

         *************************************************************
         *                GEOMETRY OPTIMIZATION CYCLE   1            *
         *************************************************************
---------------------------------
CARTESIAN COORDINATES (ANGSTROEM)
---------------------------------
  Au     0.000000    0.000000    0.000000
  Au     0.000000    0.000000    2.547414
  Au     0.000000    0.000000   -2.547414

----------------------------
CARTESIAN COORDINATES (A.U.)
----------------------------
  NO LB      ZA    FRAG     MASS         X           Y           Z
   0 Au   19.0000*   0   196.966    0.000000    0.000000    0.000000
   1 Au   19.0000*   0   196.966    0.000000    0.000000    4.813915
   2 Au   19.0000*   0   196.966    0.000000    0.000000   -4.813915
* core charge reduced due to ECP

--------------------------------
INTERNAL COORDINATES (ANGSTROEM)
--------------------------------
 Au     0   0   0     0.000000000000     0.00000000     0.00000000
 Au     1   0   0     2.547414000000     0.00000000     0.00000000
 Au     1   2   0     2.547414000000   179.99999915     0.00000000

---------------------------
INTERNAL COORDINATES (A.U.)
---------------------------
 Au     0   0   0     0.000000000000     0.00000000     0.00000000
 Au     1   0   0     4.813914809717     0.00000000     0.00000000
 Au     1   2   0     4.813914809717   179.99999915     0.00000000

---------------------
BASIS SET INFORMATION
---------------------
There are 1 groups of distinct atoms

 Group   1 Type Au  : 8s8p6d2f1g contracted to 6s5p3d2f1g pattern {311111/41111/411/11/1}

Atom   0Au   basis set group =>   1
Atom   1Au   basis set group =>   1
Atom   2Au   basis set group =>   1
---------------------------------
AUXILIARY/C BASIS SET INFORMATION
---------------------------------
There are 1 groups of distinct atoms

 Group   1 Type Au  : 9s9p8d5f4g3h1i contracted to 9s9p8d5f4g3h1i pattern {111111111/111111111/11111111/11111/1111/111/1}

Atom   0Au   basis set group =>   1
Atom   1Au   basis set group =>   1
Atom   2Au   basis set group =>   1
----------------------------------
AUXILIARY/JK BASIS SET INFORMATION
----------------------------------
There are 1 groups of distinct atoms

 Group   1 Type Au  : 13s12p11d9f5g3h2i contracted to 13s11p10d8f4g3h2i pattern {1111111111111/21111111111/2111111111/21111111/2111/111/11}

Atom   0Au   basis set group =>   1
Atom   1Au   basis set group =>   1
Atom   2Au   basis set group =>   1
-------------------------
ECP PARAMETER INFORMATION
-------------------------

 Group 1, Type Au ECP Def2-ECP (replacing 60 core electrons, lmax=3)

Atom   0Au   ECP group =>   1
Atom   1Au   ECP group =>   1
Atom   2Au   ECP group =>   1



           ************************************************************
           *        Program running with 24 parallel MPI-processes    *
           *              working on a common directory               *
           ************************************************************
------------------------------------------------------------------------------
                           ORCA GTO INTEGRAL CALCULATION
                           -- RI-GTO INTEGRALS CHOSEN --
------------------------------------------------------------------------------

                         BASIS SET STATISTICS AND STARTUP INFO

Gaussian basis set:
 # of primitive gaussian shells          ...   75
 # of primitive gaussian functions       ...  255
 # of contracted shells                  ...   51
 # of contracted basis functions         ...  177
 Highest angular momentum                ...    4
 Maximum contraction depth               ...    4
Auxiliary gaussian basis set:
 # of primitive gaussian shells          ...  165
 # of primitive gaussian functions       ...  813
 # of contracted shells                  ...  153
 # of contracted aux-basis functions     ...  741
 Highest angular momentum                ...    6
 Maximum contraction depth               ...    2
Ratio of auxiliary to basis functions    ...  4.19
Integral package used                  ... LIBINT
 One Electron integrals                  
   ECP integrals                         ... done
 Ordering auxiliary basis shells         ... done
 Integral threshhold             Thresh  ...  2.500e-11
 Primitive cut-off               TCut    ...  2.500e-12
 Pre-screening matrix                    ... done
 Shell pair data                         ... 
 Ordering of the shell pairs             ... done (   0.000 sec) 1221 of 1326 pairs
 Determination of significant pairs      ... done (   0.000 sec)
 Creation of shell pair data             ... done (   0.000 sec)
 Storage of shell pair data              ... done (   0.003 sec)
 Shell pair data done in (   0.003 sec)
 Computing two index integrals           ... done
 Cholesky decomposition of the V-matrix  ... done


Timings:
 Total evaluation time                   ...   0.737 sec (  0.012 min)
 One electron matrix time                ...   0.342 sec (  0.006 min) = 46.4%
 Schwartz matrix evaluation time         ...   0.145 sec (  0.002 min) = 19.6%
 Two index repulsion integral time       ...   0.137 sec (  0.002 min) = 18.5%
 Cholesky decomposition of V             ...   0.079 sec (  0.001 min) = 10.7%
 Three index repulsion integral time     ...   0.000 sec (  0.000 min) =  0.0%



           ************************************************************
           *        Program running with 24 parallel MPI-processes    *
           *              working on a common directory               *
           ************************************************************
-------------------------------------------------------------------------------
                                 ORCA SCF
-------------------------------------------------------------------------------

------------
SCF SETTINGS
------------
Hamiltonian:
 Density Functional     Method          .... DFT(GTOs)
 Exchange Functional    Exchange        .... B88
   X-Alpha parameter    XAlpha          ....  0.666667
   Becke's b parameter  XBeta           ....  0.004200
 Correlation Functional Correlation     .... LYP
 LDA part of GGA corr.  LDAOpt          .... VWN-3
 Gradients option       PostSCFGGA      .... off
 Hybrid DFT is turned on
   Fraction HF Exchange ScalHFX         ....  0.530000
   Scaling of DF-GGA-X  ScalDFX         ....  0.470000
   Scaling of DF-GGA-C  ScalDFC         ....  0.730000
   Scaling of DF-LDA-C  ScalLDAC        ....  0.730000
   Perturbative correction              ....  0.270000
   Density functional embedding theory  .... OFF
 RI-approximation to the Coulomb term is turned on
   Number of auxiliary basis functions  .... 741
   RI-JK (J+K treated both via RI)      .... on


General Settings:
 Integral files         IntName         .... Au03N0_LIN
 Hartree-Fock type      HFTyp           .... UHF
 Total Charge           Charge          ....    0
 Multiplicity           Mult            ....    2
 Number of Electrons    NEL             ....   57
 Basis Dimension        Dim             ....  177
 Nuclear Repulsion      ENuc            ....    187.4773517342 Eh

Convergence Acceleration:
 DIIS                   CNVDIIS         .... on
   Start iteration      DIISMaxIt       ....    12
   Startup error        DIISStart       ....  0.200000
   # of expansion vecs  DIISMaxEq       ....     5
   Bias factor          DIISBfac        ....   1.050
   Max. coefficient     DIISMaxC        ....  10.000
 Newton-Raphson         CNVNR           .... off
 SOSCF                  CNVSOSCF        .... off
 Level Shifting         CNVShift        .... on
   Level shift para.    LevelShift      ....    0.2500
   Turn off err/grad.   ShiftErr        ....    0.0010
 Zerner damping         CNVZerner       .... off
 Static damping         CNVDamp         .... on
   Fraction old density DampFac         ....    0.7000
   Max. Damping (<1)    DampMax         ....    0.9800
   Min. Damping (>=0)   DampMin         ....    0.0000
   Turn off err/grad.   DampErr         ....    0.1000
 Fernandez-Rico         CNVRico         .... off

SCF Procedure:
 Maximum # iterations   MaxIter         ....   125
 SCF integral mode      SCFMode         .... Direct
   Integral package                     .... LIBINT
 Reset frequency        DirectResetFreq ....    20
 Integral Threshold     Thresh          ....  2.500e-11 Eh
 Primitive CutOff       TCut            ....  2.500e-12 Eh

Convergence Tolerance:
 Convergence Check Mode ConvCheckMode   .... Total+1el-Energy
 Convergence forced     ConvForced      .... 0
 Energy Change          TolE            ....  1.000e-08 Eh
 1-El. energy change                    ....  1.000e-05 Eh
 DIIS Error             TolErr          ....  5.000e-07


Diagonalization of the overlap matrix:
Smallest eigenvalue                        ... 7.322e-04
Time for diagonalization                   ...    0.022 sec
Threshold for overlap eigenvalues          ... 1.000e-08
Number of eigenvalues below threshold      ... 0
Time for construction of square roots      ...    0.003 sec
Total time needed                          ...    0.025 sec

-------------------
DFT GRID GENERATION
-------------------

General Integration Accuracy     IntAcc      ...  4.670
Radial Grid Type                 RadialGrid  ... Gauss-Chebyshev
Angular Grid (max. acc.)         AngularGrid ... Lebedev-302
Angular grid pruning method      GridPruning ... 3 (G Style)
Weight generation scheme         WeightScheme... Becke
Basis function cutoff            BFCut       ...    1.0000e-11
Integration weight cutoff        WCut        ...    1.0000e-14
Grids for H and He will be reduced by one unit

# of grid points (after initial pruning)     ...  34956 (   0.0 sec)
# of grid points (after weights+screening)   ...  34728 (   0.0 sec)
nearest neighbour list constructed           ...    0.0 sec
Grid point re-assignment to atoms done       ...    0.0 sec
Grid point division into batches done        ...    0.3 sec
Reduced shell lists constructed in    0.3 sec

Total number of grid points                  ...    34728
Total number of batches                      ...      544
Average number of points per batch           ...       63
Average number of grid points per atom       ...    11576
Average number of shells per batch           ...    14.96 (29.33%)
Average number of basis functions per batch  ...    47.62 (26.91%)
Average number of large shells per batch     ...    10.42 (69.64%)
Average number of large basis fcns per batch ...    28.58 (60.02%)
Average number of aux-shells per batch       ...    14.96 ( 9.78%)
Average number of aux functions per batch    ...    47.62 ( 6.43%)
Maximum spatial batch extension              ...  37.74, 37.74,  4.80 au
Average spatial batch extension              ...   0.53,  0.53,  0.19 au

Time for grid setup =    0.398 sec

------------------------------
INITIAL GUESS: MODEL POTENTIAL
------------------------------
Loading Hartree-Fock densities                     ... done
  calling /sw/apps/orca/orca_4_2_0_linux_x86-64_openmpi314/orca Au03N0_LIN_atom79.inp > Au03N0_LIN_atom79.out in order to generate an atomic fitting density for atom 0 (Au with ECP) on-the-fly... 
    atom 0 (Au), assumed electronic state with S=2: 1s2 2s2 2p6 3s2 3p6 4s2 3d10 4p6 5s2 4d10 5p6 6s1 4f14 5d10           ... done
Calculating cut-offs                               ... done
Setting up the integral package                    ... done
Initializing the effective Hamiltonian             ... done
Starting the Coulomb interaction                   ... done (   0.0 sec)
Reading the grid                                   ... done
Mapping shells                                     ... done
Starting the XC term evaluation                    ... done (   0.0 sec)
  promolecular density results
     # of electrons  =    237.007936022
     EX              =  -1102.052351160
     EC              =     -4.797681174
     EX+EC           =  -1106.850032333
Transforming the Hamiltonian                       ... done (   0.0 sec)
Diagonalizing the Hamiltonian                      ... done (   0.0 sec)
Back transforming the eigenvectors                 ... done (   0.0 sec)
Now organizing SCF variables                       ... done
                      ------------------
                      INITIAL GUESS DONE (   1.9 sec)
                      ------------------
--------------
SCF ITERATIONS
--------------
ITER       Energy         Delta-E        Max-DP      RMS-DP      [F,P]     Damp
  0   -405.9427215452   0.000000000000 0.14230196  0.00184631  0.5513106 0.7000
  1   -405.8466062489   0.096115296267 0.10918896  0.00148292  0.3964629 0.7000
  2   -405.9552833140  -0.108677065076 0.07047103  0.00097303  0.2717162 0.7000
                               ***Turning on DIIS***
  3   -406.0946990996  -0.139415785624 0.04563058  0.00063945  0.1865649 0.7000
  4   -406.1839894399  -0.089290340222 0.03191959  0.00046795  0.1290701 0.7000
  5   -406.2327893673  -0.048799927468 0.08626737  0.00127132  0.0907202 0.0000
  6   -406.2329281964  -0.000138829013 0.01029847  0.00018809  0.0183931 0.0000
  7   -406.2354057590  -0.002477562610 0.00483006  0.00007150  0.0034874 0.0000
  8   -406.2355770705  -0.000171311520 0.00244438  0.00003758  0.0016852 0.0000
  9   -406.2356285734  -0.000051502870 0.00227937  0.00002839  0.0011843 0.0000
 10   -406.2356546594  -0.000026086050 0.00288720  0.00003818  0.0008359 0.0000
 11   -406.2356766880  -0.000022028633 0.00154335  0.00001938  0.0003201 0.0000
 12   -406.2356814558  -0.000004767749 0.00073696  0.00000847  0.0001121 0.0000
 13   -406.2356823297  -0.000000873887 0.00033890  0.00000389  0.0000436 0.0000
 14   -406.2356824885  -0.000000158850 0.00008789  0.00000110  0.0000179 0.0000
 15   -406.2356825086  -0.000000020126 0.00005090  0.00000071  0.0000132 0.0000
 16   -406.2356825156  -0.000000007000 0.00000751  0.00000016  0.0000046 0.0000
 17   -406.2356825166  -0.000000000911 0.00000958  0.00000020  0.0000016 0.0000
                            ***DIIS convergence achieved***

               *****************************************************
               *                     SUCCESS                       *
               *           SCF CONVERGED AFTER  18 CYCLES          *
               *****************************************************


----------------
TOTAL SCF ENERGY
----------------

Total Energy       :         -406.23568252 Eh          -11054.23491 eV

Components:
Nuclear Repulsion  :          187.47735173 Eh            5101.51810 eV
Electronic Energy  :         -593.71303425 Eh          -16155.75300 eV
One Electron Energy:        -1091.25038698 Eh          -29694.43267 eV
Two Electron Energy:          497.53735273 Eh           13538.67966 eV

Virial components:
Potential Energy   :         -544.23273623 Eh          -14809.32564 eV
Kinetic Energy     :          137.99705371 Eh            3755.09074 eV
Virial Ratio       :            3.94379968


DFT components:
N(Alpha)           :       28.999996249843 electrons
N(Beta)            :       27.999996651564 electrons
N(Total)           :       56.999992901407 electrons
E(X)               :      -17.153253116725 Eh       
E(C)               :       -1.510865793354 Eh       
E(XC)              :      -18.664118910079 Eh       
DFET-embed. en.    :        0.000000000000 Eh       

---------------
SCF CONVERGENCE
---------------

  Last Energy change         ...   -6.4489e-10  Tolerance :   1.0000e-08
  Last MAX-Density change    ...    4.0876e-06  Tolerance :   1.0000e-07
  Last RMS-Density change    ...    8.4975e-08  Tolerance :   5.0000e-09
  Last DIIS Error            ...    6.0276e-07  Tolerance :   5.0000e-07

             **** THE GBW FILE WAS UPDATED (Au03N0_LIN.gbw) ****
             **** DENSITY FILE WAS UPDATED (Au03N0_LIN.scfp) ****
             **** ENERGY FILE WAS UPDATED (Au03N0_LIN.en.tmp) ****
----------------------
UHF SPIN CONTAMINATION
----------------------

Warning: in a DFT calculation there is little theoretical justification to 
         calculate <S**2> as in Hartree-Fock theory. We will do it anyways
         but you should keep in mind that the values have only limited relevance

Expectation value of <S**2>     :     0.782483
Ideal value S*(S+1) for S=0.5   :     0.750000
Deviation                       :     0.032483

             **** THE GBW FILE WAS UPDATED (Au03N0_LIN.gbw) ****
             **** DENSITY FILE WAS UPDATED (Au03N0_LIN.scfp) ****
----------------
ORBITAL ENERGIES
----------------
                 SPIN UP ORBITALS
  NO   OCC          E(Eh)            E(eV) 
   0   1.0000      -4.378212      -119.1372 
   1   1.0000      -4.378202      -119.1369 
   2   1.0000      -4.362780      -118.7173 
   3   1.0000      -2.503625       -68.1271 
   4   1.0000      -2.499538       -68.0159 
   5   1.0000      -2.494038       -67.8662 
   6   1.0000      -2.494038       -67.8662 
   7   1.0000      -2.494018       -67.8657 
   8   1.0000      -2.494018       -67.8657 
   9   1.0000      -2.482847       -67.5617 
  10   1.0000      -2.476638       -67.3928 
  11   1.0000      -2.476638       -67.3928 
  12   1.0000      -0.456680       -12.4269 
  13   1.0000      -0.414183       -11.2705 
  14   1.0000      -0.414183       -11.2705 
  15   1.0000      -0.382471       -10.4076 
  16   1.0000      -0.381746       -10.3878 
  17   1.0000      -0.381746       -10.3878 
  18   1.0000      -0.375384       -10.2147 
  19   1.0000      -0.375378       -10.2146 
  20   1.0000      -0.372643       -10.1401 
  21   1.0000      -0.372637       -10.1400 
  22   1.0000      -0.347046        -9.4436 
  23   1.0000      -0.347037        -9.4434 
  24   1.0000      -0.324174        -8.8212 
  25   1.0000      -0.324174        -8.8212 
  26   1.0000      -0.320401        -8.7186 
  27   1.0000      -0.296920        -8.0796 
  28   1.0000      -0.262257        -7.1364 
  29   0.0000      -0.060892        -1.6570 
  30   0.0000      -0.005333        -0.1451 
  31   0.0000      -0.005333        -0.1451 
  32   0.0000       0.020007         0.5444 
  33   0.0000       0.032638         0.8881 
  34   0.0000       0.032638         0.8881 
  35   0.0000       0.103570         2.8183 
  36   0.0000       0.103570         2.8183 
  37   0.0000       0.110429         3.0049 
  38   0.0000       0.134036         3.6473 
  39   0.0000       0.169402         4.6097 
  40   0.0000       0.205738         5.5984 
  41   0.0000       0.208980         5.6866 
  42   0.0000       0.208980         5.6866 
  43   0.0000       0.245121         6.6701 
  44   0.0000       0.245121         6.6701 
  45   0.0000       0.252928         6.8825 
  46   0.0000       0.307786         8.3753 
  47   0.0000       0.307786         8.3753 
  48   0.0000       0.315306         8.5799 
  49   0.0000       0.315307         8.5799 
  50   0.0000       0.344435         9.3725 
  51   0.0000       0.346104         9.4180 
  52   0.0000       0.346105         9.4180 
  53   0.0000       0.357089         9.7169 
  54   0.0000       0.378528        10.3003 
  55   0.0000       0.378528        10.3003 
  56   0.0000       0.435578        11.8527 
  57   0.0000       0.435578        11.8527 
  58   0.0000       0.460332        12.5263 
  59   0.0000       0.473523        12.8852 
  60   0.0000       0.473523        12.8852 
  61   0.0000       0.570060        15.5121 
  62   0.0000       0.615505        16.7487 
  63   0.0000       0.615505        16.7487 
  64   0.0000       0.655413        17.8347 
  65   0.0000       0.690507        18.7897 
  66   0.0000       0.919334        25.0163 
  67   0.0000       1.021247        27.7895 
  68   0.0000       1.021247        27.7895 
  69   0.0000       1.129565        30.7370 
  70   0.0000       1.137351        30.9489 
  71   0.0000       1.137352        30.9489 
  72   0.0000       1.137614        30.9561 
  73   0.0000       1.137614        30.9561 
  74   0.0000       1.163554        31.6619 
  75   0.0000       1.163554        31.6619 
  76   0.0000       1.206767        32.8378 
  77   0.0000       1.206767        32.8378 
  78   0.0000       1.213251        33.0142 
  79   0.0000       1.213251        33.0142 
  80   0.0000       1.217491        33.1296 
  81   0.0000       1.217491        33.1296 
  82   0.0000       1.227713        33.4078 
  83   0.0000       1.227713        33.4078 
  84   0.0000       1.250654        34.0320 
  85   0.0000       1.250654        34.0320 
  86   0.0000       1.268414        34.5153 
  87   0.0000       1.327469        36.1223 
  88   0.0000       1.327470        36.1223 
  89   0.0000       1.341005        36.4906 
  90   0.0000       1.341005        36.4906 
  91   0.0000       1.376033        37.4438 
  92   0.0000       1.499432        40.8016 
  93   0.0000       1.499432        40.8016 
  94   0.0000       1.543427        41.9988 
  95   0.0000       1.543427        41.9988 
  96   0.0000       1.547174        42.1007 
  97   0.0000       1.558692        42.4142 
  98   0.0000       1.575744        42.8782 
  99   0.0000       1.575753        42.8784 
 100   0.0000       1.593769        43.3686 
 101   0.0000       1.593777        43.3689 
 102   0.0000       1.633999        44.4634 
 103   0.0000       1.658088        45.1189 
 104   0.0000       1.658098        45.1191 
 105   0.0000       1.761768        47.9402 
 106   0.0000       1.761768        47.9402 
 107   0.0000       1.851787        50.3897 
 108   0.0000       1.851787        50.3897 
 109   0.0000       2.038903        55.4814 
 110   0.0000       2.199444        59.8499 
 111   0.0000       2.267644        61.7057 
 112   0.0000       2.560522        69.6753 
 113   0.0000       2.933009        79.8112 
 114   0.0000       3.668970        99.8378 
 115   0.0000       3.668970        99.8378 
 116   0.0000       3.695698       100.5650 
 117   0.0000       3.695789       100.5675 
 118   0.0000       3.758320       102.2691 
 119   0.0000       3.758320       102.2691 
 120   0.0000       3.762726       102.3890 
 121   0.0000       3.762726       102.3890 
 122   0.0000       3.767171       102.5099 
 123   0.0000       3.767250       102.5121 
 124   0.0000       3.787178       103.0544 
 125   0.0000       3.787178       103.0544 
 126   0.0000       3.830812       104.2417 
 127   0.0000       3.830812       104.2417 
 128   0.0000       3.862518       105.1044 
 129   0.0000       3.862627       105.1074 
 130   0.0000       3.915688       106.5513 
 131   0.0000       3.974425       108.1496 
 132   0.0000       4.064796       110.6087 
 133   0.0000       4.064796       110.6087 
 134   0.0000       4.157107       113.1206 
 135   0.0000       4.290323       116.7456 
 136   0.0000       4.291936       116.7895 
 137   0.0000       4.291936       116.7895 
 138   0.0000       4.296814       116.9223 
 139   0.0000       4.296860       116.9235 
 140   0.0000       4.302091       117.0658 
 141   0.0000       4.302091       117.0658 
 142   0.0000       4.302200       117.0688 
 143   0.0000       4.302200       117.0688 
 144   0.0000       4.303253       117.0975 
 145   0.0000       4.303292       117.0985 
 146   0.0000       4.305748       117.1654 
 147   0.0000       4.305749       117.1654 
 148   0.0000       4.306002       117.1723 
 149   0.0000       4.306002       117.1723 
 150   0.0000       4.323007       117.6350 
 151   0.0000       4.323007       117.6350 
 152   0.0000       4.324045       117.6632 
 153   0.0000       4.324107       117.6649 
 154   0.0000       4.329515       117.8121 
 155   0.0000       4.329875       117.8219 
 156   0.0000       4.385753       119.3424 
 157   0.0000       4.385753       119.3424 
 158   0.0000       4.398366       119.6856 
 159   0.0000       4.398366       119.6856 
 160   0.0000       4.622037       125.7720 
 161   0.0000       4.635925       126.1499 
 162   0.0000      27.171469       739.3733 
 163   0.0000      27.171469       739.3733 
 164   0.0000      27.496441       748.2162 
 165   0.0000      27.496441       748.2162 
 166   0.0000      27.734658       754.6984 
 167   0.0000      27.734658       754.6984 
 168   0.0000      28.068263       763.7763 
 169   0.0000      28.453624       774.2625 
 170   0.0000      31.327959       852.4771 
 171   0.0000      43.941637      1195.7127 
 172   0.0000      44.236485      1203.7360 
 173   0.0000      44.637411      1214.6457 
 174   0.0000     202.618063      5513.5178 
 175   0.0000     202.743701      5516.9366 
 176   0.0000     202.918140      5521.6833 

                 SPIN DOWN ORBITALS
  NO   OCC          E(Eh)            E(eV) 
   0   1.0000      -4.376657      -119.0949 
   1   1.0000      -4.376643      -119.0945 
   2   1.0000      -4.363832      -118.7459 
   3   1.0000      -2.504279       -68.1449 
   4   1.0000      -2.500317       -68.0371 
   5   1.0000      -2.493980       -67.8646 
   6   1.0000      -2.493980       -67.8646 
   7   1.0000      -2.493929       -67.8633 
   8   1.0000      -2.493929       -67.8633 
   9   1.0000      -2.483999       -67.5931 
  10   1.0000      -2.477824       -67.4250 
  11   1.0000      -2.477824       -67.4250 
  12   1.0000      -0.452754       -12.3201 
  13   1.0000      -0.410528       -11.1710 
  14   1.0000      -0.410528       -11.1710 
  15   1.0000      -0.380495       -10.3538 
  16   1.0000      -0.376575       -10.2471 
  17   1.0000      -0.376575       -10.2471 
  18   1.0000      -0.370059       -10.0698 
  19   1.0000      -0.370053       -10.0696 
  20   1.0000      -0.366521        -9.9735 
  21   1.0000      -0.366515        -9.9734 
  22   1.0000      -0.347322        -9.4511 
  23   1.0000      -0.347313        -9.4509 
  24   1.0000      -0.323846        -8.8123 
  25   1.0000      -0.323846        -8.8123 
  26   1.0000      -0.311881        -8.4867 
  27   1.0000      -0.270292        -7.3550 
  28   0.0000      -0.138900        -3.7797 
  29   0.0000      -0.042675        -1.1613 
  30   0.0000       0.002279         0.0620 
  31   0.0000       0.002279         0.0620 
  32   0.0000       0.030999         0.8435 
  33   0.0000       0.043962         1.1963 
  34   0.0000       0.043962         1.1963 
  35   0.0000       0.103902         2.8273 
  36   0.0000       0.103902         2.8273 
  37   0.0000       0.113712         3.0943 
  38   0.0000       0.142084         3.8663 
  39   0.0000       0.172703         4.6995 
  40   0.0000       0.211864         5.7651 
  41   0.0000       0.217019         5.9054 
  42   0.0000       0.217019         5.9054 
  43   0.0000       0.257745         7.0136 
  44   0.0000       0.258173         7.0253 
  45   0.0000       0.258173         7.0253 
  46   0.0000       0.311639         8.4801 
  47   0.0000       0.311639         8.4801 
  48   0.0000       0.317834         8.6487 
  49   0.0000       0.317835         8.6487 
  50   0.0000       0.351392         9.5619 
  51   0.0000       0.351392         9.5619 
  52   0.0000       0.352207         9.5840 
  53   0.0000       0.361191         9.8285 
  54   0.0000       0.383077        10.4241 
  55   0.0000       0.383077        10.4241 
  56   0.0000       0.437115        11.8945 
  57   0.0000       0.437115        11.8945 
  58   0.0000       0.464468        12.6388 
  59   0.0000       0.477989        13.0067 
  60   0.0000       0.477989        13.0067 
  61   0.0000       0.576536        15.6883 
  62   0.0000       0.618837        16.8394 
  63   0.0000       0.618837        16.8394 
  64   0.0000       0.661435        17.9986 
  65   0.0000       0.691203        18.8086 
  66   0.0000       0.925129        25.1740 
  67   0.0000       1.026387        27.9294 
  68   0.0000       1.026387        27.9294 
  69   0.0000       1.136189        30.9173 
  70   0.0000       1.143314        31.1111 
  71   0.0000       1.143314        31.1112 
  72   0.0000       1.147204        31.2170 
  73   0.0000       1.147204        31.2170 
  74   0.0000       1.173453        31.9313 
  75   0.0000       1.173453        31.9313 
  76   0.0000       1.206487        32.8302 
  77   0.0000       1.206487        32.8302 
  78   0.0000       1.222347        33.2618 
  79   0.0000       1.222347        33.2618 
  80   0.0000       1.228488        33.4289 
  81   0.0000       1.228488        33.4289 
  82   0.0000       1.237433        33.6723 
  83   0.0000       1.237433        33.6723 
  84   0.0000       1.251248        34.0482 
  85   0.0000       1.251248        34.0482 
  86   0.0000       1.272830        34.6355 
  87   0.0000       1.330445        36.2032 
  88   0.0000       1.330446        36.2033 
  89   0.0000       1.348568        36.6964 
  90   0.0000       1.348568        36.6964 
  91   0.0000       1.383730        37.6532 
  92   0.0000       1.502211        40.8772 
  93   0.0000       1.502211        40.8772 
  94   0.0000       1.548257        42.1302 
  95   0.0000       1.548257        42.1302 
  96   0.0000       1.549071        42.1524 
  97   0.0000       1.563086        42.5337 
  98   0.0000       1.579905        42.9914 
  99   0.0000       1.579913        42.9916 
 100   0.0000       1.601318        43.5741 
 101   0.0000       1.601324        43.5742 
 102   0.0000       1.637946        44.5708 
 103   0.0000       1.659868        45.1673 
 104   0.0000       1.659877        45.1675 
 105   0.0000       1.767286        48.0903 
 106   0.0000       1.767286        48.0903 
 107   0.0000       1.854047        50.4512 
 108   0.0000       1.854047        50.4512 
 109   0.0000       2.043677        55.6113 
 110   0.0000       2.205950        60.0270 
 111   0.0000       2.269680        61.7611 
 112   0.0000       2.566656        69.8423 
 113   0.0000       2.933645        79.8285 
 114   0.0000       3.668980        99.8380 
 115   0.0000       3.668980        99.8380 
 116   0.0000       3.696078       100.5754 
 117   0.0000       3.696170       100.5779 
 118   0.0000       3.758912       102.2852 
 119   0.0000       3.758912       102.2852 
 120   0.0000       3.763582       102.4123 
 121   0.0000       3.763582       102.4123 
 122   0.0000       3.768155       102.5367 
 123   0.0000       3.768234       102.5389 
 124   0.0000       3.786715       103.0417 
 125   0.0000       3.786715       103.0417 
 126   0.0000       3.830961       104.2458 
 127   0.0000       3.830961       104.2458 
 128   0.0000       3.862715       105.1098 
 129   0.0000       3.862825       105.1128 
 130   0.0000       3.915686       106.5512 
 131   0.0000       3.974256       108.1450 
 132   0.0000       4.065339       110.6235 
 133   0.0000       4.065339       110.6235 
 134   0.0000       4.158122       113.1482 
 135   0.0000       4.291013       116.7644 
 136   0.0000       4.293109       116.8214 
 137   0.0000       4.293109       116.8214 
 138   0.0000       4.298710       116.9738 
 139   0.0000       4.298756       116.9751 
 140   0.0000       4.304984       117.1446 
 141   0.0000       4.304984       117.1446 
 142   0.0000       4.305100       117.1477 
 143   0.0000       4.305100       117.1477 
 144   0.0000       4.305467       117.1577 
 145   0.0000       4.305505       117.1588 
 146   0.0000       4.309004       117.2540 
 147   0.0000       4.309004       117.2540 
 148   0.0000       4.309260       117.2609 
 149   0.0000       4.309260       117.2609 
 150   0.0000       4.322145       117.6115 
 151   0.0000       4.322145       117.6115 
 152   0.0000       4.323053       117.6363 
 153   0.0000       4.323114       117.6379 
 154   0.0000       4.329219       117.8040 
 155   0.0000       4.329578       117.8138 
 156   0.0000       4.386984       119.3759 
 157   0.0000       4.386984       119.3759 
 158   0.0000       4.397478       119.6615 
 159   0.0000       4.397478       119.6615 
 160   0.0000       4.621732       125.7637 
 161   0.0000       4.636574       126.1676 
 162   0.0000      27.172669       739.4059 
 163   0.0000      27.172669       739.4059 
 164   0.0000      27.498150       748.2627 
 165   0.0000      27.498150       748.2627 
 166   0.0000      27.735385       754.7182 
 167   0.0000      27.735385       754.7182 
 168   0.0000      28.068563       763.7844 
 169   0.0000      28.454067       774.2745 
 170   0.0000      31.327912       852.4758 
 171   0.0000      43.941499      1195.7090 
 172   0.0000      44.236144      1203.7267 
 173   0.0000      44.637509      1214.6484 
 174   0.0000     202.618881      5513.5401 
 175   0.0000     202.743699      5516.9365 
 176   0.0000     202.920473      5521.7468 

                    ********************************
                    * MULLIKEN POPULATION ANALYSIS *
                    ********************************

--------------------------------------------
MULLIKEN ATOMIC CHARGES AND SPIN POPULATIONS
--------------------------------------------
   0 Au:   -0.103381   -0.098158
   1 Au:    0.051690    0.549080
   2 Au:    0.051692    0.549079
Sum of atomic charges         :   -0.0000000
Sum of atomic spin populations:    1.0000000

-----------------------------------------------------
MULLIKEN REDUCED ORBITAL CHARGES AND SPIN POPULATIONS
-----------------------------------------------------
CHARGE
  0 Aus       :     3.110193  s :     3.110193
      pz      :     2.108943  p :     6.134025
      px      :     2.012541
      py      :     2.012541
      dz2     :     1.891545  d :     9.846834
      dxz     :     1.978313
      dyz     :     1.978313
      dx2y2   :     1.999332
      dxy     :     1.999332
      f0      :     0.005132  f :     0.012088
      f+1     :     0.003192
      f-1     :     0.003192
      f+2     :     0.000285
      f-2     :     0.000285
      f+3     :     0.000000
      f-3     :     0.000000
      g0      :     0.000102  g :     0.000242
      g+1     :     0.000060
      g-1     :     0.000060
      g+2     :     0.000010
      g-2     :     0.000010
      g+3     :     0.000000
      g-3     :     0.000000
      g+4     :     0.000000
      g-4     :     0.000000
  1 Aus       :     2.973503  s :     2.973503
      pz      :     2.025613  p :     6.043982
      px      :     2.009185
      py      :     2.009185
      dz2     :     1.940499  d :     9.924384
      dxz     :     1.991948
      dyz     :     1.991948
      dx2y2   :     1.999994
      dxy     :     1.999994
      f0      :     0.002382  f :     0.006327
      f+1     :     0.001784
      f-1     :     0.001784
      f+2     :     0.000188
      f-2     :     0.000188
      f+3     :     0.000000
      f-3     :     0.000000
      g0      :     0.000047  g :     0.000115
      g+1     :     0.000030
      g-1     :     0.000030
      g+2     :     0.000004
      g-2     :     0.000004
      g+3     :     0.000000
      g-3     :     0.000000
      g+4     :     0.000000
      g-4     :     0.000000
  2 Aus       :     2.973501  s :     2.973501
      pz      :     2.025612  p :     6.043981
      px      :     2.009185
      py      :     2.009185
      dz2     :     1.940499  d :     9.924384
      dxz     :     1.991948
      dyz     :     1.991948
      dx2y2   :     1.999994
      dxy     :     1.999994
      f0      :     0.002382  f :     0.006327
      f+1     :     0.001784
      f-1     :     0.001784
      f+2     :     0.000188
      f-2     :     0.000188
      f+3     :     0.000000
      f-3     :     0.000000
      g0      :     0.000047  g :     0.000115
      g+1     :     0.000030
      g-1     :     0.000030
      g+2     :     0.000004
      g-2     :     0.000004
      g+3     :     0.000000
      g-3     :     0.000000
      g+4     :     0.000000
      g-4     :     0.000000

SPIN
  0 Aus       :    -0.164627  s :    -0.164627
      pz      :     0.086933  p :     0.086210
      px      :    -0.000361
      py      :    -0.000361
      dz2     :    -0.012871  d :    -0.020210
      dxz     :    -0.003575
      dyz     :    -0.003575
      dx2y2   :    -0.000095
      dxy     :    -0.000095
      f0      :     0.000365  f :     0.000469
      f+1     :     0.000047
      f-1     :     0.000047
      f+2     :     0.000005
      f-2     :     0.000005
      f+3     :    -0.000000
      f-3     :    -0.000000
      g0      :     0.000000  g :     0.000000
      g+1     :     0.000000
      g-1     :     0.000000
      g+2     :    -0.000000
      g-2     :    -0.000000
      g+3     :    -0.000000
      g-3     :    -0.000000
      g+4     :     0.000000
      g-4     :    -0.000000
  1 Aus       :     0.559127  s :     0.559127
      pz      :    -0.005339  p :    -0.002113
      px      :     0.001613
      py      :     0.001613
      dz2     :    -0.008719  d :    -0.008087
      dxz     :     0.000277
      dyz     :     0.000277
      dx2y2   :     0.000039
      dxy     :     0.000039
      f0      :     0.000031  f :     0.000153
      f+1     :     0.000055
      f-1     :     0.000055
      f+2     :     0.000006
      f-2     :     0.000006
      f+3     :    -0.000000
      f-3     :    -0.000000
      g0      :    -0.000001  g :    -0.000001
      g+1     :    -0.000000
      g-1     :    -0.000000
      g+2     :    -0.000000
      g-2     :    -0.000000
      g+3     :    -0.000000
      g-3     :    -0.000000
      g+4     :     0.000000
      g-4     :    -0.000000
  2 Aus       :     0.559127  s :     0.559127
      pz      :    -0.005339  p :    -0.002113
      px      :     0.001613
      py      :     0.001613
      dz2     :    -0.008720  d :    -0.008087
      dxz     :     0.000277
      dyz     :     0.000277
      dx2y2   :     0.000039
      dxy     :     0.000039
      f0      :     0.000031  f :     0.000153
      f+1     :     0.000055
      f-1     :     0.000055
      f+2     :     0.000006
      f-2     :     0.000006
      f+3     :    -0.000000
      f-3     :    -0.000000
      g0      :    -0.000001  g :    -0.000001
      g+1     :    -0.000000
      g-1     :    -0.000000
      g+2     :    -0.000000
      g-2     :    -0.000000
      g+3     :    -0.000000
      g-3     :    -0.000000
      g+4     :     0.000000
      g-4     :    -0.000000


                     *******************************
                     * LOEWDIN POPULATION ANALYSIS *
                     *******************************

-------------------------------------------
LOEWDIN ATOMIC CHARGES AND SPIN POPULATIONS
-------------------------------------------
   0 Au:   -0.191065    0.278910
   1 Au:    0.095532    0.360545
   2 Au:    0.095532    0.360545

----------------------------------------------------
LOEWDIN REDUCED ORBITAL CHARGES AND SPIN POPULATIONS
----------------------------------------------------
CHARGE
  0 Aus       :     2.834167  s :     2.834167
      pz      :     2.383669  p :     6.418636
      px      :     2.017483
      py      :     2.017483
      dz2     :     1.978173  d :     9.913782
      dxz     :     1.968550
      dyz     :     1.968550
      dx2y2   :     1.999255
      dxy     :     1.999255
      f0      :     0.012620  f :     0.024128
      f+1     :     0.005349
      f-1     :     0.005349
      f+2     :     0.000404
      f-2     :     0.000404
      f+3     :     0.000000
      f-3     :     0.000000
      g0      :     0.000155  g :     0.000353
      g+1     :     0.000088
      g-1     :     0.000088
      g+2     :     0.000011
      g-2     :     0.000011
      g+3     :     0.000000
      g-3     :     0.000000
      g+4     :     0.000000
      g-4     :     0.000000
  1 Aus       :     2.811691  s :     2.811691
      pz      :     2.103193  p :     6.131695
      px      :     2.014251
      py      :     2.014251
      dz2     :     1.975915  d :     9.949426
      dxz     :     1.986847
      dyz     :     1.986847
      dx2y2   :     1.999908
      dxy     :     1.999908
      f0      :     0.004735  f :     0.011484
      f+1     :     0.003123
      f-1     :     0.003123
      f+2     :     0.000252
      f-2     :     0.000252
      f+3     :     0.000000
      f-3     :     0.000000
      g0      :     0.000075  g :     0.000172
      g+1     :     0.000044
      g-1     :     0.000044
      g+2     :     0.000005
      g-2     :     0.000005
      g+3     :     0.000000
      g-3     :     0.000000
      g+4     :     0.000000
      g-4     :     0.000000
  2 Aus       :     2.811691  s :     2.811691
      pz      :     2.103193  p :     6.131695
      px      :     2.014251
      py      :     2.014251
      dz2     :     1.975915  d :     9.949426
      dxz     :     1.986847
      dyz     :     1.986847
      dx2y2   :     1.999908
      dxy     :     1.999908
      f0      :     0.004735  f :     0.011484
      f+1     :     0.003123
      f-1     :     0.003123
      f+2     :     0.000252
      f-2     :     0.000252
      f+3     :     0.000000
      f-3     :     0.000000
      g0      :     0.000075  g :     0.000172
      g+1     :     0.000044
      g-1     :     0.000044
      g+2     :     0.000005
      g-2     :     0.000005
      g+3     :     0.000000
      g-3     :     0.000000
      g+4     :     0.000000
      g-4     :     0.000000

SPIN
  0 Aus       :    -0.065511  s :    -0.065511
      pz      :     0.342480  p :     0.342655
      px      :     0.000088
      py      :     0.000088
      dz2     :     0.004811  d :    -0.000357
      dxz     :    -0.002598
      dyz     :    -0.002598
      dx2y2   :     0.000014
      dxy     :     0.000014
      f0      :     0.001858  f :     0.002117
      f+1     :     0.000118
      f-1     :     0.000118
      f+2     :     0.000011
      f-2     :     0.000011
      f+3     :    -0.000000
      f-3     :    -0.000000
      g0      :     0.000003  g :     0.000005
      g+1     :     0.000001
      g-1     :     0.000001
      g+2     :    -0.000000
      g-2     :    -0.000000
      g+3     :    -0.000000
      g-3     :    -0.000000
      g+4     :     0.000000
      g-4     :    -0.000000
  1 Aus       :     0.386210  s :     0.386210
      pz      :    -0.018760  p :    -0.015876
      px      :     0.001442
      py      :     0.001442
      dz2     :    -0.008976  d :    -0.009559
      dxz     :    -0.000275
      dyz     :    -0.000275
      dx2y2   :    -0.000016
      dxy     :    -0.000016
      f0      :    -0.000291  f :    -0.000226
      f+1     :     0.000029
      f-1     :     0.000029
      f+2     :     0.000004
      f-2     :     0.000004
      f+3     :    -0.000000
      f-3     :    -0.000000
      g0      :    -0.000003  g :    -0.000004
      g+1     :    -0.000000
      g-1     :    -0.000000
      g+2     :    -0.000000
      g-2     :    -0.000000
      g+3     :    -0.000000
      g-3     :    -0.000000
      g+4     :     0.000000
      g-4     :    -0.000000
  2 Aus       :     0.386210  s :     0.386210
      pz      :    -0.018760  p :    -0.015876
      px      :     0.001442
      py      :     0.001442
      dz2     :    -0.008976  d :    -0.009559
      dxz     :    -0.000275
      dyz     :    -0.000275
      dx2y2   :    -0.000016
      dxy     :    -0.000016
      f0      :    -0.000291  f :    -0.000226
      f+1     :     0.000029
      f-1     :     0.000029
      f+2     :     0.000004
      f-2     :     0.000004
      f+3     :    -0.000000
      f-3     :    -0.000000
      g0      :    -0.000003  g :    -0.000004
      g+1     :    -0.000000
      g-1     :    -0.000000
      g+2     :    -0.000000
      g-2     :    -0.000000
      g+3     :    -0.000000
      g-3     :    -0.000000
      g+4     :     0.000000
      g-4     :    -0.000000


                      *****************************
                      * MAYER POPULATION ANALYSIS *
                      *****************************

  NA   - Mulliken gross atomic population
  ZA   - Total nuclear charge
  QA   - Mulliken gross atomic charge
  VA   - Mayer's total valence
  BVA  - Mayer's bonded valence
  FA   - Mayer's free valence

  ATOM       NA         ZA         QA         VA         BVA        FA
  0 Au    19.1034    19.0000    -0.1034     1.3686     1.3314     0.0372
  1 Au    18.9483    19.0000     0.0517     1.1587     0.8405     0.3182
  2 Au    18.9483    19.0000     0.0517     1.1587     0.8405     0.3182

  Mayer bond orders larger than 0.100000
B(  0-Au,  1-Au) :   0.6657 B(  0-Au,  2-Au) :   0.6657 B(  1-Au,  2-Au) :   0.1748 


-------
TIMINGS
-------

Total SCF time: 0 days 0 hours 0 min 8 sec 

Total time                  ....       8.874 sec
Sum of individual times     ....       8.672 sec  ( 97.7%)

Fock matrix formation       ....       6.565 sec  ( 74.0%)
  XC integration            ....       0.907 sec  ( 13.8% of F)
    Basis function eval.    ....       0.076 sec  (  8.3% of XC)
    Density eval.           ....       0.086 sec  (  9.4% of XC)
    XC-Functional eval.     ....       0.024 sec  (  2.7% of XC)
    XC-Potential eval.      ....       0.163 sec  ( 17.9% of XC)
Diagonalization             ....       0.155 sec  (  1.7%)
Density matrix formation    ....       0.024 sec  (  0.3%)
Population analysis         ....       0.011 sec  (  0.1%)
Initial guess               ....       1.466 sec  ( 16.5%)
Orbital Transformation      ....       0.000 sec  (  0.0%)
Orbital Orthonormalization  ....       0.000 sec  (  0.0%)
DIIS solution               ....       0.052 sec  (  0.6%)
Grid generation             ....       0.398 sec  (  4.5%)


           ************************************************************
           *        Program running with 24 parallel MPI-processes    *
           *              working on a common directory               *
           ************************************************************

------------------------------------------------------------------------------
                                ORCA  MP2 
------------------------------------------------------------------------------

Freezing NCore=0 chemical core electrons

----------------------
RI-MP2 ENERGY+GRADIENT
----------------------
Dimension of the basis                    ...  177
Memory devoted to MP2                     ... 5000 MB   
Data format for buffers                   ... DOUBLE
Compression type for matrix containers    ... UNCOMPRESSED
Overall scaling of the MP2 energy         ...   2.700e-01
Calculating two index integrals           ... done (    0.008 sec)
Cholesky decomposition of the V-matrix    ... done
Cholesky decomposition of V**-1           ... done (    0.013 sec)

-----------------
RI-TRANSFORMATION (AUX index driven)
-----------------

Dimension of the orbital-basis         ... 177
Dimension of the aux-basis             ... 579
Transformation of internal MOs         ...    0-  28
Transformation of internal/external MOs...    0-  28 to   29- 176
Number Format for Storage              ... Double (8 Byte)
Integral mode                          ... Direct

First Phase: integral generation and transformation of MO indices
  Aux angular momentum 0               ... done (    0.002 sec)
  Aux angular momentum 1               ... done (    0.003 sec)
  Aux angular momentum 2               ... done (    0.002 sec)
  Aux angular momentum 3               ... done (    0.004 sec)
  Aux angular momentum 4               ... done (    0.005 sec)
  Aux angular momentum 5               ... done (    0.008 sec)
  Aux angular momentum 6               ... done (    0.011 sec)
Closing buffer VIJ ( 0.00 GB; CompressionRatio= 1.00)
Closing buffer VIA ( 0.02 GB; CompressionRatio= 1.00)
  Phase 1 completed in     0.107 sec
Second Phase: sorting and transformation of aux index

IJ-Transformation
Memory available                       ... 4990 MB 
Max. # MO pairs treated in a batch     ... 2    
# of internal orbitals                 ... 29
# batches for internal orbitals        ... 1
Closing buffer IJV ( 0.00 GB; CompressionRatio= 1.00)
(ij|v) transformation done in     0.004 sec

IA-Transformation
Memory available                       ... 4990 MB 
Max. # MO pairs treated in a batch     ... 2    
# of internal orbitals                 ... 29
# batches for internal orbitals        ... 1
Closing buffer IAV ( 0.00 GB; CompressionRatio= 1.00)
(ia|v) transformation done in     0.013 sec

  Phase 2 completed in     0.043 sec
RI-Integral transformation completed in     0.152 sec

-----------------
RI-TRANSFORMATION (AUX index driven)
-----------------

Dimension of the orbital-basis         ... 177
Dimension of the aux-basis             ... 579
Transformation of internal MOs         ...    0-  27
Transformation of internal/external MOs...    0-  27 to   28- 176
Number Format for Storage              ... Double (8 Byte)
Integral mode                          ... Direct

First Phase: integral generation and transformation of MO indices
  Aux angular momentum 0               ... done (    0.002 sec)
  Aux angular momentum 1               ... done (    0.003 sec)
  Aux angular momentum 2               ... done (    0.002 sec)
  Aux angular momentum 3               ... done (    0.003 sec)
  Aux angular momentum 4               ... done (    0.005 sec)
  Aux angular momentum 5               ... done (    0.008 sec)
  Aux angular momentum 6               ... done (    0.011 sec)
Closing buffer VIJ ( 0.00 GB; CompressionRatio= 1.00)
Closing buffer VIA ( 0.02 GB; CompressionRatio= 1.00)
  Phase 1 completed in     0.118 sec
Second Phase: sorting and transformation of aux index

IJ-Transformation
Memory available                       ... 4990 MB 
Max. # MO pairs treated in a batch     ... 2    
# of internal orbitals                 ... 28
# batches for internal orbitals        ... 1
Closing buffer IJV ( 0.00 GB; CompressionRatio= 1.00)
(ij|v) transformation done in     0.005 sec

IA-Transformation
Memory available                       ... 4990 MB 
Max. # MO pairs treated in a batch     ... 2    
# of internal orbitals                 ... 28
# batches for internal orbitals        ... 1
Closing buffer IAV ( 0.00 GB; CompressionRatio= 1.00)
(ia|v) transformation done in     0.013 sec

  Phase 2 completed in     0.045 sec
RI-Integral transformation completed in     0.165 sec
Opening buffers                              ... done

Starting loop over batches of integrals:

Operator 0  - window                       ... (  0- 28)x( 29-176)
Operator 0  - Memory available             ...  5000 MB
Operator 0  - Memory needed per MO         ...   1.3 MB
Operator 0  - Number of orbitals per batch ... 2
Operator 0  - Number of batches            ... 1

OPERATOR  0   PASS   0:  MOs     0 ...    1 +    2 ...    3 +    4 ...    5 +    6 ...    7
                            +    8 ...    9 +   10 ...   11 +   12 ...   13 +   14 ...   15
                            +   16 ...   17 +   18 ...   19 +   20 ...   21 +   22 ...   23
                            +   24 ...   25 +   26 ...   27 +   28 ...   28
  Reading integrals       ... ok
Closing buffer GIPV ( 0.00 GB; CompressionRatio= 1.00)

Operator 1  - window                       ... (  0- 27)x( 28-176)
Operator 1  - Memory available             ...  5000 MB
Operator 1  - Memory needed per MO         ...   1.3 MB
Operator 1  - Number of orbitals per batch ... 2
Operator 1  - Number of batches            ... 1

OPERATOR  1   PASS   0:  MOs     0 ...    1 +    2 ...    3 +    4 ...    5 +    6 ...    7
                            +    8 ...    9 +   10 ...   11 +   12 ...   13 +   14 ...   15
                            +   16 ...   17 +   18 ...   19 +   20 ...   21 +   22 ...   23
                            +   24 ...   25 +   26 ...   27
  Reading integrals       ... ok
Closing buffer GIPV ( 0.00 GB; CompressionRatio= 1.00)
Time spent in pair loops =     1.015 sec

Correlation energy components}
 E2 and T2 for alpha/alpha pairs :     -0.103576200 Eh      0.000000000
 E2 and T2 for beta/beta   pairs :     -0.096176044 Eh      0.000000000
 E2 and T2 for alpha/beta  pairs :     -0.386043184 Eh      0.000000000


-----------------------------------------------
 RI-MP2 CORRELATION ENERGY:     -0.585795427 Eh
-----------------------------------------------


---------------------
MP2 DENSITY FORMATION
---------------------

Completing the external part of the density      ... done
Storing the unrelaxed density                    ... done

Calculating the xc-kernel                        ... done
Calculating G(D)                                 ... done
Completing the Lagrangian                        ... done
Solving the Z-vector equations                   ... 

------------------------------------------------------------------------------
                           ORCA CP-SCF CALCULATION
------------------------------------------------------------------------------

Input orbitals are from        ... Au03N0_LIN.gbw
Input Perturbation             ... Au03N0_LIN.pin.tmp
Wavefunction output            ... Au03N0_LIN.pout.tmp
Perturbation mode              ... Real perturbation (singlet)
Solver                         ... POPLE
Max. number of iterations      ... 128
Convergence tolerance          ... 1.000e-08
Integral handling              ... Direct
Number of perturbations        ... 1
Number of operators            ... 2
Orbital ranges used for CP-SCF:
 Operator 0:  Orbitals   0... 28  to  29...176
 Operator 1:  Orbitals   0... 27  to  28...176
DFT calculation                         ... on
Exchange functional (SCF)               ... B88
Exchange functional (CP-SCF)            ... B88
   X-Alpha parameter    XAlpha (SCF)    ...  0.666667
   X-Alpha parameter    XAlpha (CP-SCF) ...  0.666667
   Becke's b parameter  XBeta (SCF)     ...  0.004200
   Becke's b parameter  XBeta (CP-SCF)  ...  0.004200
Correlation functional (SCF)            ... LYP
Correlation functional (CP-SCF)         ... LYP
 LDA part of GGA corr.  LDAOpt (SCF)    ... VWN-3
 LDA part of GGA corr.  LDAOpt (CP-SCF) ... VWN-3
Hybrid DFT                              ... on
   Exchange mixing (SCF)                ...  0.530
   Exchange mixing (CP-SCF)             ...  0.530
   GGA exch. scaling(SCF)               ...  0.470
   GGA exch. scaling (CP-SCF)           ...  0.470
   GGA corr. scaling (SCF)              ...  0.730
   GGA corr. scaling (CP-SCF)           ...  0.730
Variables per vector in CP-SCF ... 8464
Number of vectors sought       ... 1
Recalculating density on grid  ... done
Calculating the xc-kernel      ... done
     CP-SCF ITERATION   0: 
     CP-SCF ITERATION   1:      0.000315909799
     CP-SCF ITERATION   2:      0.000132266722
     CP-SCF ITERATION   3:      0.000006371429
     CP-SCF ITERATION   4:      0.000002037460
     CP-SCF ITERATION   5:      0.000000456330
     CP-SCF ITERATION   6:      0.000000021625
     CP-SCF ITERATION   7:      0.000000003067
done
Finalizing the relaxed density                   ... done
Transforming P to the AO basis                   ... done
Storing the relaxed density                      ... done

------------------------------------
ENERGY WEIGHTED DENSITY FINALIZATION
------------------------------------

Gathering the parts of the W-matrix              ... done
Forming the Z-density                            ... done
Transforming Z to the AO basis                   ... done
Calculating G(Z)                                 ... done
Finalizing the W-matrix                          ... done
Transforming W to the AO basis and storing       ... done
Entering the RIJONX and RIJCOSX sections
Starting the three-index derivative integrals:
Operator 0  - Memory available             ...  5000 MB
Operator 0  - Memory needed per MO         ...   1.6 MB
Operator 0  - Number of orbitals per batch ... 2
Operator 0  - Number of batches            ... 1

OPERATOR  0   PASS   0:  MOs     0 ...    1 +    2 ...    3 +    4 ...    5 +    6 ...    7
                            +    8 ...    9 +   10 ...   11 +   12 ...   13 +   14 ...   15
                            +   16 ...   17 +   18 ...   19 +   20 ...   21 +   22 ...   23
                            +   24 ...   25 +   26 ...   27 +   28 ...   28
Operator 1  - Memory available             ...  5000 MB
Operator 1  - Memory needed per MO         ...   1.6 MB
Operator 1  - Number of orbitals per batch ... 2
Operator 1  - Number of batches            ... 1

OPERATOR  1   PASS   0:  MOs     0 ...    1 +    2 ...    3 +    4 ...    5 +    6 ...    7
                            +    8 ...    9 +   10 ...   11 +   12 ...   13 +   14 ...   15
                            +   16 ...   17 +   18 ...   19 +   20 ...   21 +   22 ...   23
                            +   24 ...   25 +   26 ...   27

----------------------------------
MP2 DERIVATIVE INTEGRAL GENERATION
----------------------------------


Input Correlated Electron Density   ... Au03N0_LIN.pmp2re
Input Energy Weighted Density       ... Au03N0_LIN.wmp2.tmp
Input SCF Electron Density          ... Au03N0_LIN.scfp

One-Electron Terms    ...
  ECP gradient                                           ... One-Electron Terms done
Prescreening matrices              ... done
Exchange-correlation gradient    ... done
Dispersion correction            ... done

                *********************************************
                * UNRELAXED MP2 DENSITY POPULATION ANALYSIS *
                *********************************************

------------------------------------------------------------------------------
                           ORCA POPULATION ANALYSIS
------------------------------------------------------------------------------
Input electron density              ... Au03N0_LIN.pmp2ur
Input spin density                  ... Au03N0_LIN.rmp2ur
BaseName (.gbw .S,...)              ... Au03N0_LIN

                    ********************************
                    * MULLIKEN POPULATION ANALYSIS *
                    ********************************

------------------------------------------
MULLIKEN ATOMIC CHARGES AND SPIN DENSITIES
------------------------------------------
   0 Au:   -0.102350   -0.092964
   1 Au:    0.051174    0.546482
   2 Au:    0.051176    0.546481
Sum of atomic charges       :   -0.0000000
Sum of atomic spin densities:    1.0000000

---------------------------------------------------
MULLIKEN REDUCED ORBITAL CHARGES AND SPIN DENSITIES
---------------------------------------------------
CHARGE
  0 Aus       :     3.098119  s :     3.098119
      pz      :     2.113359  p :     6.155779
      px      :     2.021210
      py      :     2.021210
      dz2     :     1.877962  d :     9.786877
      dxz     :     1.966199
      dyz     :     1.966199
      dx2y2   :     1.988259
      dxy     :     1.988259
      f0      :     0.011628  f :     0.058063
      f+1     :     0.009862
      f-1     :     0.009862
      f+2     :     0.006875
      f-2     :     0.006875
      f+3     :     0.006480
      f-3     :     0.006480
      g0      :     0.000476  g :     0.003512
      g+1     :     0.000434
      g-1     :     0.000434
      g+2     :     0.000376
      g-2     :     0.000376
      g+3     :     0.000359
      g-3     :     0.000359
      g+4     :     0.000349
      g-4     :     0.000349
  1 Aus       :     2.965713  s :     2.965713
      pz      :     2.029701  p :     6.061304
      px      :     2.015802
      py      :     2.015802
      dz2     :     1.927737  d :     9.867657
      dxz     :     1.980648
      dyz     :     1.980648
      dx2y2   :     1.989312
      dxy     :     1.989312
      f0      :     0.008710  f :     0.050803
      f+1     :     0.008188
      f-1     :     0.008188
      f+2     :     0.006556
      f-2     :     0.006556
      f+3     :     0.006302
      f-3     :     0.006302
      g0      :     0.000411  g :     0.003349
      g+1     :     0.000394
      g-1     :     0.000394
      g+2     :     0.000365
      g-2     :     0.000365
      g+3     :     0.000357
      g-3     :     0.000357
      g+4     :     0.000353
      g-4     :     0.000353
  2 Aus       :     2.965712  s :     2.965712
      pz      :     2.029701  p :     6.061304
      px      :     2.015802
      py      :     2.015802
      dz2     :     1.927737  d :     9.867657
      dxz     :     1.980648
      dyz     :     1.980648
      dx2y2   :     1.989312
      dxy     :     1.989312
      f0      :     0.008710  f :     0.050803
      f+1     :     0.008188
      f-1     :     0.008188
      f+2     :     0.006556
      f-2     :     0.006556
      f+3     :     0.006302
      f-3     :     0.006302
      g0      :     0.000411  g :     0.003349
      g+1     :     0.000394
      g-1     :     0.000394
      g+2     :     0.000365
      g-2     :     0.000365
      g+3     :     0.000357
      g-3     :     0.000357
      g+4     :     0.000353
      g-4     :     0.000353

SPIN
  0 Aus       :    -0.155261  s :    -0.155261
      pz      :     0.083298  p :     0.081948
      px      :    -0.000675
      py      :    -0.000675
      dz2     :    -0.012400  d :    -0.020228
      dxz     :    -0.003704
      dyz     :    -0.003704
      dx2y2   :    -0.000210
      dxy     :    -0.000210
      f0      :     0.000363  f :     0.000593
      f+1     :     0.000077
      f-1     :     0.000077
      f+2     :     0.000026
      f-2     :     0.000026
      f+3     :     0.000013
      f-3     :     0.000013
      g0      :    -0.000003  g :    -0.000016
      g+1     :    -0.000003
      g-1     :    -0.000003
      g+2     :    -0.000003
      g-2     :    -0.000003
      g+3     :    -0.000001
      g-3     :    -0.000001
      g+4     :     0.000000
      g-4     :     0.000000
  1 Aus       :     0.549671  s :     0.549671
      pz      :    -0.003707  p :     0.002308
      px      :     0.003008
      py      :     0.003008
      dz2     :    -0.007817  d :    -0.005253
      dxz     :     0.000780
      dyz     :     0.000780
      dx2y2   :     0.000502
      dxy     :     0.000502
      f0      :    -0.000035  f :    -0.000267
      f+1     :    -0.000007
      f-1     :    -0.000007
      f+2     :    -0.000049
      f-2     :    -0.000049
      f+3     :    -0.000060
      f-3     :    -0.000060
      g0      :     0.000001  g :     0.000022
      g+1     :     0.000001
      g-1     :     0.000001
      g+2     :     0.000002
      g-2     :     0.000002
      g+3     :     0.000003
      g-3     :     0.000003
      g+4     :     0.000004
      g-4     :     0.000004
  2 Aus       :     0.549671  s :     0.549671
      pz      :    -0.003707  p :     0.002308
      px      :     0.003008
      py      :     0.003008
      dz2     :    -0.007817  d :    -0.005253
      dxz     :     0.000780
      dyz     :     0.000780
      dx2y2   :     0.000502
      dxy     :     0.000502
      f0      :    -0.000035  f :    -0.000267
      f+1     :    -0.000007
      f-1     :    -0.000007
      f+2     :    -0.000049
      f-2     :    -0.000049
      f+3     :    -0.000060
      f-3     :    -0.000060
      g0      :     0.000001  g :     0.000022
      g+1     :     0.000001
      g-1     :     0.000001
      g+2     :     0.000002
      g-2     :     0.000002
      g+3     :     0.000003
      g-3     :     0.000003
      g+4     :     0.000004
      g-4     :     0.000004


                     *******************************
                     * LOEWDIN POPULATION ANALYSIS *
                     *******************************

-----------------------------------------
LOEWDIN ATOMIC CHARGES AND SPIN DENSITIES
-----------------------------------------
   0 Au:   -0.188135    0.275333
   1 Au:    0.094067    0.362334
   2 Au:    0.094067    0.362334

--------------------------------------------------
LOEWDIN REDUCED ORBITAL CHARGES AND SPIN DENSITIES
--------------------------------------------------
CHARGE
  0 Aus       :     2.822432  s :     2.822432
      pz      :     2.384584  p :     6.436093
      px      :     2.025754
      py      :     2.025754
      dz2     :     1.966001  d :     9.855440
      dxz     :     1.956548
      dyz     :     1.956548
      dx2y2   :     1.988171
      dxy     :     1.988171
      f0      :     0.019443  f :     0.070530
      f+1     :     0.012069
      f-1     :     0.012069
      f+2     :     0.006994
      f-2     :     0.006994
      f+3     :     0.006480
      f-3     :     0.006480
      g0      :     0.000540  g :     0.003641
      g+1     :     0.000465
      g-1     :     0.000465
      g+2     :     0.000378
      g-2     :     0.000378
      g+3     :     0.000359
      g-3     :     0.000359
      g+4     :     0.000349
      g-4     :     0.000349
  1 Aus       :     2.803365  s :     2.803365
      pz      :     2.107783  p :     6.149386
      px      :     2.020801
      py      :     2.020801
      dz2     :     1.963679  d :     9.893488
      dxz     :     1.975675
      dyz     :     1.975675
      dx2y2   :     1.989230
      dxy     :     1.989230
      f0      :     0.011273  f :     0.056281
      f+1     :     0.009581
      f-1     :     0.009581
      f+2     :     0.006621
      f-2     :     0.006621
      f+3     :     0.006302
      f-3     :     0.006302
      g0      :     0.000443  g :     0.003413
      g+1     :     0.000409
      g-1     :     0.000409
      g+2     :     0.000366
      g-2     :     0.000366
      g+3     :     0.000357
      g-3     :     0.000357
      g+4     :     0.000353
      g-4     :     0.000353
  2 Aus       :     2.803365  s :     2.803365
      pz      :     2.107783  p :     6.149386
      px      :     2.020801
      py      :     2.020801
      dz2     :     1.963679  d :     9.893488
      dxz     :     1.975675
      dyz     :     1.975675
      dx2y2   :     1.989230
      dxy     :     1.989230
      f0      :     0.011273  f :     0.056281
      f+1     :     0.009581
      f-1     :     0.009581
      f+2     :     0.006621
      f-2     :     0.006621
      f+3     :     0.006302
      f-3     :     0.006302
      g0      :     0.000443  g :     0.003413
      g+1     :     0.000409
      g-1     :     0.000409
      g+2     :     0.000366
      g-2     :     0.000366
      g+3     :     0.000357
      g-3     :     0.000357
      g+4     :     0.000353
      g-4     :     0.000353

SPIN
  0 Aus       :    -0.060185  s :    -0.060185
      pz      :     0.333384  p :     0.333113
      px      :    -0.000135
      py      :    -0.000135
      dz2     :     0.005667  d :     0.000185
      dxz     :    -0.002642
      dyz     :    -0.002642
      dx2y2   :    -0.000099
      dxy     :    -0.000099
      f0      :     0.001833  f :     0.002230
      f+1     :     0.000154
      f-1     :     0.000154
      f+2     :     0.000032
      f-2     :     0.000032
      f+3     :     0.000013
      f-3     :     0.000013
      g0      :     0.000000  g :    -0.000010
      g+1     :    -0.000002
      g-1     :    -0.000002
      g+2     :    -0.000002
      g-2     :    -0.000002
      g+3     :    -0.000001
      g-3     :    -0.000001
      g+4     :     0.000000
      g-4     :     0.000000
  1 Aus       :     0.379926  s :     0.379926
      pz      :    -0.015886  p :    -0.010362
      px      :     0.002762
      py      :     0.002762
      dz2     :    -0.007939  d :    -0.006622
      dxz     :     0.000213
      dyz     :     0.000213
      dx2y2   :     0.000446
      dxy     :     0.000446
      f0      :    -0.000337  f :    -0.000628
      f+1     :    -0.000034
      f-1     :    -0.000034
      f+2     :    -0.000051
      f-2     :    -0.000051
      f+3     :    -0.000060
      f-3     :    -0.000060
      g0      :    -0.000001  g :     0.000019
      g+1     :     0.000001
      g-1     :     0.000001
      g+2     :     0.000002
      g-2     :     0.000002
      g+3     :     0.000003
      g-3     :     0.000003
      g+4     :     0.000004
      g-4     :     0.000004
  2 Aus       :     0.379926  s :     0.379926
      pz      :    -0.015886  p :    -0.010362
      px      :     0.002762
      py      :     0.002762
      dz2     :    -0.007939  d :    -0.006622
      dxz     :     0.000213
      dyz     :     0.000213
      dx2y2   :     0.000446
      dxy     :     0.000446
      f0      :    -0.000337  f :    -0.000628
      f+1     :    -0.000034
      f-1     :    -0.000034
      f+2     :    -0.000051
      f-2     :    -0.000051
      f+3     :    -0.000060
      f-3     :    -0.000060
      g0      :    -0.000001  g :     0.000019
      g+1     :     0.000001
      g-1     :     0.000001
      g+2     :     0.000002
      g-2     :     0.000002
      g+3     :     0.000003
      g-3     :     0.000003
      g+4     :     0.000004
      g-4     :     0.000004


                      *****************************
                      * MAYER POPULATION ANALYSIS *
                      *****************************

  NA   - Mulliken gross atomic population
  ZA   - Total nuclear charge
  QA   - Mulliken gross atomic charge
  VA   - Mayer's total valence
  BVA  - Mayer's bonded valence
  FA   - Mayer's free valence

[...]
      f+2     :    -0.000051
      f-2     :    -0.000051
      f+3     :    -0.000060
      f-3     :    -0.000060
      g0      :    -0.000001  g :     0.000019
      g+1     :     0.000001
      g-1     :     0.000001
      g+2     :     0.000002
      g-2     :     0.000002
      g+3     :     0.000003
      g-3     :     0.000003
      g+4     :     0.000004
      g-4     :     0.000004
  2 Aus       :     0.361444  s :     0.361444
      pz      :    -0.002496  p :     0.002811
      px      :     0.002654
      py      :     0.002654
      dz2     :    -0.004234  d :    -0.002487
      dxz     :     0.000405
      dyz     :     0.000405
      dx2y2   :     0.000469
      dxy     :     0.000469
      f0      :    -0.000230  f :    -0.000528
      f+1     :    -0.000038
      f-1     :    -0.000038
      f+2     :    -0.000051
      f-2     :    -0.000051
      f+3     :    -0.000060
      f-3     :    -0.000060
      g0      :    -0.000001  g :     0.000019
      g+1     :     0.000001
      g-1     :     0.000001
      g+2     :     0.000002
      g-2     :     0.000002
      g+3     :     0.000003
      g-3     :     0.000003
      g+4     :     0.000004
      g-4     :     0.000004


                      *****************************
                      * MAYER POPULATION ANALYSIS *
                      *****************************

  NA   - Mulliken gross atomic population
  ZA   - Total nuclear charge
  QA   - Mulliken gross atomic charge
  VA   - Mayer's total valence
  BVA  - Mayer's bonded valence
  FA   - Mayer's free valence

  ATOM       NA         ZA         QA         VA         BVA        FA
  0 Au    19.1041    19.0000    -0.1041     1.7948     1.3040     0.4908
  1 Au    18.9479    19.0000     0.0521     1.5802     0.8745     0.7057
  2 Au    18.9479    19.0000     0.0521     1.5802     0.8745     0.7057

  Mayer bond orders larger than 0.100000
B(  0-Au,  1-Au) :   0.6520 B(  0-Au,  2-Au) :   0.6520 B(  1-Au,  2-Au) :   0.2225 



-------
TIMINGS
-------

Total time                :   18.296 sec
Integral trafo            :    0.377 sec (  2.1%)
I/O of integrals          :    0.006 sec (  0.0%)
K(i,j) Operators          :    0.115 sec (  0.6%)
T(i,j) pair energies      :    0.017 sec (  0.1%)
V-calculation             :    0.012 sec (  0.1%)
V**(-1/2)                 :    0.019 sec (  0.1%)
Gamma(ia|P)               :    0.087 sec (  0.5%)
Gamma-Trafo               :    0.021 sec (  0.1%)
D(virtual)                :    0.012 sec (  0.1%)
D(internal)               :    0.033 sec (  0.2%)
W(virtual)                :    0.012 sec (  0.1%)
W(internal)               :    0.133 sec (  0.7%)
L(virtual)                :    0.470 sec (  2.6%)
L(internal)               :    0.004 sec (  0.0%)
G(D)                      :    1.642 sec (  9.0%)
G(Z)                      :    1.599 sec (  8.7%)
Z-Vector Solution         :    5.818 sec ( 31.8%)
Z-Vector Solution         :    5.818 sec ( 31.8%)
3-Index Derivative 
+ Separable RIJ part      :    2.932 sec ( 16.0%)
2-Index Derivative 
+ Separable RIJ part      :    0.008 sec (  0.0%)
Separable Gradient (X)    :    4.442 sec ( 24.3%)


---------------------------------------
MP2 TOTAL ENERGY:     -406.821701649 Eh
---------------------------------------

-----------------------------------
NORM OF THE MP2 GRADIENT:  0.000002
-----------------------------------


-------------------------------------------------------------------------------
                          DFT DISPERSION CORRECTION                            
                                                                               
                              DFTD3 V3.1  Rev 1                                
                          USING Becke-Johnson damping                          
-------------------------------------------------------------------------------
The B2PLYP functional is recognized
Active option DFTDOPT                   ...         4   

molecular C6(AA) [au] = 2858.470950 


            DFT-D V3
 parameters
 s6 scaling factor         :     0.6400 
 a1 scaling factor         :     0.3065 
 s8 scaling factor         :     0.9147 
 a2 scaling factor         :     5.0570 
 ad hoc parameters k1-k3   :    16.0000     1.3333    -4.0000 

 Edisp/kcal,au: -3.081795561604  -0.004911153314 
 E6   /kcal   :  -0.984773269 
 E8   /kcal   :  -2.097022292 
 % E8         :  68.045470588 

-------------------------   ----------------
Dispersion correction           -0.004911153
-------------------------   ----------------


-------------------------   --------------------
FINAL SINGLE POINT ENERGY      -406.826612802282
-------------------------   --------------------

                                *** OPTIMIZATION RUN DONE ***

                            ***************************************
                            *     ORCA property calculations      *
                            ***************************************

                                    ---------------------
                                    Active property flags
                                    ---------------------
   (+) Dipole Moment


------------------------------------------------------------------------------
                       ORCA ELECTRIC PROPERTIES CALCULATION
------------------------------------------------------------------------------

Dipole Moment Calculation                       ... on
Quadrupole Moment Calculation                   ... off
Polarizability Calculation                      ... off
GBWName                                         ... Au03N0_LIN.gbw
Electron density file                           ... Au03N0_LIN.scfp
The origin for moment calculation is the CENTER OF MASS  = ( 0.000000,  0.000000  0.000000)

-------------
DIPOLE MOMENT
-------------
                                X             Y             Z
Electronic contribution:     -0.00000      -0.00000       0.00001
Nuclear contribution   :      0.00000       0.00000      -0.00000
                        -----------------------------------------
Total Dipole Moment    :     -0.00000      -0.00000       0.00001
                        -----------------------------------------
Magnitude (a.u.)       :      0.00001
Magnitude (Debye)      :      0.00002



--------------------
Rotational spectrum 
--------------------
 
Rotational constants in cm-1:     0.000000     0.006472     0.006472 
Rotational constants in MHz :     0.000000   194.029109   194.029109 

 Dipole components along the rotational axes: 
x,y,z [a.u.] :    -0.000008    -0.000000    -0.000000 
x,y,z [Debye]:    -0.000022    -0.000000    -0.000000 

 

                         *** MP2 UNRELAXED DENSITY ***

------------------------------------------------------------------------------
                       ORCA ELECTRIC PROPERTIES CALCULATION
------------------------------------------------------------------------------

Dipole Moment Calculation                       ... on
Quadrupole Moment Calculation                   ... off
Polarizability Calculation                      ... off
GBWName                                         ... Au03N0_LIN.gbw
Electron density file                           ... Au03N0_LIN.pmp2ur
The origin for moment calculation is the CENTER OF MASS  = ( 0.000000,  0.000000  0.000000)

-------------
DIPOLE MOMENT
-------------
                                X             Y             Z
Electronic contribution:     -0.00000      -0.00000       0.00001
Nuclear contribution   :      0.00000       0.00000      -0.00000
                        -----------------------------------------
Total Dipole Moment    :     -0.00000      -0.00000       0.00001
                        -----------------------------------------
Magnitude (a.u.)       :      0.00001
Magnitude (Debye)      :      0.00002



--------------------
Rotational spectrum 
--------------------
 
Rotational constants in cm-1:     0.000000     0.006472     0.006472 
Rotational constants in MHz :     0.000000   194.029109   194.029109 

 Dipole components along the rotational axes: 
x,y,z [a.u.] :    -0.000008    -0.000000    -0.000000 
x,y,z [Debye]:    -0.000021    -0.000000    -0.000000 

 

                           *** MP2 RELAXED DENSITY ***

------------------------------------------------------------------------------
                       ORCA ELECTRIC PROPERTIES CALCULATION
------------------------------------------------------------------------------

Dipole Moment Calculation                       ... on
Quadrupole Moment Calculation                   ... off
Polarizability Calculation                      ... off
GBWName                                         ... Au03N0_LIN.gbw
Electron density file                           ... Au03N0_LIN.pmp2re
The origin for moment calculation is the CENTER OF MASS  = ( 0.000000,  0.000000  0.000000)

-------------
DIPOLE MOMENT
-------------
                                X             Y             Z
Electronic contribution:     -0.00000      -0.00000       0.00001
Nuclear contribution   :      0.00000       0.00000      -0.00000
                        -----------------------------------------
Total Dipole Moment    :     -0.00000      -0.00000       0.00001
                        -----------------------------------------
Magnitude (a.u.)       :      0.00001
Magnitude (Debye)      :      0.00002



--------------------
Rotational spectrum 
--------------------
 
Rotational constants in cm-1:     0.000000     0.006472     0.006472 
Rotational constants in MHz :     0.000000   194.029109   194.029109 

 Dipole components along the rotational axes: 
x,y,z [a.u.] :    -0.000006    -0.000000    -0.000000 
x,y,z [Debye]:    -0.000016    -0.000000    -0.000000 

 

----------------------------------------------------------------------------
                           ORCA NUMERICAL FREQUENCIES
                              (24-process run)
----------------------------------------------------------------------------

Number of atoms                ... 3
Central differences            ... used
Number of displacements        ... 18
Numerical increment            ... 5.000e-03 bohr
IR-spectrum generation         ... on
Raman-spectrum generation      ... off
Surface Crossing Hessian       ... off

 WARNING: There are more processes than displacements to do
  ====> : Reducing number of processes to   9

The output will be reduced. Please look at the following files:
SCF program output             ... >Au03N0_LIN.lastscf
Integral program output        ... >Au03N0_LIN.lastint
Gradient program output        ... >Au03N0_LIN.lastgrad
Dipole moment program output   ... >Au03N0_LIN.lastmom
AutoCI program output          ... >Au03N0_LIN.lastautoci


         <<< Energy and Gradient at the input geometry >>>

        <<< Energy and Gradient at displaced geometries >>>
             <<<Displacing   1/coordinate 3 (+)>>>
             <<<Displacing   2/coordinate 1 (+)>>>
             <<<Displacing   3/coordinate 3 (+)>>>
             <<<Displacing   3/coordinate 2 (+)>>>
             <<<Displacing   2/coordinate 3 (+)>>>
             <<<Displacing   3/coordinate 1 (+)>>>
             <<<Displacing   1/coordinate 1 (+)>>>
             <<<Displacing   1/coordinate 2 (+)>>>
             <<<Displacing   2/coordinate 2 (+)>>>
             <<<Displacing   1/coordinate 1 (-)>>>
             <<<Displacing   1/coordinate 2 (-)>>>
             <<<Displacing   3/coordinate 2 (-)>>>
             <<<Displacing   3/coordinate 1 (-)>>>
             <<<Displacing   2/coordinate 2 (-)>>>
             <<<Displacing   2/coordinate 1 (-)>>>
             <<<Displacing   1/coordinate 3 (-)>>>
             <<<Displacing   2/coordinate 3 (-)>>>
             <<<Displacing   3/coordinate 3 (-)>>>

-----------------------
VIBRATIONAL FREQUENCIES
-----------------------

Scaling factor for frequencies =  1.000000000 (already applied!)

   0:         0.00 cm**-1
   1:         0.00 cm**-1
   2:         0.00 cm**-1
   3:         0.00 cm**-1
   4:         0.00 cm**-1
   5:         0.00 cm**-1
   6:       -14.43 cm**-1 ***imaginary mode***
   7:       111.50 cm**-1
   8:       171.26 cm**-1


------------
NORMAL MODES
------------

These modes are the cartesian displacements weighted by the diagonal matrix
M(i,i)=1/sqrt(m[i]) where m[i] is the mass of the displaced atom
Thus, these vectors are normalized but *not* orthogonal

                  0          1          2          3          4          5    
      0       0.000000   0.000000   0.000000   0.000000   0.000000   0.000000
      1       0.000000   0.000000   0.000000   0.000000   0.000000   0.000000
      2       0.000000   0.000000   0.000000   0.000000   0.000000   0.000000
      3       0.000000   0.000000   0.000000   0.000000   0.000000   0.000000
      4       0.000000   0.000000   0.000000   0.000000   0.000000   0.000000
      5       0.000000   0.000000   0.000000   0.000000   0.000000   0.000000
      6       0.000000   0.000000   0.000000   0.000000   0.000000   0.000000
      7       0.000000   0.000000   0.000000   0.000000   0.000000   0.000000
      8       0.000000   0.000000   0.000000   0.000000   0.000000   0.000000
                   6          7          8    
      0       0.801752   0.000021  -0.000004
      1       0.154468   0.000004  -0.000001
      2       0.000004   0.000025   0.816497
      3      -0.400875  -0.000010   0.000002
      4      -0.077234  -0.000002   0.000000
      5       0.000016  -0.707119  -0.408227
      6      -0.400877  -0.000010   0.000002
      7      -0.077234  -0.000002   0.000000
      8      -0.000021   0.707094  -0.408270


-----------
IR SPECTRUM  
-----------

 Mode    freq (cm**-1)   T**2         TX         TY         TZ
-------------------------------------------------------------------
   7:       111.50    0.000000  ( -0.000008  -0.000000  -0.000080)
   8:       171.26    5.974518  (  0.000001   0.000001  -2.444283)

The first frequency considered to be a vibration is 7
The total number of vibrations considered is 2


--------------------------
THERMOCHEMISTRY AT 298.15K
--------------------------

Temperature         ... 298.15 K
Pressure            ... 1.00 atm
Total Mass          ... 590.90 AMU
The molecule is recognized as being linear

Throughout the following assumptions are being made:
  (1) The electronic state is orbitally nondegenerate
      but the spin degeneracy is treated
  (2) There are no thermally accessible electronically excited states
  (3) Hindered rotations indicated by low frequency modes are not
      treated as such but are treated as vibrations and this may
      cause some error
  (4) All equations used are the standard statistical mechanics
      equations for an ideal gas
  (5) All vibrations are strictly harmonic

freq.     111.50  E(vib)   ...       0.45 
freq.     171.26  E(vib)   ...       0.38 

------------
INNER ENERGY
------------

The inner energy is: U= E(el) + E(ZPE) + E(vib) + E(rot) + E(trans)
    E(el)   - is the total energy from the electronic structure calculation
              = E(kin-el) + E(nuc-el) + E(el-el) + E(nuc-nuc)
    E(ZPE)  - the the zero temperature vibrational energy from the frequency calculation
    E(vib)  - the the finite temperature correction to E(ZPE) due to population
              of excited vibrational states
    E(rot)  - is the rotational thermal energy
    E(trans)- is the translational thermal energy

Summary of contributions to the inner energy U:
Electronic energy                ...   -406.82661276 Eh
Zero point energy                ...      0.00064417 Eh       0.40 kcal/mol
Thermal vibrational correction   ...      0.00132005 Eh       0.83 kcal/mol
Thermal rotational correction    ...      0.00094418 Eh       0.59 kcal/mol
Thermal translational correction ...      0.00141627 Eh       0.89 kcal/mol
-----------------------------------------------------------------------
Total thermal energy                   -406.82228808 Eh


Summary of corrections to the electronic energy:
(perhaps to be used in another calculation)
Total thermal correction                  0.00368051 Eh       2.31 kcal/mol
Non-thermal (ZPE) correction              0.00064417 Eh       0.40 kcal/mol
-----------------------------------------------------------------------
Total correction                          0.00432468 Eh       2.71 kcal/mol


--------
ENTHALPY
--------

The enthalpy is H = U + kB*T
                kB is Boltzmann's constant
Total free energy                 ...   -406.82228808 Eh 
Thermal Enthalpy correction       ...      0.00094421 Eh       0.59 kcal/mol
-----------------------------------------------------------------------
Total Enthalpy                    ...   -406.82134387 Eh


Note: Rotational entropy computed according to Herzberg 
Infrared and Raman Spectra, Chapter V,1, Van Nostrand Reinhold, 1945 
Point Group:  Cinfv, Symmetry Number:   1  
Rotational constants in cm-1:     0.000000     0.006472     0.006472 

Vibrational entropy computed according to the QRRHO of S. Grimme
Chem.Eur.J. 2012 18 9955


-------
ENTROPY
-------

The entropy contributions are T*S = T*(S(el)+S(vib)+S(rot)+S(trans))
     S(el)   - electronic entropy
     S(vib)  - vibrational entropy
     S(rot)  - rotational entropy
     S(trans)- translational entropy
The entropies will be listed as mutliplied by the temperature to get
units of energy

Electronic entropy                ...      0.00065446 Eh      0.41 kcal/mol
Vibrational entropy               ...      0.00259380 Eh      1.63 kcal/mol
Rotational entropy                ...      0.01073917 Eh      6.74 kcal/mol
Translational entropy             ...      0.02138721 Eh     13.42 kcal/mol
-----------------------------------------------------------------------
Final entropy term                ...      0.03537464 Eh     22.20 kcal/mol

In case the symmetry of your molecule has not been determined correctly
or in case you have a reason to use a different symmetry number we print 
out the resulting rotational entropy values for sn=1,12 :
 --------------------------------------------------------
|  sn= 1 | S(rot)=       0.00056870 Eh      0.36 kcal/mol|
|  sn= 2 | S(rot)=      -0.00008575 Eh     -0.05 kcal/mol|
|  sn= 3 | S(rot)=      -0.00046858 Eh     -0.29 kcal/mol|
|  sn= 4 | S(rot)=      -0.00074021 Eh     -0.46 kcal/mol|
|  sn= 5 | S(rot)=      -0.00095090 Eh     -0.60 kcal/mol|
|  sn= 6 | S(rot)=      -0.00112304 Eh     -0.70 kcal/mol|
|  sn= 7 | S(rot)=      -0.00126859 Eh     -0.80 kcal/mol|
|  sn= 8 | S(rot)=      -0.00139466 Eh     -0.88 kcal/mol|
|  sn= 9 | S(rot)=      -0.00150587 Eh     -0.94 kcal/mol|
|  sn=10 | S(rot)=      -0.00160535 Eh     -1.01 kcal/mol|
|  sn=11 | S(rot)=      -0.00169534 Eh     -1.06 kcal/mol|
|  sn=12 | S(rot)=      -0.00177750 Eh     -1.12 kcal/mol|
 --------------------------------------------------------


-------------------
GIBBS FREE ENERGY
-------------------

The Gibbs free energy is G = H - T*S

Total enthalpy                    ...   -406.82134387 Eh 
Total entropy correction          ...     -0.03537464 Eh    -22.20 kcal/mol
-----------------------------------------------------------------------
Final Gibbs free energy         ...   -406.85671851 Eh

For completeness - the Gibbs free energy minus the electronic energy
G-E(el)                           ...     -0.03010575 Eh    -18.89 kcal/mol


Total Time for Numerical Frequencies  :       292.010 sec

Timings for individual modules:

Sum of individual times         ...      175.157 sec (=   2.919 min)
GTO integral calculation        ...        7.765 sec (=   0.129 min)   4.4 %
SCF iterations                  ...       35.732 sec (=   0.596 min)  20.4 %
MP2 module                      ...      131.310 sec (=   2.188 min)  75.0 %
Geometry relaxation             ...        0.351 sec (=   0.006 min)   0.2 %
                             ****ORCA TERMINATED NORMALLY****
TOTAL RUN TIME: 0 days 0 hours 7 minutes 26 seconds 522 msec
