
                                 *****************
                                 * O   R   C   A *
                                 *****************

           --- An Ab Initio, DFT and Semiempirical electronic structure package ---

                  #######################################################
                  #                        -***-                        #
                  #          Department of theory and spectroscopy      #
                  #               Directorship: Frank Neese             #
                  #        Max Planck Institute fuer Kohlenforschung    #
                  #                Kaiser Wilhelm Platz 1               #
                  #                 D-45470 Muelheim/Ruhr               #
                  #                      Germany                        #
                  #                                                     #
                  #                  All rights reserved                #
                  #                        -***-                        #
                  #######################################################


                         Program Version 4.2.0 -  RELEASE  -


 With contributions from (in alphabetic order):
   Daniel Aravena         : Magnetic Suceptibility
   Michael Atanasov       : Ab Initio Ligand Field Theory (pilot matlab implementation)
   Alexander A. Auer      : GIAO ZORA, VPT2
   Ute Becker             : Parallelization
   Giovanni Bistoni       : ED, misc. LED, open-shell LED, HFLED
   Martin Brehm           : Molecular dynamics
   Dmytro Bykov           : SCF Hessian
   Vijay G. Chilkuri      : MRCI spin determinant printing, contributions to CSF-ICE
   Dipayan Datta          : RHF DLPNO-CCSD density
   Achintya Kumar Dutta   : EOM-CC, STEOM-CC
   Dmitry Ganyushin       : Spin-Orbit,Spin-Spin,Magnetic field MRCI
   Miquel Garcia          : C-PCM Hessian, Gaussian charge scheme
   Yang Guo               : DLPNO-NEVPT2, CIM, IAO-localization
   Andreas Hansen         : Spin unrestricted coupled pair/coupled cluster methods
   Benjamin Helmich-Paris : CASSCF linear response (MC-RPA)
   Lee Huntington         : MR-EOM, pCC
   Robert Izsak           : Overlap fitted RIJCOSX, COSX-SCS-MP3, EOM
   Christian Kollmar      : KDIIS, OOCD, Brueckner-CCSD(T), CCSD density
   Simone Kossmann        : Meta GGA functionals, TD-DFT gradient, OOMP2, MP2 Hessian
   Martin Krupicka        : AUTO-CI
   Lucas Lang             : DCDCAS
   Dagmar Lenk            : GEPOL surface, SMD
   Dimitrios Liakos       : Extrapolation schemes; Compound Job, initial MDCI parallelization
   Dimitrios Manganas     : Further ROCIS development; embedding schemes
   Dimitrios Pantazis     : SARC Basis sets
   Taras Petrenko         : DFT Hessian,TD-DFT gradient, ASA, ECA, R-Raman, ABS, FL, XAS/XES, NRVS
   Peter Pinski           : DLPNO-MP2, DLPNO-MP2 Gradient
   Christoph Reimann      : Effective Core Potentials
   Marius Retegan         : Local ZFS, SOC
   Christoph Riplinger    : Optimizer, TS searches, QM/MM, DLPNO-CCSD(T), (RO)-DLPNO pert. Triples
   Tobias Risthaus        : Range-separated hybrids, TD-DFT gradient, RPA, STAB
   Michael Roemelt        : Original ROCIS implementation
   Masaaki Saitow         : Open-shell DLPNO-CCSD energy and density
   Barbara Sandhoefer     : DKH picture change effects
   Avijit Sen             : IP-ROCIS
   Kantharuban Sivalingam : CASSCF convergence, NEVPT2, FIC-MRCI
   Bernardo de Souza      : ESD, SOC TD-DFT
   Georgi Stoychev        : AutoAux, RI-MP2 NMR
   Willem Van den Heuvel  : Paramagnetic NMR
   Boris Wezisla          : Elementary symmetry handling
   Frank Wennmohs         : Technical directorship


 We gratefully acknowledge several colleagues who have allowed us to
 interface, adapt or use parts of their codes:
   Stefan Grimme, W. Hujo, H. Kruse,             : VdW corrections, initial TS optimization,
                  C. Bannwarth                     DFT functionals, gCP, sTDA/sTD-DF
   Ed Valeev, F. Pavosevic, A. Kumar             : LibInt (2-el integral package), F12 methods
   Garnet Chan, S. Sharma, J. Yang, R. Olivares  : DMRG
   Ulf Ekstrom                                   : XCFun DFT Library
   Mihaly Kallay                                 : mrcc  (arbitrary order and MRCC methods)
   Andreas Klamt, Michael Diedenhofen            : otool_cosmo (COSMO solvation model)
   Jiri Pittner, Ondrej Demel                    : Mk-CCSD
   Frank Weinhold                                : gennbo (NPA and NBO analysis)
   Christopher J. Cramer and Donald G. Truhlar   : smd solvation model
   Lars Goerigk                                  : TD-DFT with DH, B97 family of functionals
   V. Asgeirsson, H. Jonsson                     : NEB implementation
   FAccTs GmbH                                   : IRC, NEB, NEB-TS, Multilevel, MM, QM/MM, CI optimization
   S Lehtola, MJT Oliveira, MAL Marques          : LibXC Library


 Your calculation uses the libint2 library for the computation of 2-el integrals
 For citations please refer to: http://libint.valeyev.net

 Your ORCA version has been built with support for libXC version: 4.2.3
 For citations please refer to: https://tddft.org/programs/libxc/

 This ORCA versions uses:
   CBLAS   interface :  Fast vector & matrix operations
   LAPACKE interface :  Fast linear algebra routines
   SCALAPACK package :  Parallel linear algebra routines


Your calculation utilizes the atom-pairwise dispersion correction
with the Becke-Johnson damping scheme (D3BJ)
Cite in your paper:
S.Grimme, S.Ehrlich, L.Goerigk, J Comput Chem, (2011), 32, 1456–1465 
S.Grimme, J.Antony, S.Ehrlich and H.Krieg, J.Chem.Phys., 132, (2010), 154104 
   

----- Orbital basis set information -----
Your calculation utilizes the basis: def2-TZVPPD
   F. Weigend and R. Ahlrichs, Phys. Chem. Chem. Phys. 7, 3297 (2005).
   D. Rappoport and F. Furche, J. Chem. Phys. 133 134105 (2010).

----- AuxC basis set information -----
Your calculation utilizes the auxiliary basis: def2-TZVPPD/C
   A. Hellweg, C. Hattig, S. Hofener and W. Klopper, Theor. Chem. Acc. 117, 587 (2007).

----- AuxJK basis set information -----
Your calculation utilizes the auxiliary basis: def2/JK
   H-Ba, Hf-Rn: F. Weigend, J. Comput. Chem. 29, 167 (2008).

================================================================================
                                        WARNINGS
                       Please study these warnings very carefully!
================================================================================


WARNING: The frozen-core approximation for MP2-gradient calculations is turned on by default.

WARNING: Geometry Optimization
  ===> : Switching off AutoStart
         For restart on a previous wavefunction, please use MOREAD

WARNING: The frozen-core approximation is turned on by default for 
         the MP2 part of double-hybrid DFT.

INFO   : the flag for use of LIBINT has been found!

================================================================================
                                       INPUT FILE
================================================================================
NAME = Cu01N0_H.in
|  1> #
|  2> # Cu01N0_H ri-B2PLYP-D3BJ/Def2-TZVPPD
|  3> #
|  4> ! rijk ri-b2plyp d3bj def2-tzvppd def2/jk def2-tzvppd/c grid4 nofinalgrid opt xyzfile numfreq
|  5> 
|  6> *xyz 0 1
|  7> Cu       0.000000    0.000000    0.048513 
|  8> H        0.000000    0.000000   -1.406870 
|  9> *
| 10> 
| 11> %maxcore 5000
| 12> 
| 13> %pal
| 14> nprocs = 24
| 15> end
| 16> 
| 17> 
| 18>                          ****END OF INPUT****
================================================================================

                       *****************************
                       * Geometry Optimization Run *
                       *****************************

Geometry optimization settings:
Update method            Update   .... BFGS
Choice of coordinates    CoordSys .... Z-matrix Internals
Initial Hessian          InHess   .... Almoef's Model

Convergence Tolerances:
Energy Change            TolE     ....  5.0000e-06 Eh
Max. Gradient            TolMAXG  ....  3.0000e-04 Eh/bohr
RMS Gradient             TolRMSG  ....  1.0000e-04 Eh/bohr
Max. Displacement        TolMAXD  ....  4.0000e-03 bohr
RMS Displacement         TolRMSD  ....  2.0000e-03 bohr
Strict Convergence                ....  False
------------------------------------------------------------------------------
                        ORCA OPTIMIZATION COORDINATE SETUP
------------------------------------------------------------------------------

The optimization will be done in new redundant internal coordinates
Making redundant internal coordinates   ...  (new redundants) done
Evaluating the initial hessian          ...  (Almloef) done
Evaluating the coordinates              ...  done
Calculating the B-matrix                .... done
Calculating the G-matrix                .... done
Diagonalizing the G-matrix              .... done
The first mode is                       ....    0
The number of degrees of freedom        ....    1

    -----------------------------------------------------------------
                    Redundant Internal Coordinates


    -----------------------------------------------------------------
         Definition                    Initial Value    Approx d2E/dq
    -----------------------------------------------------------------
      1. B(H   1,Cu  0)                  1.4554         0.951925   
    -----------------------------------------------------------------

Number of atoms                         .... 2
Number of degrees of freedom            .... 1

         *************************************************************
         *                GEOMETRY OPTIMIZATION CYCLE   1            *
         *************************************************************
---------------------------------
CARTESIAN COORDINATES (ANGSTROEM)
---------------------------------
  Cu     0.000000    0.000000    0.048513
  H      0.000000    0.000000   -1.406870

----------------------------
CARTESIAN COORDINATES (A.U.)
----------------------------
  NO LB      ZA    FRAG     MASS         X           Y           Z
   0 Cu   29.0000    0    63.550    0.000000    0.000000    0.091676
   1 H     1.0000    0     1.008    0.000000    0.000000   -2.658599

--------------------------------
INTERNAL COORDINATES (ANGSTROEM)
--------------------------------
 Cu     0   0   0     0.000000000000     0.00000000     0.00000000
 H      1   0   0     1.455383000000     0.00000000     0.00000000

---------------------------
INTERNAL COORDINATES (A.U.)
---------------------------
 Cu     0   0   0     0.000000000000     0.00000000     0.00000000
 H      1   0   0     2.750275289965     0.00000000     0.00000000

---------------------
BASIS SET INFORMATION
---------------------
There are 2 groups of distinct atoms

 Group   1 Type Cu  : 17s13p7d2f1g contracted to 6s6p4d2f1g pattern {842111/631111/4111/11/1}
 Group   2 Type H   : 5s3p1d contracted to 3s3p1d pattern {311/111/1}

Atom   0Cu   basis set group =>   1
Atom   1H    basis set group =>   2
---------------------------------
AUXILIARY/C BASIS SET INFORMATION
---------------------------------
There are 2 groups of distinct atoms

 Group   1 Type Cu  : 10s10p9d7f5g3h1i contracted to 10s10p9d7f5g3h1i pattern {1111111111/1111111111/111111111/1111111/11111/111/1}
 Group   2 Type H   : 5s4p3d1f contracted to 5s4p3d1f pattern {11111/1111/111/1}

Atom   0Cu   basis set group =>   1
Atom   1H    basis set group =>   2
----------------------------------
AUXILIARY/JK BASIS SET INFORMATION
----------------------------------
There are 2 groups of distinct atoms

 Group   1 Type Cu  : 19s14p12d10f7g3h1i contracted to 16s13p11d9f5g3h1i pattern {4111111111111111/2111111111111/21111111111/211111111/31111/111/1}
 Group   2 Type H   : 4s2p2d contracted to 2s2p2d pattern {31/11/11}

Atom   0Cu   basis set group =>   1
Atom   1H    basis set group =>   2


           ************************************************************
           *        Program running with 24 parallel MPI-processes    *
           *              working on a common directory               *
           ************************************************************
------------------------------------------------------------------------------
                           ORCA GTO INTEGRAL CALCULATION
                           -- RI-GTO INTEGRALS CHOSEN --
------------------------------------------------------------------------------

                         BASIS SET STATISTICS AND STARTUP INFO

Gaussian basis set:
 # of primitive gaussian shells          ...   49
 # of primitive gaussian functions       ...  133
 # of contracted shells                  ...   26
 # of contracted basis functions         ...   84
 Highest angular momentum                ...    4
 Maximum contraction depth               ...    8
Auxiliary gaussian basis set:
 # of primitive gaussian shells          ...   74
 # of primitive gaussian functions       ...  320
 # of contracted shells                  ...   64
 # of contracted aux-basis functions     ...  282
 Highest angular momentum                ...    6
 Maximum contraction depth               ...    4
Ratio of auxiliary to basis functions    ...  3.36
Integral package used                  ... LIBINT
 One Electron integrals                  ... done
 Ordering auxiliary basis shells         ... done
 Integral threshhold             Thresh  ...  2.500e-11
 Primitive cut-off               TCut    ...  2.500e-12
 Pre-screening matrix                    ... done
 Shell pair data                         ... 
 Ordering of the shell pairs             ... done (   0.000 sec) 351 of 351 pairs
 Determination of significant pairs      ... done (   0.000 sec)
 Creation of shell pair data             ... done (   0.000 sec)
 Storage of shell pair data              ... done (   0.001 sec)
 Shell pair data done in (   0.001 sec)
 Computing two index integrals           ... done
 Cholesky decomposition of the V-matrix  ... done


Timings:
 Total evaluation time                   ...   0.292 sec (  0.005 min)
 One electron matrix time                ...   0.011 sec (  0.000 min) =  3.9%
 Schwartz matrix evaluation time         ...   0.127 sec (  0.002 min) = 43.5%
 Two index repulsion integral time       ...   0.030 sec (  0.001 min) = 10.3%
 Cholesky decomposition of V             ...   0.088 sec (  0.001 min) = 30.0%
 Three index repulsion integral time     ...   0.000 sec (  0.000 min) =  0.0%



           ************************************************************
           *        Program running with 24 parallel MPI-processes    *
           *              working on a common directory               *
           ************************************************************
-------------------------------------------------------------------------------
                                 ORCA SCF
-------------------------------------------------------------------------------

------------
SCF SETTINGS
------------
Hamiltonian:
 Density Functional     Method          .... DFT(GTOs)
 Exchange Functional    Exchange        .... B88
   X-Alpha parameter    XAlpha          ....  0.666667
   Becke's b parameter  XBeta           ....  0.004200
 Correlation Functional Correlation     .... LYP
 LDA part of GGA corr.  LDAOpt          .... VWN-3
 Gradients option       PostSCFGGA      .... off
 Hybrid DFT is turned on
   Fraction HF Exchange ScalHFX         ....  0.530000
   Scaling of DF-GGA-X  ScalDFX         ....  0.470000
   Scaling of DF-GGA-C  ScalDFC         ....  0.730000
   Scaling of DF-LDA-C  ScalLDAC        ....  0.730000
   Perturbative correction              ....  0.270000
   Density functional embedding theory  .... OFF
 RI-approximation to the Coulomb term is turned on
   Number of auxiliary basis functions  .... 282
   RI-JK (J+K treated both via RI)      .... on


General Settings:
 Integral files         IntName         .... Cu01N0_H
 Hartree-Fock type      HFTyp           .... RHF
 Total Charge           Charge          ....    0
 Multiplicity           Mult            ....    1
 Number of Electrons    NEL             ....   30
 Basis Dimension        Dim             ....   84
 Nuclear Repulsion      ENuc            ....     10.5443989937 Eh

Convergence Acceleration:
 DIIS                   CNVDIIS         .... on
   Start iteration      DIISMaxIt       ....    12
   Startup error        DIISStart       ....  0.200000
   # of expansion vecs  DIISMaxEq       ....     5
   Bias factor          DIISBfac        ....   1.050
   Max. coefficient     DIISMaxC        ....  10.000
 Newton-Raphson         CNVNR           .... off
 SOSCF                  CNVSOSCF        .... off
 Level Shifting         CNVShift        .... on
   Level shift para.    LevelShift      ....    0.2500
   Turn off err/grad.   ShiftErr        ....    0.0010
 Zerner damping         CNVZerner       .... off
 Static damping         CNVDamp         .... on
   Fraction old density DampFac         ....    0.7000
   Max. Damping (<1)    DampMax         ....    0.9800
   Min. Damping (>=0)   DampMin         ....    0.0000
   Turn off err/grad.   DampErr         ....    0.1000
 Fernandez-Rico         CNVRico         .... off

SCF Procedure:
 Maximum # iterations   MaxIter         ....   125
 SCF integral mode      SCFMode         .... Direct
   Integral package                     .... LIBINT
 Reset frequency        DirectResetFreq ....    20
 Integral Threshold     Thresh          ....  2.500e-11 Eh
 Primitive CutOff       TCut            ....  2.500e-12 Eh

Convergence Tolerance:
 Convergence Check Mode ConvCheckMode   .... Total+1el-Energy
 Convergence forced     ConvForced      .... 0
 Energy Change          TolE            ....  1.000e-08 Eh
 1-El. energy change                    ....  1.000e-05 Eh
 DIIS Error             TolErr          ....  5.000e-07


Diagonalization of the overlap matrix:
Smallest eigenvalue                        ... 1.990e-03
Time for diagonalization                   ...    0.041 sec
Threshold for overlap eigenvalues          ... 1.000e-08
Number of eigenvalues below threshold      ... 0
Time for construction of square roots      ...    0.007 sec
Total time needed                          ...    0.047 sec

-------------------
DFT GRID GENERATION
-------------------

General Integration Accuracy     IntAcc      ...  4.670
Radial Grid Type                 RadialGrid  ... Gauss-Chebyshev
Angular Grid (max. acc.)         AngularGrid ... Lebedev-302
Angular grid pruning method      GridPruning ... 3 (G Style)
Weight generation scheme         WeightScheme... Becke
Basis function cutoff            BFCut       ...    1.0000e-11
Integration weight cutoff        WCut        ...    1.0000e-14
Grids for H and He will be reduced by one unit

# of grid points (after initial pruning)     ...  12950 (   0.0 sec)
# of grid points (after weights+screening)   ...  12913 (   0.0 sec)
nearest neighbour list constructed           ...    0.0 sec
Grid point re-assignment to atoms done       ...    0.0 sec
Grid point division into batches done        ...    0.1 sec
Reduced shell lists constructed in    0.1 sec

Total number of grid points                  ...    12913
Total number of batches                      ...      202
Average number of points per batch           ...       63
Average number of grid points per atom       ...     6456
Average number of shells per batch           ...     6.10 (23.46%)
Average number of basis functions per batch  ...    14.90 (17.74%)
Average number of large shells per batch     ...     4.40 (72.13%)
Average number of large basis fcns per batch ...    12.60 (84.56%)
Average number of aux-shells per batch       ...     6.10 ( 9.53%)
Average number of aux functions per batch    ...    14.90 ( 5.28%)
Maximum spatial batch extension              ...  28.79, 26.18, 17.10 au
Average spatial batch extension              ...   0.94,  0.87,  0.65 au

Time for grid setup =    0.163 sec

------------------------------
INITIAL GUESS: MODEL POTENTIAL
------------------------------
Loading Hartree-Fock densities                     ... done
Calculating cut-offs                               ... done
Setting up the integral package                    ... done
Initializing the effective Hamiltonian             ... done
Starting the Coulomb interaction                   ... done (   0.0 sec)
Reading the grid                                   ... done
Mapping shells                                     ... done
Starting the XC term evaluation                    ... done (   0.0 sec)
  promolecular density results
     # of electrons  =     29.999530787
     EX              =    -66.066138247
     EC              =     -0.523169368
     EX+EC           =    -66.589307615
Transforming the Hamiltonian                       ... done (   0.0 sec)
Diagonalizing the Hamiltonian                      ... done (   0.0 sec)
Back transforming the eigenvectors                 ... done (   0.0 sec)
Now organizing SCF variables                       ... done
                      ------------------
                      INITIAL GUESS DONE (   0.3 sec)
                      ------------------
--------------
SCF ITERATIONS
--------------
ITER       Energy         Delta-E        Max-DP      RMS-DP      [F,P]     Damp
  0  -1640.6040942583   0.000000000000 0.08570577  0.00206374  0.1214261 0.7000
  1  -1640.5286633311   0.075430927227 0.08049907  0.00191195  0.1116920 0.7000
                               ***Turning on DIIS***
  2  -1640.5703184987  -0.041655167630 0.19684149  0.00455723  0.0762750 0.0000
  3  -1640.6298739768  -0.059555478051 0.03511067  0.00075112  0.0507300 0.0000
  4  -1640.6334784217  -0.003604444919 0.02643575  0.00041496  0.0239844 0.0000
  5  -1640.6341881703  -0.000709748621 0.01146950  0.00020650  0.0114441 0.0000
  6  -1640.6344206255  -0.000232455204 0.00813309  0.00012744  0.0053672 0.0000
  7  -1640.6344856158  -0.000064990337 0.00385579  0.00006362  0.0024266 0.0000
  8  -1640.6345007747  -0.000015158860 0.00179197  0.00003552  0.0013416 0.0000
  9  -1640.6345060020  -0.000005227331 0.00207665  0.00004615  0.0007666 0.0000
 10  -1640.6345092034  -0.000003201338 0.00042043  0.00001076  0.0001843 0.0000
 11  -1640.6345094533  -0.000000249881 0.00024325  0.00000620  0.0001205 0.0000
 12  -1640.6345095222  -0.000000068940 0.00025072  0.00000526  0.0001463 0.0000
 13  -1640.6345095603  -0.000000038159 0.00010354  0.00000232  0.0000238 0.0000
 14  -1640.6345095637  -0.000000003312 0.00001301  0.00000028  0.0000048 0.0000
 15  -1640.6345095637  -0.000000000081 0.00000255  0.00000007  0.0000011 0.0000
                            ***DIIS convergence achieved***

               *****************************************************
               *                     SUCCESS                       *
               *           SCF CONVERGED AFTER  16 CYCLES          *
               *****************************************************


----------------
TOTAL SCF ENERGY
----------------

Total Energy       :        -1640.63450956 Eh          -44643.93466 eV

Components:
Nuclear Repulsion  :           10.54439899 Eh             286.92768 eV
Electronic Energy  :        -1651.17890856 Eh          -44930.86234 eV
One Electron Energy:        -2309.64854111 Eh          -62848.73197 eV
Two Electron Energy:          658.46963256 Eh           17917.86963 eV

Virial components:
Potential Energy   :        -3279.59915345 Eh          -89242.42996 eV
Kinetic Energy     :         1638.96464389 Eh           44598.49530 eV
Virial Ratio       :            2.00101885


DFT components:
N(Alpha)           :       15.000000479379 electrons
N(Beta)            :       15.000000479379 electrons
N(Total)           :       30.000000958759 electrons
E(X)               :      -31.154402467819 Eh       
E(C)               :       -1.024062177673 Eh       
E(XC)              :      -32.178464645492 Eh       
DFET-embed. en.    :        0.000000000000 Eh       

---------------
SCF CONVERGENCE
---------------

  Last Energy change         ...   -3.1832e-12  Tolerance :   1.0000e-08
  Last MAX-Density change    ...    1.1823e-06  Tolerance :   1.0000e-07
  Last RMS-Density change    ...    3.1632e-08  Tolerance :   5.0000e-09
  Last DIIS Error            ...    3.7247e-07  Tolerance :   5.0000e-07

             **** THE GBW FILE WAS UPDATED (Cu01N0_H.gbw) ****
             **** DENSITY FILE WAS UPDATED (Cu01N0_H.scfp) ****
             **** ENERGY FILE WAS UPDATED (Cu01N0_H.en.tmp) ****
             **** THE GBW FILE WAS UPDATED (Cu01N0_H.gbw) ****
             **** DENSITY FILE WAS UPDATED (Cu01N0_H.scfp) ****
----------------
ORBITAL ENERGIES
----------------

  NO   OCC          E(Eh)            E(eV) 
   0   2.0000    -325.439980     -8855.6721 
   1   2.0000     -39.652652     -1079.0035 
   2   2.0000     -34.688148      -943.9125 
   3   2.0000     -34.687408      -943.8924 
   4   2.0000     -34.687408      -943.8924 
   5   2.0000      -4.600273      -125.1798 
   6   2.0000      -3.021627       -82.2226 
   7   2.0000      -3.014948       -82.0409 
   8   2.0000      -3.014948       -82.0409 
   9   2.0000      -0.405052       -11.0220 
  10   2.0000      -0.376008       -10.2317 
  11   2.0000      -0.376008       -10.2317 
  12   2.0000      -0.370444       -10.0803 
  13   2.0000      -0.370444       -10.0803 
  14   2.0000      -0.282691        -7.6924 
  15   0.0000      -0.039188        -1.0664 
  16   0.0000       0.020142         0.5481 
  17   0.0000       0.020142         0.5481 
  18   0.0000       0.086660         2.3581 
  19   0.0000       0.102359         2.7853 
  20   0.0000       0.166409         4.5282 
  21   0.0000       0.166409         4.5282 
  22   0.0000       0.183754         5.0002 
  23   0.0000       0.208869         5.6836 
  24   0.0000       0.208869         5.6836 
  25   0.0000       0.218055         5.9336 
  26   0.0000       0.218055         5.9336 
  27   0.0000       0.318765         8.6740 
  28   0.0000       0.330315         8.9883 
  29   0.0000       0.330315         8.9883 
  30   0.0000       0.422143        11.4871 
  31   0.0000       0.519321        14.1314 
  32   0.0000       0.741063        20.1653 
  33   0.0000       0.741063        20.1653 
  34   0.0000       0.783410        21.3177 
  35   0.0000       0.889504        24.2046 
  36   0.0000       0.889504        24.2046 
  37   0.0000       0.975704        26.5503 
  38   0.0000       0.975705        26.5503 
  39   0.0000       1.114900        30.3380 
  40   0.0000       1.187826        32.3224 
  41   0.0000       1.187826        32.3224 
  42   0.0000       1.369723        37.2721 
  43   0.0000       2.644474        71.9598 
  44   0.0000       2.836918        77.1965 
  45   0.0000       3.105027        84.4921 
  46   0.0000       3.105027        84.4921 
  47   0.0000       3.207996        87.2940 
  48   0.0000       3.207996        87.2940 
  49   0.0000       3.289574        89.5139 
  50   0.0000       3.289574        89.5139 
  51   0.0000       3.403749        92.6207 
  52   0.0000       3.495236        95.1102 
  53   0.0000       3.591379        97.7264 
  54   0.0000       3.591379        97.7264 
  55   0.0000       3.673276        99.9549 
  56   0.0000       3.673279        99.9550 
  57   0.0000       3.872030       105.3633 
  58   0.0000       3.872030       105.3633 
  59   0.0000       3.886434       105.7552 
  60   0.0000       3.886441       105.7554 
  61   0.0000       3.967348       107.9570 
  62   0.0000       4.017472       109.3210 
  63   0.0000       4.017472       109.3210 
  64   0.0000       4.328018       117.7713 
  65   0.0000       4.328018       117.7713 
  66   0.0000       4.439651       120.8090 
  67   0.0000       5.471523       148.8877 
  68   0.0000      13.291148       361.6705 
  69   0.0000      13.291150       361.6706 
  70   0.0000      13.293422       361.7324 
  71   0.0000      13.293422       361.7324 
  72   0.0000      13.296314       361.8111 
  73   0.0000      13.296321       361.8113 
  74   0.0000      13.301927       361.9638 
  75   0.0000      13.301927       361.9638 
  76   0.0000      13.311528       362.2251 
  77   0.0000      13.496308       367.2532 
  78   0.0000      13.496308       367.2532 
  79   0.0000      13.498154       367.3034 
  80   0.0000      13.498161       367.3036 
  81   0.0000      13.597197       369.9985 
  82   0.0000      13.597197       369.9985 
  83   0.0000      13.825307       376.2057 

                    ********************************
                    * MULLIKEN POPULATION ANALYSIS *
                    ********************************

-----------------------
MULLIKEN ATOMIC CHARGES
-----------------------
   0 Cu:   -0.121288
   1 H :    0.121288
Sum of atomic charges:   -0.0000000

--------------------------------
MULLIKEN REDUCED ORBITAL CHARGES
--------------------------------
  0 Cus       :     7.048195  s :     7.048195
      pz      :     4.159406  p :    12.160780
      px      :     4.000687
      py      :     4.000687
      dz2     :     1.918172  d :     9.911911
      dxz     :     1.996921
      dyz     :     1.996921
      dx2y2   :     1.999949
      dxy     :     1.999949
      f0      :     0.000267  f :     0.000400
      f+1     :     0.000033
      f-1     :     0.000033
      f+2     :     0.000034
      f-2     :     0.000034
      f+3     :     0.000000
      f-3     :     0.000000
      g0      :     0.000002  g :     0.000003
      g+1     :     0.000000
      g-1     :     0.000000
      g+2     :     0.000000
      g-2     :     0.000000
      g+3     :     0.000000
      g-3     :     0.000000
      g+4     :     0.000000
      g-4     :     0.000000
  1 H s       :     0.895970  s :     0.895970
      pz      :    -0.022834  p :    -0.019318
      px      :     0.001758
      py      :     0.001758
      dz2     :     0.000823  d :     0.002060
      dxz     :     0.000602
      dyz     :     0.000602
      dx2y2   :     0.000017
      dxy     :     0.000017


                     *******************************
                     * LOEWDIN POPULATION ANALYSIS *
                     *******************************

----------------------
LOEWDIN ATOMIC CHARGES
----------------------
   0 Cu:    0.260090
   1 H :   -0.260090

-------------------------------
LOEWDIN REDUCED ORBITAL CHARGES
-------------------------------
  0 Cus       :     6.725076  s :     6.725076
      pz      :     4.134087  p :    12.134463
      px      :     4.000188
      py      :     4.000188
      dz2     :     1.923783  d :     9.879367
      dxz     :     1.978138
      dyz     :     1.978138
      dx2y2   :     1.999654
      dxy     :     1.999654
      f0      :     0.000718  f :     0.001000
      f+1     :     0.000106
      f-1     :     0.000106
      f+2     :     0.000035
      f-2     :     0.000035
      f+3     :     0.000000
      f-3     :     0.000000
      g0      :     0.000003  g :     0.000003
      g+1     :     0.000000
      g-1     :     0.000000
      g+2     :     0.000000
      g-2     :     0.000000
      g+3     :     0.000000
      g-3     :     0.000000
      g+4     :     0.000000
      g-4     :     0.000000
  1 H s       :     1.113915  s :     1.113915
      pz      :     0.091694  p :     0.124765
      px      :     0.016536
      py      :     0.016536
      dz2     :     0.010724  d :     0.021410
      dxz     :     0.005032
      dyz     :     0.005032
      dx2y2   :     0.000311
      dxy     :     0.000311


                      *****************************
                      * MAYER POPULATION ANALYSIS *
                      *****************************

  NA   - Mulliken gross atomic population
  ZA   - Total nuclear charge
  QA   - Mulliken gross atomic charge
  VA   - Mayer's total valence
  BVA  - Mayer's bonded valence
  FA   - Mayer's free valence

  ATOM       NA         ZA         QA         VA         BVA        FA
  0 Cu    29.1213    29.0000    -0.1213     0.9877     0.9877    -0.0000
  1 H      0.8787     1.0000     0.1213     0.9877     0.9877    -0.0000

  Mayer bond orders larger than 0.100000
B(  0-Cu,  1-H ) :   0.9877 

-------
TIMINGS
-------

Total SCF time: 0 days 0 hours 0 min 3 sec 

Total time                  ....       3.730 sec
Sum of individual times     ....       3.360 sec  ( 90.1%)

Fock matrix formation       ....       2.816 sec  ( 75.5%)
  XC integration            ....       0.530 sec  ( 18.8% of F)
    Basis function eval.    ....       0.023 sec  (  4.3% of XC)
    Density eval.           ....       0.017 sec  (  3.2% of XC)
    XC-Functional eval.     ....       0.021 sec  (  4.1% of XC)
    XC-Potential eval.      ....       0.021 sec  (  4.0% of XC)
Diagonalization             ....       0.056 sec  (  1.5%)
Density matrix formation    ....       0.080 sec  (  2.1%)
Population analysis         ....       0.010 sec  (  0.3%)
Initial guess               ....       0.116 sec  (  3.1%)
Orbital Transformation      ....       0.000 sec  (  0.0%)
Orbital Orthonormalization  ....       0.000 sec  (  0.0%)
DIIS solution               ....       0.118 sec  (  3.2%)
Grid generation             ....       0.163 sec  (  4.4%)


           ************************************************************
           *        Program running with 24 parallel MPI-processes    *
           *              working on a common directory               *
           ************************************************************

------------------------------------------------------------------------------
                                ORCA  MP2 
------------------------------------------------------------------------------

Freezing NCore=10 chemical core electrons

----------------------
RI-MP2 ENERGY+GRADIENT
----------------------
Dimension of the basis                    ...   84
Memory devoted to MP2                     ... 5000 MB   
Data format for buffers                   ... DOUBLE
Compression type for matrix containers    ... UNCOMPRESSED
Overall scaling of the MP2 energy         ...   2.700e-01
Calculating two index integrals           ... done (    0.007 sec)
Cholesky decomposition of the V-matrix    ... done
Cholesky decomposition of V**-1           ... done (    0.016 sec)

-----------------
RI-TRANSFORMATION (AUX index driven)
-----------------

Dimension of the orbital-basis         ... 84
Dimension of the aux-basis             ... 264
Transformation of internal MOs         ...    0-  14
Transformation of internal/external MOs...    0-  14 to   15-  83
Number Format for Storage              ... Double (8 Byte)
Integral mode                          ... Direct

First Phase: integral generation and transformation of MO indices
  Aux angular momentum 0               ... done (    0.001 sec)
  Aux angular momentum 1               ... done (    0.004 sec)
  Aux angular momentum 2               ... done (    0.001 sec)
  Aux angular momentum 3               ... done (    0.001 sec)
  Aux angular momentum 4               ... done (    0.002 sec)
  Aux angular momentum 5               ... done (    0.003 sec)
  Aux angular momentum 6               ... done (    0.004 sec)
Closing buffer VIJ ( 0.00 GB; CompressionRatio= 0.99)
Closing buffer VIA ( 0.00 GB; CompressionRatio= 1.00)
  Phase 1 completed in     0.138 sec
Second Phase: sorting and transformation of aux index

IJ-Transformation
Memory available                       ... 4997 MB 
Max. # MO pairs treated in a batch     ... 1    
# of internal orbitals                 ... 15
# batches for internal orbitals        ... 1
Closing buffer IJV ( 0.00 GB; CompressionRatio= 0.99)
(ij|v) transformation done in     0.016 sec

IA-Transformation
Memory available                       ... 4997 MB 
Max. # MO pairs treated in a batch     ... 1    
# of internal orbitals                 ... 15
# batches for internal orbitals        ... 1
Closing buffer IAV ( 0.00 GB; CompressionRatio= 1.00)
(ia|v) transformation done in     0.021 sec

  Phase 2 completed in     0.154 sec
RI-Integral transformation completed in     0.308 sec
Opening buffers                              ... done
Frozen core precalculation                   ... done

Starting loop over batches of integrals:

Operator 0  - window                       ... (  5- 14)x( 15- 83)
Operator 0  - Memory available             ...  5000 MB
Operator 0  - Memory needed per MO         ...   0.3 MB
Operator 0  - Number of orbitals per batch ... 1
Operator 0  - Number of batches            ... 1

OPERATOR  0   PASS   0:  MOs     5 ...    5 +    6 ...    6 +    7 ...    7 +    8 ...    8
                            +    9 ...    9 +   10 ...   10 +   11 ...   11 +   12 ...   12
                            +   13 ...   13 +   14 ...   14
  Reading integrals       ... ok
Closing buffer GIPV ( 0.00 GB; CompressionRatio= 1.00)
Time spent in pair loops =     0.080 sec
Deleting buffer (Ka|jb)[aa] ...done

-----------------------------------------------
 RI-MP2 CORRELATION ENERGY:     -0.280513402 Eh
-----------------------------------------------


---------------------
MP2 DENSITY FORMATION
---------------------

Completing the external part of the density      ... done
Storing the unrelaxed density                    ... done

Calculating the xc-kernel                        ... done
Calculating G(D)                                 ... done
Completing the Lagrangian                        ... done
Solving the Z-vector equations                   ... 

------------------------------------------------------------------------------
                           ORCA CP-SCF CALCULATION
------------------------------------------------------------------------------

Input orbitals are from        ... Cu01N0_H.gbw
Input Perturbation             ... Cu01N0_H.pin.tmp
Wavefunction output            ... Cu01N0_H.pout.tmp
Perturbation mode              ... Real perturbation (singlet)
Solver                         ... POPLE
Max. number of iterations      ... 128
Convergence tolerance          ... 1.000e-08
Integral handling              ... Direct
Number of perturbations        ... 1
Number of operators            ... 1
Orbital ranges used for CP-SCF:
 Operator 0:  Orbitals   0... 14  to  15... 83
DFT calculation                         ... on
Exchange functional (SCF)               ... B88
Exchange functional (CP-SCF)            ... B88
   X-Alpha parameter    XAlpha (SCF)    ...  0.666667
   X-Alpha parameter    XAlpha (CP-SCF) ...  0.666667
   Becke's b parameter  XBeta (SCF)     ...  0.004200
   Becke's b parameter  XBeta (CP-SCF)  ...  0.004200
Correlation functional (SCF)            ... LYP
Correlation functional (CP-SCF)         ... LYP
 LDA part of GGA corr.  LDAOpt (SCF)    ... VWN-3
 LDA part of GGA corr.  LDAOpt (CP-SCF) ... VWN-3
Hybrid DFT                              ... on
   Exchange mixing (SCF)                ...  0.530
   Exchange mixing (CP-SCF)             ...  0.530
   GGA exch. scaling(SCF)               ...  0.470
   GGA exch. scaling (CP-SCF)           ...  0.470
   GGA corr. scaling (SCF)              ...  0.730
   GGA corr. scaling (CP-SCF)           ...  0.730
Variables per vector in CP-SCF ... 1035
Number of vectors sought       ... 1
Recalculating density on grid  ... done
Calculating the xc-kernel      ... done
     CP-SCF ITERATION   0: 
     CP-SCF ITERATION   1:      0.002557469543
     CP-SCF ITERATION   2:      0.000526162982
     CP-SCF ITERATION   3:      0.000033701807
     CP-SCF ITERATION   4:      0.000001265843
     CP-SCF ITERATION   5:      0.000000056921
     CP-SCF ITERATION   6:      0.000000001557
done
Finalizing the relaxed density                   ... done
Transforming P to the AO basis                   ... done
Storing the relaxed density                      ... done

------------------------------------
ENERGY WEIGHTED DENSITY FINALIZATION
------------------------------------

Gathering the parts of the W-matrix              ... done
Forming the Z-density                            ... done
Transforming Z to the AO basis                   ... done
Calculating G(Z)                                 ... done
Finalizing the W-matrix                          ... done
Transforming W to the AO basis and storing       ... done
Entering the RIJONX and RIJCOSX sections
Starting the three-index derivative integrals:
Operator 0  - Memory available             ...  5000 MB
Operator 0  - Memory needed per MO         ...   0.3 MB
Operator 0  - Number of orbitals per batch ... 1
Operator 0  - Number of batches            ... 1

OPERATOR  0   PASS   0:  MOs     5 ...    5 +    6 ...    6 +    7 ...    7 +    8 ...    8
                            +    9 ...    9 +   10 ...   10 +   11 ...   11 +   12 ...   12
                            +   13 ...   13 +   14 ...   14

----------------------------------
MP2 DERIVATIVE INTEGRAL GENERATION
----------------------------------


Input Correlated Electron Density   ... Cu01N0_H.pmp2re
Input Energy Weighted Density       ... Cu01N0_H.wmp2.tmp
Input SCF Electron Density          ... Cu01N0_H.scfp

One-Electron Terms    ...
                        ... One-Electron Terms done
Prescreening matrices              ... done
Exchange-correlation gradient    ... done
Dispersion correction            ... done

                *********************************************
                * UNRELAXED MP2 DENSITY POPULATION ANALYSIS *
                *********************************************

------------------------------------------------------------------------------
                           ORCA POPULATION ANALYSIS
------------------------------------------------------------------------------
Input electron density              ... Cu01N0_H.pmp2ur
BaseName (.gbw .S,...)              ... Cu01N0_H

                    ********************************
                    * MULLIKEN POPULATION ANALYSIS *
                    ********************************

-----------------------
MULLIKEN ATOMIC CHARGES
-----------------------
   0 Cu:   -0.119000
   1 H :    0.119000
Sum of atomic charges:   -0.0000000

--------------------------------
MULLIKEN REDUCED ORBITAL CHARGES
--------------------------------
  0 Cus       :     7.047758  s :     7.047758
      pz      :     4.158792  p :    12.166974
      px      :     4.004091
      py      :     4.004091
      dz2     :     1.910761  d :     9.892339
      dxz     :     1.993836
      dyz     :     1.993836
      dx2y2   :     1.996953
      dxy     :     1.996953
      f0      :     0.001778  f :     0.011081
      f+1     :     0.001562
      f-1     :     0.001562
      f+2     :     0.001565
      f-2     :     0.001565
      f+3     :     0.001525
      f-3     :     0.001525
      g0      :     0.000096  g :     0.000848
      g+1     :     0.000094
      g-1     :     0.000094
      g+2     :     0.000094
      g-2     :     0.000094
      g+3     :     0.000094
      g-3     :     0.000094
      g+4     :     0.000093
      g-4     :     0.000093
  1 H s       :     0.895164  s :     0.895164
      pz      :    -0.022963  p :    -0.016459
      px      :     0.003252
      py      :     0.003252
      dz2     :     0.000861  d :     0.002294
      dxz     :     0.000670
      dyz     :     0.000670
      dx2y2   :     0.000047
      dxy     :     0.000047


                     *******************************
                     * LOEWDIN POPULATION ANALYSIS *
                     *******************************

----------------------
LOEWDIN ATOMIC CHARGES
----------------------
   0 Cu:    0.262606
   1 H :   -0.262606

-------------------------------
LOEWDIN REDUCED ORBITAL CHARGES
-------------------------------
  0 Cus       :     6.724171  s :     6.724171
      pz      :     4.134950  p :    12.141692
      px      :     4.003371
      py      :     4.003371
      dz2     :     1.916564  d :     9.858911
      dxz     :     1.974526
      dyz     :     1.974526
      dx2y2   :     1.996647
      dxy     :     1.996647
      f0      :     0.002313  f :     0.011771
      f+1     :     0.001638
      f-1     :     0.001638
      f+2     :     0.001566
      f-2     :     0.001566
      f+3     :     0.001525
      f-3     :     0.001525
      g0      :     0.000097  g :     0.000849
      g+1     :     0.000094
      g-1     :     0.000094
      g+2     :     0.000094
      g-2     :     0.000094
      g+3     :     0.000094
      g-3     :     0.000094
      g+4     :     0.000093
      g-4     :     0.000093
  1 H s       :     1.109168  s :     1.109168
      pz      :     0.094131  p :     0.131545
      px      :     0.018707
      py      :     0.018707
      dz2     :     0.010854  d :     0.021893
      dxz     :     0.005169
      dyz     :     0.005169
      dx2y2   :     0.000351
      dxy     :     0.000351


                      *****************************
                      * MAYER POPULATION ANALYSIS *
                      *****************************

  NA   - Mulliken gross atomic population
  ZA   - Total nuclear charge
  QA   - Mulliken gross atomic charge
  VA   - Mayer's total valence
  BVA  - Mayer's bonded valence
  FA   - Mayer's free valence

  ATOM       NA         ZA         QA         VA         BVA        FA
  0 Cu    29.1190    29.0000    -0.1190     1.4084     0.9566     0.4518
  1 H      0.8810     1.0000     0.1190     0.9950     0.9566     0.0384

  Mayer bond orders larger than 0.100000
B(  0-Cu,  1-H ) :   0.9566 


                *******************************************
                * RELAXED MP2 DENSITY POPULATION ANALYSIS *
                *******************************************

------------------------------------------------------------------------------
                           ORCA POPULATION ANALYSIS
------------------------------------------------------------------------------
Input electron density              ... Cu01N0_H.pmp2re
BaseName (.gbw .S,...)              ... Cu01N0_H

                    ********************************
                    * MULLIKEN POPULATION ANALYSIS *
                    ********************************

-----------------------
MULLIKEN ATOMIC CHARGES
-----------------------
   0 Cu:   -0.247973
   1 H :    0.247973
Sum of atomic charges:   -0.0000000

--------------------------------
MULLIKEN REDUCED ORBITAL CHARGES
--------------------------------
  0 Cus       :     7.210906  s :     7.210906
      pz      :     4.157429  p :    12.165627
      px      :     4.004099
      py      :     4.004099
      dz2     :     1.880169  d :     9.859550
      dxz     :     1.992742
      dyz     :     1.992742
      dx2y2   :     1.996948
      dxy     :     1.996948
      f0      :     0.001762  f :     0.011042
      f+1     :     0.001554
      f-1     :     0.001554
      f+2     :     0.001561
      f-2     :     0.001561
      f+3     :     0.001525
      f-3     :     0.001525
      g0      :     0.000097  g :     0.000849
      g+1     :     0.000095
      g-1     :     0.000095
      g+2     :     0.000094
      g-2     :     0.000094
      g+3     :     0.000094
      g-3     :     0.000094
      g+4     :     0.000093
      g-4     :     0.000093
  1 H s       :     0.772737  s :     0.772737
      pz      :    -0.031844  p :    -0.023247
      px      :     0.004298
      py      :     0.004298
      dz2     :     0.000993  d :     0.002537
      dxz     :     0.000717
      dyz     :     0.000717
      dx2y2   :     0.000055
      dxy     :     0.000055


                     *******************************
                     * LOEWDIN POPULATION ANALYSIS *
                     *******************************

----------------------
LOEWDIN ATOMIC CHARGES
----------------------
   0 Cu:    0.261430
   1 H :   -0.261430

-------------------------------
LOEWDIN REDUCED ORBITAL CHARGES
-------------------------------
  0 Cus       :     6.785353  s :     6.785353
      pz      :     4.108849  p :    12.115849
      px      :     4.003500
      py      :     4.003500
      dz2     :     1.886725  d :     9.824845
      dxz     :     1.972433
      dyz     :     1.972433
      dx2y2   :     1.996627
      dxy     :     1.996627
      f0      :     0.002247  f :     0.011673
      f+1     :     0.001626
      f-1     :     0.001626
      f+2     :     0.001562
      f-2     :     0.001562
      f+3     :     0.001525
      f-3     :     0.001525
      g0      :     0.000098  g :     0.000849
      g+1     :     0.000094
      g-1     :     0.000094
      g+2     :     0.000094
      g-2     :     0.000094
      g+3     :     0.000094
      g-3     :     0.000094
      g+4     :     0.000093
      g-4     :     0.000093
  1 H s       :     1.093619  s :     1.093619
      pz      :     0.104927  p :     0.146294
      px      :     0.020684
      py      :     0.020684
      dz2     :     0.010431  d :     0.021516
      dxz     :     0.005167
      dyz     :     0.005167
      dx2y2   :     0.000375
      dxy     :     0.000375


                      *****************************
                      * MAYER POPULATION ANALYSIS *
                      *****************************

  NA   - Mulliken gross atomic population
  ZA   - Total nuclear charge
  QA   - Mulliken gross atomic charge
  VA   - Mayer's total valence
  BVA  - Mayer's bonded valence
  FA   - Mayer's free valence

  ATOM       NA         ZA         QA         VA         BVA        FA
  0 Cu    29.2480    29.0000    -0.2480     1.3213     0.8979     0.4234
  1 H      0.7520     1.0000     0.2480     0.9296     0.8979     0.0317

  Mayer bond orders larger than 0.100000
B(  0-Cu,  1-H ) :   0.8979 


-------
TIMINGS
-------

Total time                :    6.657 sec
Integral trafo            :    0.325 sec (  4.9%)
FC preparation            :    0.025 sec (  0.4%)
I/O of integrals          :    0.013 sec (  0.2%)
K(i,j) Operators          :    0.001 sec (  0.0%)
T(i,j) pair energies      :    0.001 sec (  0.0%)
V-calculation             :    0.007 sec (  0.1%)
V**(-1/2)                 :    0.016 sec (  0.2%)
Gamma(ia|P)               :    0.001 sec (  0.0%)
Gamma-Trafo               :    0.001 sec (  0.0%)
D(virtual)                :    0.000 sec (  0.0%)
D(internal)               :    0.001 sec (  0.0%)
W(virtual)                :    0.000 sec (  0.0%)
W(internal)               :    0.001 sec (  0.0%)
L(virtual)                :    0.040 sec (  0.6%)
L(internal)               :    0.000 sec (  0.0%)
G(D)                      :    0.353 sec (  5.3%)
G(Z)                      :    0.324 sec (  4.9%)
Z-Vector Solution         :    3.270 sec ( 49.1%)
Z-Vector Solution         :    3.270 sec ( 49.1%)
3-Index Derivative 
+ Separable RIJ part      :    0.091 sec (  1.4%)
2-Index Derivative 
+ Separable RIJ part      :    0.002 sec (  0.0%)
Separable Gradient (X)    :    0.980 sec ( 14.7%)


---------------------------------------
MP2 TOTAL ENERGY:    -1640.915022966 Eh
---------------------------------------

-----------------------------------
NORM OF THE MP2 GRADIENT:  0.015088
-----------------------------------


-------------------------------------------------------------------------------
                          DFT DISPERSION CORRECTION                            
                                                                               
                              DFTD3 V3.1  Rev 1                                
                          USING Becke-Johnson damping                          
-------------------------------------------------------------------------------
The B2PLYP functional is recognized
Active option DFTDOPT                   ...         4   

molecular C6(AA) [au] = 226.212645 


            DFT-D V3
 parameters
 s6 scaling factor         :     0.6400 
 a1 scaling factor         :     0.3065 
 s8 scaling factor         :     0.9147 
 a2 scaling factor         :     5.0570 
 ad hoc parameters k1-k3   :    16.0000     1.3333    -4.0000 

 Edisp/kcal,au: -0.185226029896  -0.000295176436 
 E6   /kcal   :  -0.093399716 
 E8   /kcal   :  -0.091826313 
 % E8         :  49.575274861 

-------------------------   ----------------
Dispersion correction           -0.000295176
-------------------------   ----------------


-------------------------   --------------------
FINAL SINGLE POINT ENERGY     -1640.915318142069
-------------------------   --------------------

------------------------------------------------------------------------------
                         ORCA GEOMETRY RELAXATION STEP
------------------------------------------------------------------------------

Reading the OPT-File                    .... done
Getting information on internals        .... done
Copying old internal coords+grads       .... done
Making the new internal coordinates     .... (new redundants).... done
Validating the new internal coordinates .... (new redundants).... done
Calculating the B-matrix                .... done
Calculating the G,G- and P matrices     .... done
Transforming gradient to internals      .... done
Projecting the internal gradient        .... done
Number of atoms                         ....   2
Number of internal coordinates          ....   1
Current Energy                          .... -1640.915318142 Eh
Current gradient norm                   ....     0.015088103 Eh/bohr
Maximum allowed component of the step   ....  0.300
Current trust radius                    ....  0.300
Evaluating the initial hessian          ....  (Almloef) done
Projecting the Hessian                  .... done
Forming the augmented Hessian           .... done
Diagonalizing the augmented Hessian     .... done
Last element of RFO vector              ....  0.999937215
Lowest eigenvalues of augmented Hessian:
 -0.000119559
Length of the computed step             ....  0.011206304
The final length of the internal step   ....  0.011206304
Converting the step to cartesian space:
 Initial RMS(Int)=    0.0112063040
Transforming coordinates:
 Iter   0:  RMS(Cart)=    0.0032349813 RMS(Int)=    0.0112063040
 Iter   1:  RMS(Cart)=    0.0000000000 RMS(Int)=    0.0000000000
done
Storing new coordinates                 .... done

                                .--------------------.
          ----------------------|Geometry convergence|-------------------------
          Item                value                   Tolerance       Converged
          ---------------------------------------------------------------------
          RMS gradient        0.0106688990            0.0001000000      NO
          MAX gradient        0.0106688990            0.0003000000      NO
          RMS step            0.0112063040            0.0020000000      NO
          MAX step            0.0112063040            0.0040000000      NO
          ........................................................
          Max(Bonds)      0.0059      Max(Angles)    0.00
          Max(Dihed)        0.00      Max(Improp)    0.00
          ---------------------------------------------------------------------

The optimization has not yet converged - more geometry cycles are needed


    ---------------------------------------------------------------------------
                         Redundant Internal Coordinates
                            (Angstroem and degrees)

        Definition                    Value    dE/dq     Step     New-Value
    ----------------------------------------------------------------------------
     1. B(H   1,Cu  0)                1.4554 -0.010669  0.0059    1.4613   
    ----------------------------------------------------------------------------

         *************************************************************
         *                GEOMETRY OPTIMIZATION CYCLE   2            *
         *************************************************************
---------------------------------
CARTESIAN COORDINATES (ANGSTROEM)
---------------------------------
  Cu     0.000000    0.000000    0.051478
  H      0.000000    0.000000   -1.409835

----------------------------
CARTESIAN COORDINATES (A.U.)
----------------------------
  NO LB      ZA    FRAG     MASS         X           Y           Z
   0 Cu   29.0000    0    63.550    0.000000    0.000000    0.097279
   1 H     1.0000    0     1.008    0.000000    0.000000   -2.664202

--------------------------------
INTERNAL COORDINATES (ANGSTROEM)
--------------------------------
 Cu     0   0   0     0.000000000000     0.00000000     0.00000000
 H      1   0   0     1.461313120685     0.00000000     0.00000000

---------------------------
INTERNAL COORDINATES (A.U.)
---------------------------
 Cu     0   0   0     0.000000000000     0.00000000     0.00000000
 H      1   0   0     2.761481594000     0.00000000     0.00000000



           ************************************************************
           *        Program running with 24 parallel MPI-processes    *
           *              working on a common directory               *
           ************************************************************
 One Electron integrals                  ... done
 Pre-screening matrix                    ... done


           ************************************************************
           *        Program running with 24 parallel MPI-processes    *
           *              working on a common directory               *
           ************************************************************

Diagonalization of the overlap matrix:
Smallest eigenvalue                        ... 2.037e-03
Time for diagonalization                   ...    0.002 sec
Threshold for overlap eigenvalues          ... 1.000e-08
Number of eigenvalues below threshold      ... 0
Time for construction of square roots      ...    0.005 sec
Total time needed                          ...    0.007 sec

-------------------
DFT GRID GENERATION
-------------------

General Integration Accuracy     IntAcc      ...  4.670
Radial Grid Type                 RadialGrid  ... Gauss-Chebyshev
Angular Grid (max. acc.)         AngularGrid ... Lebedev-302
Angular grid pruning method      GridPruning ... 3 (G Style)
Weight generation scheme         WeightScheme... Becke
Basis function cutoff            BFCut       ...    1.0000e-11
Integration weight cutoff        WCut        ...    1.0000e-14
Grids for H and He will be reduced by one unit

# of grid points (after initial pruning)     ...  12950 (   0.0 sec)
# of grid points (after weights+screening)   ...  12913 (   0.0 sec)
nearest neighbour list constructed           ...    0.0 sec
Grid point re-assignment to atoms done       ...    0.0 sec
Grid point division into batches done        ...    0.1 sec
Reduced shell lists constructed in    0.1 sec

Total number of grid points                  ...    12913
Total number of batches                      ...      203
Average number of points per batch           ...       63
Average number of grid points per atom       ...     6456
Average number of shells per batch           ...     6.10 (23.46%)
Average number of basis functions per batch  ...    14.90 (17.74%)
Average number of large shells per batch     ...     4.40 (72.13%)
Average number of large basis fcns per batch ...    12.60 (84.56%)
Average number of aux-shells per batch       ...     6.10 ( 9.53%)
Average number of aux functions per batch    ...    14.90 ( 5.28%)
Maximum spatial batch extension              ...  28.79, 26.18, 17.10 au
Average spatial batch extension              ...   0.94,  0.87,  0.65 au

Time for grid setup =    0.111 sec

--------------
SCF ITERATIONS
--------------
ITER       Energy         Delta-E        Max-DP      RMS-DP      [F,P]     Damp
  0  -1640.6346471300   0.000000000000 0.00041562  0.00001142  0.0022177 0.7000
  1  -1640.6346804051  -0.000033275088 0.00055057  0.00001260  0.0015541 0.7000
                               ***Turning on DIIS***
  2  -1640.6346790926   0.000001312482 0.00179338  0.00003600  0.0010879 0.0000
  3  -1640.6346502935   0.000028799109 0.00034540  0.00000825  0.0002222 0.0000
  4  -1640.6346504364  -0.000000142924 0.00010825  0.00000332  0.0001242 0.0000
  5  -1640.6346504673  -0.000000030825 0.00008810  0.00000205  0.0001139 0.0000
  6  -1640.6346504836  -0.000000016373 0.00008317  0.00000221  0.0000500 0.0000
  7  -1640.6346504936  -0.000000010001 0.00007759  0.00000176  0.0000144 0.0000
  8  -1640.6346504961  -0.000000002475 0.00001829  0.00000039  0.0000035 0.0000
                 **** Energy Check signals convergence ****

               *****************************************************
               *                     SUCCESS                       *
               *           SCF CONVERGED AFTER   9 CYCLES          *
               *****************************************************

Total Energy       :        -1640.63465050 Eh          -44643.93849 eV
  Last Energy change         ...   -8.8221e-11  Tolerance :   1.0000e-08
  Last MAX-Density change    ...    3.2533e-06  Tolerance :   1.0000e-07
             **** THE GBW FILE WAS UPDATED (Cu01N0_H.gbw) ****
             **** DENSITY FILE WAS UPDATED (Cu01N0_H.scfp) ****
             **** ENERGY FILE WAS UPDATED (Cu01N0_H.en.tmp) ****
             **** THE GBW FILE WAS UPDATED (Cu01N0_H.gbw) ****
             **** DENSITY FILE WAS UPDATED (Cu01N0_H.scfp) ****
Total SCF time: 0 days 0 hours 0 min 2 sec 


           ************************************************************
           *        Program running with 24 parallel MPI-processes    *
           *              working on a common directory               *
           ************************************************************

------------------------------------------------------------------------------
                                ORCA  MP2 
------------------------------------------------------------------------------

Freezing NCore=10 chemical core electrons

----------------------
RI-MP2 ENERGY+GRADIENT
----------------------
Dimension of the basis                    ...   84
Memory devoted to MP2                     ... 5000 MB   
Data format for buffers                   ... DOUBLE
Compression type for matrix containers    ... UNCOMPRESSED
Overall scaling of the MP2 energy         ...   2.700e-01
Calculating two index integrals           ... done (    0.004 sec)
Cholesky decomposition of the V-matrix    ... done
Cholesky decomposition of V**-1           ... done (    0.005 sec)

-----------------
RI-TRANSFORMATION (AUX index driven)
-----------------

Dimension of the orbital-basis         ... 84
Dimension of the aux-basis             ... 264
Transformation of internal MOs         ...    0-  14
Transformation of internal/external MOs...    0-  14 to   15-  83
Number Format for Storage              ... Double (8 Byte)
Integral mode                          ... Direct

First Phase: integral generation and transformation of MO indices
  Aux angular momentum 0               ... done (    0.000 sec)
  Aux angular momentum 1               ... done (    0.011 sec)
  Aux angular momentum 2               ... done (    0.001 sec)
  Aux angular momentum 3               ... done (    0.001 sec)
  Aux angular momentum 4               ... done (    0.002 sec)
  Aux angular momentum 5               ... done (    0.003 sec)
  Aux angular momentum 6               ... done (    0.004 sec)
Closing buffer VIJ ( 0.00 GB; CompressionRatio= 0.99)
Closing buffer VIA ( 0.00 GB; CompressionRatio= 1.00)
  Phase 1 completed in     0.121 sec
Second Phase: sorting and transformation of aux index

IJ-Transformation
Memory available                       ... 4997 MB 
Max. # MO pairs treated in a batch     ... 1    
# of internal orbitals                 ... 15
# batches for internal orbitals        ... 1
Closing buffer IJV ( 0.00 GB; CompressionRatio= 0.99)
(ij|v) transformation done in     0.017 sec

IA-Transformation
Memory available                       ... 4997 MB 
Max. # MO pairs treated in a batch     ... 1    
# of internal orbitals                 ... 15
# batches for internal orbitals        ... 1
Closing buffer IAV ( 0.00 GB; CompressionRatio= 1.00)
(ia|v) transformation done in     0.018 sec

  Phase 2 completed in     0.107 sec
RI-Integral transformation completed in     0.240 sec
Opening buffers                              ... done
Frozen core precalculation                   ... done

Starting loop over batches of integrals:

Operator 0  - window                       ... (  5- 14)x( 15- 83)
Operator 0  - Memory available             ...  5000 MB
Operator 0  - Memory needed per MO         ...   0.3 MB
Operator 0  - Number of orbitals per batch ... 1
Operator 0  - Number of batches            ... 1

OPERATOR  0   PASS   0:  MOs     5 ...    5 +    6 ...    6 +    7 ...    7 +    8 ...    8
                            +    9 ...    9 +   10 ...   10 +   11 ...   11 +   12 ...   12
                            +   13 ...   13 +   14 ...   14
  Reading integrals       ... ok
Closing buffer GIPV ( 0.00 GB; CompressionRatio= 1.00)
Time spent in pair loops =     0.086 sec
Deleting buffer (Ka|jb)[aa] ...done

-----------------------------------------------
 RI-MP2 CORRELATION ENERGY:     -0.280401125 Eh
-----------------------------------------------


---------------------
MP2 DENSITY FORMATION
---------------------

Completing the external part of the density      ... done
Storing the unrelaxed density                    ... done

Calculating the xc-kernel                        ... done
Calculating G(D)                                 ... done
Completing the Lagrangian                        ... done
Solving the Z-vector equations                   ... 

------------------------------------------------------------------------------
                           ORCA CP-SCF CALCULATION
------------------------------------------------------------------------------

Input orbitals are from        ... Cu01N0_H.gbw
Input Perturbation             ... Cu01N0_H.pin.tmp
Wavefunction output            ... Cu01N0_H.pout.tmp
Perturbation mode              ... Real perturbation (singlet)
Solver                         ... POPLE
Max. number of iterations      ... 128
Convergence tolerance          ... 1.000e-08
Integral handling              ... Direct
Number of perturbations        ... 1
Number of operators            ... 1
Orbital ranges used for CP-SCF:
 Operator 0:  Orbitals   0... 14  to  15... 83
DFT calculation                         ... on
Exchange functional (SCF)               ... B88
Exchange functional (CP-SCF)            ... B88
   X-Alpha parameter    XAlpha (SCF)    ...  0.666667
   X-Alpha parameter    XAlpha (CP-SCF) ...  0.666667
   Becke's b parameter  XBeta (SCF)     ...  0.004200
   Becke's b parameter  XBeta (CP-SCF)  ...  0.004200
Correlation functional (SCF)            ... LYP
Correlation functional (CP-SCF)         ... LYP
 LDA part of GGA corr.  LDAOpt (SCF)    ... VWN-3
 LDA part of GGA corr.  LDAOpt (CP-SCF) ... VWN-3
Hybrid DFT                              ... on
   Exchange mixing (SCF)                ...  0.530
   Exchange mixing (CP-SCF)             ...  0.530
   GGA exch. scaling(SCF)               ...  0.470
   GGA exch. scaling (CP-SCF)           ...  0.470
   GGA corr. scaling (SCF)              ...  0.730
   GGA corr. scaling (CP-SCF)           ...  0.730
Variables per vector in CP-SCF ... 1035
Number of vectors sought       ... 1
Recalculating density on grid  ... done
Calculating the xc-kernel      ... done
     CP-SCF ITERATION   0: 
     CP-SCF ITERATION   1:      0.002570139725
     CP-SCF ITERATION   2:      0.000528611380
     CP-SCF ITERATION   3:      0.000033819131
     CP-SCF ITERATION   4:      0.000001267836
     CP-SCF ITERATION   5:      0.000000057409
     CP-SCF ITERATION   6:      0.000000001576
done
Finalizing the relaxed density                   ... done
Transforming P to the AO basis                   ... done
Storing the relaxed density                      ... done

------------------------------------
ENERGY WEIGHTED DENSITY FINALIZATION
------------------------------------

Gathering the parts of the W-matrix              ... done
Forming the Z-density                            ... done
Transforming Z to the AO basis                   ... done
Calculating G(Z)                                 ... done
Finalizing the W-matrix                          ... done
Transforming W to the AO basis and storing       ... done
Entering the RIJONX and RIJCOSX sections
Starting the three-index derivative integrals:
Operator 0  - Memory available             ...  5000 MB
Operator 0  - Memory needed per MO         ...   0.3 MB
Operator 0  - Number of orbitals per batch ... 1
Operator 0  - Number of batches            ... 1

OPERATOR  0   PASS   0:  MOs     5 ...    5 +    6 ...    6 +    7 ...    7 +    8 ...    8
                            +    9 ...    9 +   10 ...   10 +   11 ...   11 +   12 ...   12
                            +   13 ...   13 +   14 ...   14

----------------------------------
MP2 DERIVATIVE INTEGRAL GENERATION
----------------------------------


Input Correlated Electron Density   ... Cu01N0_H.pmp2re
Input Energy Weighted Density       ... Cu01N0_H.wmp2.tmp
Input SCF Electron Density          ... Cu01N0_H.scfp

One-Electron Terms    ...
                        ... One-Electron Terms done
Prescreening matrices              ... done
Exchange-correlation gradient    ... done
Dispersion correction            ... done

-------
TIMINGS
-------

Total time                :    5.388 sec
Integral trafo            :    0.256 sec (  4.8%)
FC preparation            :    0.045 sec (  0.8%)
I/O of integrals          :    0.000 sec (  0.0%)
K(i,j) Operators          :    0.001 sec (  0.0%)
T(i,j) pair energies      :    0.000 sec (  0.0%)
V-calculation             :    0.004 sec (  0.1%)
V**(-1/2)                 :    0.005 sec (  0.1%)
Gamma(ia|P)               :    0.001 sec (  0.0%)
Gamma-Trafo               :    0.001 sec (  0.0%)
D(virtual)                :    0.000 sec (  0.0%)
D(internal)               :    0.001 sec (  0.0%)
W(virtual)                :    0.000 sec (  0.0%)
W(internal)               :    0.001 sec (  0.0%)
L(virtual)                :    0.040 sec (  0.7%)
L(internal)               :    0.000 sec (  0.0%)
G(D)                      :    0.342 sec (  6.3%)
G(Z)                      :    0.328 sec (  6.1%)
Z-Vector Solution         :    3.227 sec ( 59.9%)
Z-Vector Solution         :    3.227 sec ( 59.9%)
3-Index Derivative 
+ Separable RIJ part      :    0.090 sec (  1.7%)
2-Index Derivative 
+ Separable RIJ part      :    0.002 sec (  0.0%)
Separable Gradient (X)    :    0.917 sec ( 17.0%)


---------------------------------------
MP2 TOTAL ENERGY:    -1640.915051621 Eh
---------------------------------------

-----------------------------------
NORM OF THE MP2 GRADIENT:  0.012720
-----------------------------------


-------------------------------------------------------------------------------
                          DFT DISPERSION CORRECTION                            
                                                                               
                              DFTD3 V3.1  Rev 1                                
                          USING Becke-Johnson damping                          
-------------------------------------------------------------------------------
-------------------------   ----------------
Dispersion correction           -0.000295261
-------------------------   ----------------


-------------------------   --------------------
FINAL SINGLE POINT ENERGY     -1640.915346881928
-------------------------   --------------------

------------------------------------------------------------------------------
                         ORCA GEOMETRY RELAXATION STEP
------------------------------------------------------------------------------

Reading the OPT-File                    .... done
Getting information on internals        .... done
Copying old internal coords+grads       .... done
Making the new internal coordinates     .... (new redundants).... done
Validating the new internal coordinates .... (new redundants).... done
Calculating the B-matrix                .... done
Calculating the G,G- and P matrices     .... done
Transforming gradient to internals      .... done
Projecting the internal gradient        .... done
Number of atoms                         ....   2
Number of internal coordinates          ....   1
Current Energy                          .... -1640.915346882 Eh
Current gradient norm                   ....     0.012719889 Eh/bohr
Maximum allowed component of the step   ....  0.300
Current trust radius                    ....  0.300
Updating the Hessian (BFGS)             .... done
Forming the augmented Hessian           .... done
Diagonalizing the augmented Hessian     .... done
Last element of RFO vector              ....  0.998206424
Lowest eigenvalues of augmented Hessian:
 -0.000539421
Length of the computed step             ....  0.059973548
The final length of the internal step   ....  0.059973548
Converting the step to cartesian space:
 Initial RMS(Int)=    0.0599735481
Transforming coordinates:
 Iter   0:  RMS(Cart)=    0.0173128721 RMS(Int)=    0.0599735481
 Iter   1:  RMS(Cart)=    0.0000000000 RMS(Int)=    0.0000000000
done
Storing new coordinates                 .... done

                                .--------------------.
          ----------------------|Geometry convergence|-------------------------
          Item                value                   Tolerance       Converged
          ---------------------------------------------------------------------
          Energy change      -0.0000287399            0.0000050000      NO
          RMS gradient        0.0089943186            0.0001000000      NO
          MAX gradient        0.0089943186            0.0003000000      NO
          RMS step            0.0599735481            0.0020000000      NO
          MAX step            0.0599735481            0.0040000000      NO
          ........................................................
          Max(Bonds)      0.0317      Max(Angles)    0.00
          Max(Dihed)        0.00      Max(Improp)    0.00
          ---------------------------------------------------------------------

The optimization has not yet converged - more geometry cycles are needed


    ---------------------------------------------------------------------------
                         Redundant Internal Coordinates
                            (Angstroem and degrees)

        Definition                    Value    dE/dq     Step     New-Value
    ----------------------------------------------------------------------------
     1. B(H   1,Cu  0)                1.4613 -0.008994  0.0317    1.4930   
    ----------------------------------------------------------------------------

         *************************************************************
         *                GEOMETRY OPTIMIZATION CYCLE   3            *
         *************************************************************
---------------------------------
CARTESIAN COORDINATES (ANGSTROEM)
---------------------------------
  Cu     0.000000    0.000000    0.067346
  H      0.000000    0.000000   -1.425703

----------------------------
CARTESIAN COORDINATES (A.U.)
----------------------------
  NO LB      ZA    FRAG     MASS         X           Y           Z
   0 Cu   29.0000    0    63.550    0.000000    0.000000    0.127266
   1 H     1.0000    0     1.008    0.000000    0.000000   -2.694189

--------------------------------
INTERNAL COORDINATES (ANGSTROEM)
--------------------------------
 Cu     0   0   0     0.000000000000     0.00000000     0.00000000
 H      1   0   0     1.493049755439     0.00000000     0.00000000

---------------------------
INTERNAL COORDINATES (A.U.)
---------------------------
 Cu     0   0   0     0.000000000000     0.00000000     0.00000000
 H      1   0   0     2.821455142098     0.00000000     0.00000000



           ************************************************************
           *        Program running with 24 parallel MPI-processes    *
           *              working on a common directory               *
           ************************************************************
 One Electron integrals                  ... done
 Pre-screening matrix                    ... done


           ************************************************************
           *        Program running with 24 parallel MPI-processes    *
           *              working on a common directory               *
           ************************************************************

Diagonalization of the overlap matrix:
Smallest eigenvalue                        ... 2.297e-03
Time for diagonalization                   ...    0.002 sec
Threshold for overlap eigenvalues          ... 1.000e-08
Number of eigenvalues below threshold      ... 0
Time for construction of square roots      ...    0.005 sec
Total time needed                          ...    0.007 sec

-------------------
DFT GRID GENERATION
-------------------

General Integration Accuracy     IntAcc      ...  4.670
Radial Grid Type                 RadialGrid  ... Gauss-Chebyshev
Angular Grid (max. acc.)         AngularGrid ... Lebedev-302
Angular grid pruning method      GridPruning ... 3 (G Style)
Weight generation scheme         WeightScheme... Becke
Basis function cutoff            BFCut       ...    1.0000e-11
Integration weight cutoff        WCut        ...    1.0000e-14
Grids for H and He will be reduced by one unit

# of grid points (after initial pruning)     ...  12950 (   0.0 sec)
# of grid points (after weights+screening)   ...  12913 (   0.0 sec)
nearest neighbour list constructed           ...    0.0 sec
Grid point re-assignment to atoms done       ...    0.0 sec
Grid point division into batches done        ...    0.1 sec
Reduced shell lists constructed in    0.1 sec

Total number of grid points                  ...    12913
Total number of batches                      ...      203
Average number of points per batch           ...       63
Average number of grid points per atom       ...     6456
Average number of shells per batch           ...     6.10 (23.46%)
Average number of basis functions per batch  ...    14.90 (17.74%)
Average number of large shells per batch     ...     4.40 (72.13%)
Average number of large basis fcns per batch ...    12.60 (84.56%)
Average number of aux-shells per batch       ...     6.10 ( 9.53%)
Average number of aux functions per batch    ...    14.90 ( 5.28%)
Maximum spatial batch extension              ...  28.79, 26.18, 17.31 au
Average spatial batch extension              ...   0.94,  0.87,  0.67 au

Time for grid setup =    0.110 sec

--------------
SCF ITERATIONS
--------------
ITER       Energy         Delta-E        Max-DP      RMS-DP      [F,P]     Damp
  0  -1640.6350083741   0.000000000000 0.00251030  0.00006295  0.0119306 0.7000
  1  -1640.6352108425  -0.000202468379 0.00321815  0.00006966  0.0083607 0.7000
                               ***Turning on DIIS***
  2  -1640.6352132105  -0.000002368060 0.01027552  0.00019877  0.0058525 0.0000
  3  -1640.6350950870   0.000118123548 0.00098861  0.00002535  0.0011383 0.0000
  4  -1640.6350981012  -0.000003014183 0.00062601  0.00002607  0.0005826 0.0000
  5  -1640.6350993268  -0.000001225669 0.00038914  0.00001086  0.0008430 0.0000
  6  -1640.6351001175  -0.000000790625 0.00053159  0.00001434  0.0001950 0.0000
  7  -1640.6351004833  -0.000000365807 0.00046116  0.00001015  0.0000812 0.0000
  8  -1640.6351005633  -0.000000080063 0.00010426  0.00000219  0.0000198 0.0000
  9  -1640.6351005664  -0.000000003022 0.00002474  0.00000053  0.0000048 0.0000
                            ***DIIS convergence achieved***

[...]
      px      :     4.004078
      py      :     4.004078
      dz2     :     1.891569  d :     9.871897
      dxz     :     1.993197
      dyz     :     1.993197
      dx2y2   :     1.996967
      dxy     :     1.996967
      f0      :     0.001743  f :     0.011002
      f+1     :     0.001553
      f-1     :     0.001553
      f+2     :     0.001556
      f-2     :     0.001556
      f+3     :     0.001521
      f-3     :     0.001521
      g0      :     0.000096  g :     0.000847
      g+1     :     0.000094
      g-1     :     0.000094
      g+2     :     0.000094
      g-2     :     0.000094
      g+3     :     0.000094
      g-3     :     0.000094
      g+4     :     0.000093
      g-4     :     0.000093
  1 H s       :     0.788419  s :     0.788419
      pz      :    -0.033045  p :    -0.025199
      px      :     0.003923
      py      :     0.003923
      dz2     :     0.001001  d :     0.002218
      dxz     :     0.000564
      dyz     :     0.000564
      dx2y2   :     0.000045
      dxy     :     0.000045


                     *******************************
                     * LOEWDIN POPULATION ANALYSIS *
                     *******************************

----------------------
LOEWDIN ATOMIC CHARGES
----------------------
   0 Cu:    0.242098
   1 H :   -0.242098

-------------------------------
LOEWDIN REDUCED ORBITAL CHARGES
-------------------------------
  0 Cus       :     6.782769  s :     6.782769
      pz      :     4.113330  p :    12.120677
      px      :     4.003674
      py      :     4.003674
      dz2     :     1.898194  d :     9.842086
      dxz     :     1.975230
      dyz     :     1.975230
      dx2y2   :     1.996716
      dxy     :     1.996716
      f0      :     0.002143  f :     0.011523
      f+1     :     0.001613
      f-1     :     0.001613
      f+2     :     0.001557
      f-2     :     0.001557
      f+3     :     0.001521
      f-3     :     0.001521
      g0      :     0.000097  g :     0.000847
      g+1     :     0.000094
      g-1     :     0.000094
      g+2     :     0.000094
      g-2     :     0.000094
      g+3     :     0.000094
      g-3     :     0.000094
      g+4     :     0.000093
      g-4     :     0.000093
  1 H s       :     1.088699  s :     1.088699
      pz      :     0.099056  p :     0.136292
      px      :     0.018618
      py      :     0.018618
      dz2     :     0.008153  d :     0.017107
      dxz     :     0.004182
      dyz     :     0.004182
      dx2y2   :     0.000295
      dxy     :     0.000295


                      *****************************
                      * MAYER POPULATION ANALYSIS *
                      *****************************

  NA   - Mulliken gross atomic population
  ZA   - Total nuclear charge
  QA   - Mulliken gross atomic charge
  VA   - Mayer's total valence
  BVA  - Mayer's bonded valence
  FA   - Mayer's free valence

  ATOM       NA         ZA         QA         VA         BVA        FA
  0 Cu    29.2346    29.0000    -0.2346     1.3231     0.9023     0.4208
  1 H      0.7654     1.0000     0.2346     0.9341     0.9023     0.0318

  Mayer bond orders larger than 0.100000
B(  0-Cu,  1-H ) :   0.9023 


-------
TIMINGS
-------

Total time                :    5.492 sec
Integral trafo            :    0.255 sec (  4.6%)
FC preparation            :    0.027 sec (  0.5%)
I/O of integrals          :    0.000 sec (  0.0%)
K(i,j) Operators          :    0.001 sec (  0.0%)
T(i,j) pair energies      :    0.000 sec (  0.0%)
V-calculation             :    0.004 sec (  0.1%)
V**(-1/2)                 :    0.003 sec (  0.1%)
Gamma(ia|P)               :    0.001 sec (  0.0%)
Gamma-Trafo               :    0.001 sec (  0.0%)
D(virtual)                :    0.000 sec (  0.0%)
D(internal)               :    0.001 sec (  0.0%)
W(virtual)                :    0.000 sec (  0.0%)
W(internal)               :    0.001 sec (  0.0%)
L(virtual)                :    0.040 sec (  0.7%)
L(internal)               :    0.000 sec (  0.0%)
G(D)                      :    0.407 sec (  7.4%)
G(Z)                      :    0.324 sec (  5.9%)
Z-Vector Solution         :    3.255 sec ( 59.3%)
Z-Vector Solution         :    3.255 sec ( 59.3%)
3-Index Derivative 
+ Separable RIJ part      :    0.090 sec (  1.6%)
2-Index Derivative 
+ Separable RIJ part      :    0.002 sec (  0.0%)
Separable Gradient (X)    :    0.905 sec ( 16.5%)


---------------------------------------
MP2 TOTAL ENERGY:    -1640.914876385 Eh
---------------------------------------

-----------------------------------
NORM OF THE MP2 GRADIENT:  0.000008
-----------------------------------


-------------------------------------------------------------------------------
                          DFT DISPERSION CORRECTION                            
                                                                               
                              DFTD3 V3.1  Rev 1                                
                          USING Becke-Johnson damping                          
-------------------------------------------------------------------------------
The B2PLYP functional is recognized
Active option DFTDOPT                   ...         4   

molecular C6(AA) [au] = 226.806882 


            DFT-D V3
 parameters
 s6 scaling factor         :     0.6400 
 a1 scaling factor         :     0.3065 
 s8 scaling factor         :     0.9147 
 a2 scaling factor         :     5.0570 
 ad hoc parameters k1-k3   :    16.0000     1.3333    -4.0000 

 Edisp/kcal,au: -0.185703872722  -0.000295937927 
 E6   /kcal   :  -0.093612545 
 E8   /kcal   :  -0.092091327 
 % E8         :  49.590418398 

-------------------------   ----------------
Dispersion correction           -0.000295938
-------------------------   ----------------


-------------------------   --------------------
FINAL SINGLE POINT ENERGY     -1640.915172322834
-------------------------   --------------------

                                *** OPTIMIZATION RUN DONE ***

                            ***************************************
                            *     ORCA property calculations      *
                            ***************************************

                                    ---------------------
                                    Active property flags
                                    ---------------------
   (+) Dipole Moment


------------------------------------------------------------------------------
                       ORCA ELECTRIC PROPERTIES CALCULATION
------------------------------------------------------------------------------

Dipole Moment Calculation                       ... on
Quadrupole Moment Calculation                   ... off
Polarizability Calculation                      ... off
GBWName                                         ... Cu01N0_H.gbw
Electron density file                           ... Cu01N0_H.scfp
The origin for moment calculation is the CENTER OF MASS  = ( 0.000000,  0.000000  0.085247)

-------------
DIPOLE MOMENT
-------------
                                X             Y             Z
Electronic contribution:      0.00000       0.00000       2.80920
Nuclear contribution   :      0.00000       0.00000      -1.50207
                        -----------------------------------------
Total Dipole Moment    :      0.00000       0.00000       1.30712
                        -----------------------------------------
Magnitude (a.u.)       :      1.30712
Magnitude (Debye)      :      3.32244



--------------------
Rotational spectrum 
--------------------
 
Rotational constants in cm-1:     0.000000     7.598540     7.598540 
Rotational constants in MHz :     0.000000 227798.494022 227798.494022 

 Dipole components along the rotational axes: 
x,y,z [a.u.] :     1.307123     0.000000     0.000000 
x,y,z [Debye]:     3.322443     0.000000     0.000000 

 

                         *** MP2 UNRELAXED DENSITY ***

------------------------------------------------------------------------------
                       ORCA ELECTRIC PROPERTIES CALCULATION
------------------------------------------------------------------------------

Dipole Moment Calculation                       ... on
Quadrupole Moment Calculation                   ... off
Polarizability Calculation                      ... off
GBWName                                         ... Cu01N0_H.gbw
Electron density file                           ... Cu01N0_H.pmp2ur
The origin for moment calculation is the CENTER OF MASS  = ( 0.000000,  0.000000  0.085247)

-------------
DIPOLE MOMENT
-------------
                                X             Y             Z
Electronic contribution:      0.00000       0.00000       2.79834
Nuclear contribution   :      0.00000       0.00000      -1.50207
                        -----------------------------------------
Total Dipole Moment    :      0.00000       0.00000       1.29627
                        -----------------------------------------
Magnitude (a.u.)       :      1.29627
Magnitude (Debye)      :      3.29485



--------------------
Rotational spectrum 
--------------------
 
Rotational constants in cm-1:     0.000000     7.598540     7.598540 
Rotational constants in MHz :     0.000000 227798.494022 227798.494022 

 Dipole components along the rotational axes: 
x,y,z [a.u.] :     1.296269     0.000000     0.000000 
x,y,z [Debye]:     3.294854     0.000000     0.000000 

 

                           *** MP2 RELAXED DENSITY ***

------------------------------------------------------------------------------
                       ORCA ELECTRIC PROPERTIES CALCULATION
------------------------------------------------------------------------------

Dipole Moment Calculation                       ... on
Quadrupole Moment Calculation                   ... off
Polarizability Calculation                      ... off
GBWName                                         ... Cu01N0_H.gbw
Electron density file                           ... Cu01N0_H.pmp2re
The origin for moment calculation is the CENTER OF MASS  = ( 0.000000,  0.000000  0.085247)

-------------
DIPOLE MOMENT
-------------
                                X             Y             Z
Electronic contribution:      0.00000       0.00000       2.61419
Nuclear contribution   :      0.00000       0.00000      -1.50207
                        -----------------------------------------
Total Dipole Moment    :      0.00000       0.00000       1.11211
                        -----------------------------------------
Magnitude (a.u.)       :      1.11211
Magnitude (Debye)      :      2.82676



--------------------
Rotational spectrum 
--------------------
 
Rotational constants in cm-1:     0.000000     7.598540     7.598540 
Rotational constants in MHz :     0.000000 227798.494022 227798.494022 

 Dipole components along the rotational axes: 
x,y,z [a.u.] :     1.112112     0.000000     0.000000 
x,y,z [Debye]:     2.826763     0.000000     0.000000 

 

----------------------------------------------------------------------------
                           ORCA NUMERICAL FREQUENCIES
                              (24-process run)
----------------------------------------------------------------------------

Number of atoms                ... 2
Central differences            ... used
Number of displacements        ... 12
Numerical increment            ... 5.000e-03 bohr
IR-spectrum generation         ... on
Raman-spectrum generation      ... off
Surface Crossing Hessian       ... off

 WARNING: There are more processes than displacements to do
  ====> : Reducing number of processes to   6

The output will be reduced. Please look at the following files:
SCF program output             ... >Cu01N0_H.lastscf
Integral program output        ... >Cu01N0_H.lastint
Gradient program output        ... >Cu01N0_H.lastgrad
Dipole moment program output   ... >Cu01N0_H.lastmom
AutoCI program output          ... >Cu01N0_H.lastautoci


         <<< Energy and Gradient at the input geometry >>>

        <<< Energy and Gradient at displaced geometries >>>
             <<<Displacing   1/coordinate 1 (+)>>>
             <<<Displacing   2/coordinate 1 (+)>>>
             <<<Displacing   1/coordinate 3 (+)>>>
             <<<Displacing   2/coordinate 3 (+)>>>
             <<<Displacing   2/coordinate 2 (+)>>>
             <<<Displacing   1/coordinate 2 (+)>>>
             <<<Displacing   1/coordinate 1 (-)>>>
             <<<Displacing   2/coordinate 2 (-)>>>
             <<<Displacing   2/coordinate 3 (-)>>>
             <<<Displacing   2/coordinate 1 (-)>>>
             <<<Displacing   1/coordinate 3 (-)>>>
             <<<Displacing   1/coordinate 2 (-)>>>
Warning: T+R mode no 5 is zero 

-----------------------
VIBRATIONAL FREQUENCIES
-----------------------

Scaling factor for frequencies =  1.000000000 (already applied!)

   0:         0.00 cm**-1
   1:         0.00 cm**-1
   2:         0.00 cm**-1
   3:         0.00 cm**-1
   4:         0.00 cm**-1
   5:      1879.36 cm**-1


------------
NORMAL MODES
------------

These modes are the cartesian displacements weighted by the diagonal matrix
M(i,i)=1/sqrt(m[i]) where m[i] is the mass of the displaced atom
Thus, these vectors are normalized but *not* orthogonal

                  0          1          2          3          4          5    
      0       0.000000   0.000000   0.000000   0.000000   0.000000   0.000000
      1       0.000000   0.000000   0.000000   0.000000   0.000000   0.000000
      2       0.000000   0.000000   0.000000   0.000000   0.000000   0.015860
      3       0.000000   0.000000   0.000000   0.000000   0.000000   0.000000
      4       0.000000   0.000000   0.000000   0.000000   0.000000   0.000000
      5       0.000000   0.000000   0.000000   0.000000   0.000000  -0.999874


-----------
IR SPECTRUM  
-----------

 Mode    freq (cm**-1)   T**2         TX         TY         TZ
-------------------------------------------------------------------
   5:      1879.36   72.758909  (  0.000010  -0.000004   8.529883)

The first frequency considered to be a vibration is 5
The total number of vibrations considered is 1


--------------------------
THERMOCHEMISTRY AT 298.15K
--------------------------

Temperature         ... 298.15 K
Pressure            ... 1.00 atm
Total Mass          ... 64.56 AMU
The molecule is recognized as being linear

Throughout the following assumptions are being made:
  (1) The electronic state is orbitally nondegenerate
  (2) There are no thermally accessible electronically excited states
  (3) Hindered rotations indicated by low frequency modes are not
      treated as such but are treated as vibrations and this may
      cause some error
  (4) All equations used are the standard statistical mechanics
      equations for an ideal gas
  (5) All vibrations are strictly harmonic

freq.    1879.36  E(vib)   ...       0.00 

------------
INNER ENERGY
------------

The inner energy is: U= E(el) + E(ZPE) + E(vib) + E(rot) + E(trans)
    E(el)   - is the total energy from the electronic structure calculation
              = E(kin-el) + E(nuc-el) + E(el-el) + E(nuc-nuc)
    E(ZPE)  - the the zero temperature vibrational energy from the frequency calculation
    E(vib)  - the the finite temperature correction to E(ZPE) due to population
              of excited vibrational states
    E(rot)  - is the rotational thermal energy
    E(trans)- is the translational thermal energy

Summary of contributions to the inner energy U:
Electronic energy                ...  -1640.91517244 Eh
Zero point energy                ...      0.00428150 Eh       2.69 kcal/mol
Thermal vibrational correction   ...      0.00000099 Eh       0.00 kcal/mol
Thermal rotational correction    ...      0.00094418 Eh       0.59 kcal/mol
Thermal translational correction ...      0.00141627 Eh       0.89 kcal/mol
-----------------------------------------------------------------------
Total thermal energy                  -1640.90852950 Eh


Summary of corrections to the electronic energy:
(perhaps to be used in another calculation)
Total thermal correction                  0.00236144 Eh       1.48 kcal/mol
Non-thermal (ZPE) correction              0.00428150 Eh       2.69 kcal/mol
-----------------------------------------------------------------------
Total correction                          0.00664294 Eh       4.17 kcal/mol


--------
ENTHALPY
--------

The enthalpy is H = U + kB*T
                kB is Boltzmann's constant
Total free energy                 ...  -1640.90852950 Eh 
Thermal Enthalpy correction       ...      0.00094421 Eh       0.59 kcal/mol
-----------------------------------------------------------------------
Total Enthalpy                    ...  -1640.90758529 Eh


Note: Rotational entropy computed according to Herzberg 
Infrared and Raman Spectra, Chapter V,1, Van Nostrand Reinhold, 1945 
Point Group:  Cinfv, Symmetry Number:   1  
Rotational constants in cm-1:     0.000000     7.598540     7.598540 

Vibrational entropy computed according to the QRRHO of S. Grimme
Chem.Eur.J. 2012 18 9955


-------
ENTROPY
-------

The entropy contributions are T*S = T*(S(el)+S(vib)+S(rot)+S(trans))
     S(el)   - electronic entropy
     S(vib)  - vibrational entropy
     S(rot)  - rotational entropy
     S(trans)- translational entropy
The entropies will be listed as mutliplied by the temperature to get
units of energy

Electronic entropy                ...      0.00000000 Eh      0.00 kcal/mol
Vibrational entropy               ...      0.00000109 Eh      0.00 kcal/mol
Rotational entropy                ...      0.00406551 Eh      2.55 kcal/mol
Translational entropy             ...      0.01825147 Eh     11.45 kcal/mol
-----------------------------------------------------------------------
Final entropy term                ...      0.02231807 Eh     14.00 kcal/mol

In case the symmetry of your molecule has not been determined correctly
or in case you have a reason to use a different symmetry number we print 
out the resulting rotational entropy values for sn=1,12 :
 --------------------------------------------------------
|  sn= 1 | S(rot)=             -inf Eh      -inf kcal/mol|
|  sn= 2 | S(rot)=             -inf Eh      -inf kcal/mol|
|  sn= 3 | S(rot)=             -inf Eh      -inf kcal/mol|
|  sn= 4 | S(rot)=             -inf Eh      -inf kcal/mol|
|  sn= 5 | S(rot)=             -inf Eh      -inf kcal/mol|
|  sn= 6 | S(rot)=             -inf Eh      -inf kcal/mol|
|  sn= 7 | S(rot)=             -inf Eh      -inf kcal/mol|
|  sn= 8 | S(rot)=             -inf Eh      -inf kcal/mol|
|  sn= 9 | S(rot)=             -inf Eh      -inf kcal/mol|
|  sn=10 | S(rot)=             -inf Eh      -inf kcal/mol|
|  sn=11 | S(rot)=             -inf Eh      -inf kcal/mol|
|  sn=12 | S(rot)=             -inf Eh      -inf kcal/mol|
 --------------------------------------------------------


-------------------
GIBBS FREE ENERGY
-------------------

The Gibbs free energy is G = H - T*S

Total enthalpy                    ...  -1640.90758529 Eh 
Total entropy correction          ...     -0.02231807 Eh    -14.00 kcal/mol
-----------------------------------------------------------------------
Final Gibbs free energy         ...  -1640.92990336 Eh

For completeness - the Gibbs free energy minus the electronic energy
G-E(el)                           ...     -0.01473093 Eh     -9.24 kcal/mol


Total Time for Numerical Frequencies  :        49.048 sec

Timings for individual modules:

Sum of individual times         ...       69.906 sec (=   1.165 min)
GTO integral calculation        ...        9.672 sec (=   0.161 min)  13.8 %
SCF iterations                  ...       18.320 sec (=   0.305 min)  26.2 %
MP2 module                      ...       40.733 sec (=   0.679 min)  58.3 %
Geometry relaxation             ...        1.181 sec (=   0.020 min)   1.7 %
                             ****ORCA TERMINATED NORMALLY****
TOTAL RUN TIME: 0 days 0 hours 1 minutes 54 seconds 327 msec
