
                                 *****************
                                 * O   R   C   A *
                                 *****************

           --- An Ab Initio, DFT and Semiempirical electronic structure package ---

                  #######################################################
                  #                        -***-                        #
                  #          Department of theory and spectroscopy      #
                  #               Directorship: Frank Neese             #
                  #        Max Planck Institute fuer Kohlenforschung    #
                  #                Kaiser Wilhelm Platz 1               #
                  #                 D-45470 Muelheim/Ruhr               #
                  #                      Germany                        #
                  #                                                     #
                  #                  All rights reserved                #
                  #                        -***-                        #
                  #######################################################


                         Program Version 4.2.0 -  RELEASE  -


 With contributions from (in alphabetic order):
   Daniel Aravena         : Magnetic Suceptibility
   Michael Atanasov       : Ab Initio Ligand Field Theory (pilot matlab implementation)
   Alexander A. Auer      : GIAO ZORA, VPT2
   Ute Becker             : Parallelization
   Giovanni Bistoni       : ED, misc. LED, open-shell LED, HFLED
   Martin Brehm           : Molecular dynamics
   Dmytro Bykov           : SCF Hessian
   Vijay G. Chilkuri      : MRCI spin determinant printing, contributions to CSF-ICE
   Dipayan Datta          : RHF DLPNO-CCSD density
   Achintya Kumar Dutta   : EOM-CC, STEOM-CC
   Dmitry Ganyushin       : Spin-Orbit,Spin-Spin,Magnetic field MRCI
   Miquel Garcia          : C-PCM Hessian, Gaussian charge scheme
   Yang Guo               : DLPNO-NEVPT2, CIM, IAO-localization
   Andreas Hansen         : Spin unrestricted coupled pair/coupled cluster methods
   Benjamin Helmich-Paris : CASSCF linear response (MC-RPA)
   Lee Huntington         : MR-EOM, pCC
   Robert Izsak           : Overlap fitted RIJCOSX, COSX-SCS-MP3, EOM
   Christian Kollmar      : KDIIS, OOCD, Brueckner-CCSD(T), CCSD density
   Simone Kossmann        : Meta GGA functionals, TD-DFT gradient, OOMP2, MP2 Hessian
   Martin Krupicka        : AUTO-CI
   Lucas Lang             : DCDCAS
   Dagmar Lenk            : GEPOL surface, SMD
   Dimitrios Liakos       : Extrapolation schemes; Compound Job, initial MDCI parallelization
   Dimitrios Manganas     : Further ROCIS development; embedding schemes
   Dimitrios Pantazis     : SARC Basis sets
   Taras Petrenko         : DFT Hessian,TD-DFT gradient, ASA, ECA, R-Raman, ABS, FL, XAS/XES, NRVS
   Peter Pinski           : DLPNO-MP2, DLPNO-MP2 Gradient
   Christoph Reimann      : Effective Core Potentials
   Marius Retegan         : Local ZFS, SOC
   Christoph Riplinger    : Optimizer, TS searches, QM/MM, DLPNO-CCSD(T), (RO)-DLPNO pert. Triples
   Tobias Risthaus        : Range-separated hybrids, TD-DFT gradient, RPA, STAB
   Michael Roemelt        : Original ROCIS implementation
   Masaaki Saitow         : Open-shell DLPNO-CCSD energy and density
   Barbara Sandhoefer     : DKH picture change effects
   Avijit Sen             : IP-ROCIS
   Kantharuban Sivalingam : CASSCF convergence, NEVPT2, FIC-MRCI
   Bernardo de Souza      : ESD, SOC TD-DFT
   Georgi Stoychev        : AutoAux, RI-MP2 NMR
   Willem Van den Heuvel  : Paramagnetic NMR
   Boris Wezisla          : Elementary symmetry handling
   Frank Wennmohs         : Technical directorship


 We gratefully acknowledge several colleagues who have allowed us to
 interface, adapt or use parts of their codes:
   Stefan Grimme, W. Hujo, H. Kruse,             : VdW corrections, initial TS optimization,
                  C. Bannwarth                     DFT functionals, gCP, sTDA/sTD-DF
   Ed Valeev, F. Pavosevic, A. Kumar             : LibInt (2-el integral package), F12 methods
   Garnet Chan, S. Sharma, J. Yang, R. Olivares  : DMRG
   Ulf Ekstrom                                   : XCFun DFT Library
   Mihaly Kallay                                 : mrcc  (arbitrary order and MRCC methods)
   Andreas Klamt, Michael Diedenhofen            : otool_cosmo (COSMO solvation model)
   Jiri Pittner, Ondrej Demel                    : Mk-CCSD
   Frank Weinhold                                : gennbo (NPA and NBO analysis)
   Christopher J. Cramer and Donald G. Truhlar   : smd solvation model
   Lars Goerigk                                  : TD-DFT with DH, B97 family of functionals
   V. Asgeirsson, H. Jonsson                     : NEB implementation
   FAccTs GmbH                                   : IRC, NEB, NEB-TS, Multilevel, MM, QM/MM, CI optimization
   S Lehtola, MJT Oliveira, MAL Marques          : LibXC Library


 Your calculation uses the libint2 library for the computation of 2-el integrals
 For citations please refer to: http://libint.valeyev.net

 Your ORCA version has been built with support for libXC version: 4.2.3
 For citations please refer to: https://tddft.org/programs/libxc/

 This ORCA versions uses:
   CBLAS   interface :  Fast vector & matrix operations
   LAPACKE interface :  Fast linear algebra routines
   SCALAPACK package :  Parallel linear algebra routines


Your calculation utilizes the atom-pairwise dispersion correction
with the Becke-Johnson damping scheme (D3BJ)
Cite in your paper:
S.Grimme, S.Ehrlich, L.Goerigk, J Comput Chem, (2011), 32, 1456–1465 
S.Grimme, J.Antony, S.Ehrlich and H.Krieg, J.Chem.Phys., 132, (2010), 154104 
   

----- Orbital basis set information -----
Your calculation utilizes the basis: def2-TZVPPD
   F. Weigend and R. Ahlrichs, Phys. Chem. Chem. Phys. 7, 3297 (2005).
   D. Rappoport and F. Furche, J. Chem. Phys. 133 134105 (2010).

----- AuxC basis set information -----
Your calculation utilizes the auxiliary basis: def2-TZVPPD/C
   A. Hellweg, C. Hattig, S. Hofener and W. Klopper, Theor. Chem. Acc. 117, 587 (2007).

----- AuxJK basis set information -----
Your calculation utilizes the auxiliary basis: def2/JK
   H-Ba, Hf-Rn: F. Weigend, J. Comput. Chem. 29, 167 (2008).

================================================================================
                                        WARNINGS
                       Please study these warnings very carefully!
================================================================================


WARNING: The frozen-core approximation for MP2-gradient calculations is turned on by default.

WARNING: Geometry Optimization
  ===> : Switching off AutoStart
         For restart on a previous wavefunction, please use MOREAD

WARNING: The frozen-core approximation is turned on by default for 
         the MP2 part of double-hybrid DFT.

INFO   : the flag for use of LIBINT has been found!

================================================================================
                                       INPUT FILE
================================================================================
NAME = Cu01N0_F.in
|  1> #
|  2> # Cu01N0_F ri-B2PLYP-D3BJ/Def2-TZVPPD
|  3> #
|  4> ! rijk ri-b2plyp d3bj def2-tzvppd def2/jk def2-tzvppd/c grid4 nofinalgrid opt xyzfile numfreq
|  5> 
|  6> *xyz 0 1
|  7> Cu       0.000000    0.000000    0.412716 
|  8> F        0.000000    0.000000   -1.329863 
|  9> *
| 10> 
| 11> %maxcore 5000
| 12> 
| 13> %pal
| 14> nprocs = 24
| 15> end
| 16> 
| 17> 
| 18>                          ****END OF INPUT****
================================================================================

                       *****************************
                       * Geometry Optimization Run *
                       *****************************

Geometry optimization settings:
Update method            Update   .... BFGS
Choice of coordinates    CoordSys .... Z-matrix Internals
Initial Hessian          InHess   .... Almoef's Model

Convergence Tolerances:
Energy Change            TolE     ....  5.0000e-06 Eh
Max. Gradient            TolMAXG  ....  3.0000e-04 Eh/bohr
RMS Gradient             TolRMSG  ....  1.0000e-04 Eh/bohr
Max. Displacement        TolMAXD  ....  4.0000e-03 bohr
RMS Displacement         TolRMSD  ....  2.0000e-03 bohr
Strict Convergence                ....  False
------------------------------------------------------------------------------
                        ORCA OPTIMIZATION COORDINATE SETUP
------------------------------------------------------------------------------

The optimization will be done in new redundant internal coordinates
Making redundant internal coordinates   ...  (new redundants) done
Evaluating the initial hessian          ...  (Almloef) done
Evaluating the coordinates              ...  done
Calculating the B-matrix                .... done
Calculating the G-matrix                .... done
Diagonalizing the G-matrix              .... done
The first mode is                       ....    0
The number of degrees of freedom        ....    1

    -----------------------------------------------------------------
                    Redundant Internal Coordinates


    -----------------------------------------------------------------
         Definition                    Initial Value    Approx d2E/dq
    -----------------------------------------------------------------
      1. B(F   1,Cu  0)                  1.7426         1.440702   
    -----------------------------------------------------------------

Number of atoms                         .... 2
Number of degrees of freedom            .... 1

         *************************************************************
         *                GEOMETRY OPTIMIZATION CYCLE   1            *
         *************************************************************
---------------------------------
CARTESIAN COORDINATES (ANGSTROEM)
---------------------------------
  Cu     0.000000    0.000000    0.412716
  F      0.000000    0.000000   -1.329863

----------------------------
CARTESIAN COORDINATES (A.U.)
----------------------------
  NO LB      ZA    FRAG     MASS         X           Y           Z
   0 Cu   29.0000    0    63.550    0.000000    0.000000    0.779920
   1 F     9.0000    0    18.998    0.000000    0.000000   -2.513077

--------------------------------
INTERNAL COORDINATES (ANGSTROEM)
--------------------------------
 Cu     0   0   0     0.000000000000     0.00000000     0.00000000
 F      1   0   0     1.742579000000     0.00000000     0.00000000

---------------------------
INTERNAL COORDINATES (A.U.)
---------------------------
 Cu     0   0   0     0.000000000000     0.00000000     0.00000000
 F      1   0   0     3.292997076722     0.00000000     0.00000000

---------------------
BASIS SET INFORMATION
---------------------
There are 2 groups of distinct atoms

 Group   1 Type Cu  : 17s13p7d2f1g contracted to 6s6p4d2f1g pattern {842111/631111/4111/11/1}
 Group   2 Type F   : 12s7p3d1f contracted to 6s4p3d1f pattern {621111/4111/111/1}

Atom   0Cu   basis set group =>   1
Atom   1F    basis set group =>   2
---------------------------------
AUXILIARY/C BASIS SET INFORMATION
---------------------------------
There are 2 groups of distinct atoms

 Group   1 Type Cu  : 10s10p9d7f5g3h1i contracted to 10s10p9d7f5g3h1i pattern {1111111111/1111111111/111111111/1111111/11111/111/1}
 Group   2 Type F   : 9s7p6d4f1g contracted to 9s7p5d4f1g pattern {111111111/1111111/21111/1111/1}

Atom   0Cu   basis set group =>   1
Atom   1F    basis set group =>   2
----------------------------------
AUXILIARY/JK BASIS SET INFORMATION
----------------------------------
There are 2 groups of distinct atoms

 Group   1 Type Cu  : 19s14p12d10f7g3h1i contracted to 16s13p11d9f5g3h1i pattern {4111111111111111/2111111111111/21111111111/211111111/31111/111/1}
 Group   2 Type F   : 14s10p6d2f1g contracted to 10s8p4d2f1g pattern {5111111111/31111111/3111/11/1}

Atom   0Cu   basis set group =>   1
Atom   1F    basis set group =>   2


           ************************************************************
           *        Program running with 24 parallel MPI-processes    *
           *              working on a common directory               *
           ************************************************************
------------------------------------------------------------------------------
                           ORCA GTO INTEGRAL CALCULATION
                           -- RI-GTO INTEGRALS CHOSEN --
------------------------------------------------------------------------------

                         BASIS SET STATISTICS AND STARTUP INFO

Gaussian basis set:
 # of primitive gaussian shells          ...   63
 # of primitive gaussian functions       ...  169
 # of contracted shells                  ...   33
 # of contracted basis functions         ...  107
 Highest angular momentum                ...    4
 Maximum contraction depth               ...    8
Auxiliary gaussian basis set:
 # of primitive gaussian shells          ...   99
 # of primitive gaussian functions       ...  397
 # of contracted shells                  ...   83
 # of contracted aux-basis functions     ...  341
 Highest angular momentum                ...    6
 Maximum contraction depth               ...    5
Ratio of auxiliary to basis functions    ...  3.19
Integral package used                  ... LIBINT
 One Electron integrals                  ... done
 Ordering auxiliary basis shells         ... done
 Integral threshhold             Thresh  ...  2.500e-11
 Primitive cut-off               TCut    ...  2.500e-12
 Pre-screening matrix                    ... done
 Shell pair data                         ... 
 Ordering of the shell pairs             ... done (   0.000 sec) 553 of 561 pairs
 Determination of significant pairs      ... done (   0.000 sec)
 Creation of shell pair data             ... done (   0.000 sec)
 Storage of shell pair data              ... done (   0.029 sec)
 Shell pair data done in (   0.029 sec)
 Computing two index integrals           ... done
 Cholesky decomposition of the V-matrix  ... done


Timings:
 Total evaluation time                   ...   0.279 sec (  0.005 min)
 One electron matrix time                ...   0.017 sec (  0.000 min) =  6.0%
 Schwartz matrix evaluation time         ...   0.111 sec (  0.002 min) = 39.6%
 Two index repulsion integral time       ...   0.016 sec (  0.000 min) =  5.8%
 Cholesky decomposition of V             ...   0.074 sec (  0.001 min) = 26.5%
 Three index repulsion integral time     ...   0.000 sec (  0.000 min) =  0.0%



           ************************************************************
           *        Program running with 24 parallel MPI-processes    *
           *              working on a common directory               *
           ************************************************************
-------------------------------------------------------------------------------
                                 ORCA SCF
-------------------------------------------------------------------------------

------------
SCF SETTINGS
------------
Hamiltonian:
 Density Functional     Method          .... DFT(GTOs)
 Exchange Functional    Exchange        .... B88
   X-Alpha parameter    XAlpha          ....  0.666667
   Becke's b parameter  XBeta           ....  0.004200
 Correlation Functional Correlation     .... LYP
 LDA part of GGA corr.  LDAOpt          .... VWN-3
 Gradients option       PostSCFGGA      .... off
 Hybrid DFT is turned on
   Fraction HF Exchange ScalHFX         ....  0.530000
   Scaling of DF-GGA-X  ScalDFX         ....  0.470000
   Scaling of DF-GGA-C  ScalDFC         ....  0.730000
   Scaling of DF-LDA-C  ScalLDAC        ....  0.730000
   Perturbative correction              ....  0.270000
   Density functional embedding theory  .... OFF
 RI-approximation to the Coulomb term is turned on
   Number of auxiliary basis functions  .... 341
   RI-JK (J+K treated both via RI)      .... on


General Settings:
 Integral files         IntName         .... Cu01N0_F
 Hartree-Fock type      HFTyp           .... RHF
 Total Charge           Charge          ....    0
 Multiplicity           Mult            ....    1
 Number of Electrons    NEL             ....   38
 Basis Dimension        Dim             ....  107
 Nuclear Repulsion      ENuc            ....     79.2591046755 Eh

Convergence Acceleration:
 DIIS                   CNVDIIS         .... on
   Start iteration      DIISMaxIt       ....    12
   Startup error        DIISStart       ....  0.200000
   # of expansion vecs  DIISMaxEq       ....     5
   Bias factor          DIISBfac        ....   1.050
   Max. coefficient     DIISMaxC        ....  10.000
 Newton-Raphson         CNVNR           .... off
 SOSCF                  CNVSOSCF        .... off
 Level Shifting         CNVShift        .... on
   Level shift para.    LevelShift      ....    0.2500
   Turn off err/grad.   ShiftErr        ....    0.0010
 Zerner damping         CNVZerner       .... off
 Static damping         CNVDamp         .... on
   Fraction old density DampFac         ....    0.7000
   Max. Damping (<1)    DampMax         ....    0.9800
   Min. Damping (>=0)   DampMin         ....    0.0000
   Turn off err/grad.   DampErr         ....    0.1000
 Fernandez-Rico         CNVRico         .... off

SCF Procedure:
 Maximum # iterations   MaxIter         ....   125
 SCF integral mode      SCFMode         .... Direct
   Integral package                     .... LIBINT
 Reset frequency        DirectResetFreq ....    20
 Integral Threshold     Thresh          ....  2.500e-11 Eh
 Primitive CutOff       TCut            ....  2.500e-12 Eh

Convergence Tolerance:
 Convergence Check Mode ConvCheckMode   .... Total+1el-Energy
 Convergence forced     ConvForced      .... 0
 Energy Change          TolE            ....  1.000e-08 Eh
 1-El. energy change                    ....  1.000e-05 Eh
 DIIS Error             TolErr          ....  5.000e-07


Diagonalization of the overlap matrix:
Smallest eigenvalue                        ... 2.204e-03
Time for diagonalization                   ...    0.019 sec
Threshold for overlap eigenvalues          ... 1.000e-08
Number of eigenvalues below threshold      ... 0
Time for construction of square roots      ...    0.002 sec
Total time needed                          ...    0.021 sec

-------------------
DFT GRID GENERATION
-------------------

General Integration Accuracy     IntAcc      ...  4.670
Radial Grid Type                 RadialGrid  ... Gauss-Chebyshev
Angular Grid (max. acc.)         AngularGrid ... Lebedev-302
Angular grid pruning method      GridPruning ... 3 (G Style)
Weight generation scheme         WeightScheme... Becke
Basis function cutoff            BFCut       ...    1.0000e-11
Integration weight cutoff        WCut        ...    1.0000e-14
Grids for H and He will be reduced by one unit

# of grid points (after initial pruning)     ...  15828 (   0.0 sec)
# of grid points (after weights+screening)   ...  15779 (   0.0 sec)
nearest neighbour list constructed           ...    0.0 sec
Grid point re-assignment to atoms done       ...    0.0 sec
Grid point division into batches done        ...    0.1 sec
Reduced shell lists constructed in    0.1 sec

Total number of grid points                  ...    15779
Total number of batches                      ...      247
Average number of points per batch           ...       63
Average number of grid points per atom       ...     7890
Average number of shells per batch           ...     7.17 (21.72%)
Average number of basis functions per batch  ...    18.33 (17.13%)
Average number of large shells per batch     ...     4.92 (68.60%)
Average number of large basis fcns per batch ...    14.42 (78.64%)
Average number of aux-shells per batch       ...     7.17 ( 8.63%)
Average number of aux functions per batch    ...    18.33 ( 5.38%)
Maximum spatial batch extension              ...  22.45, 22.17, 15.93 au
Average spatial batch extension              ...   0.81,  0.80,  0.61 au

Time for grid setup =    0.158 sec

------------------------------
INITIAL GUESS: MODEL POTENTIAL
------------------------------
Loading Hartree-Fock densities                     ... done
Calculating cut-offs                               ... done
Setting up the integral package                    ... done
Initializing the effective Hamiltonian             ... done
Starting the Coulomb interaction                   ... done (   0.0 sec)
Reading the grid                                   ... done
Mapping shells                                     ... done
Starting the XC term evaluation                    ... done (   0.0 sec)
  promolecular density results
     # of electrons  =     38.000016983
     EX              =    -75.795818182
     EC              =     -0.636574265
     EX+EC           =    -76.432392447
Transforming the Hamiltonian                       ... done (   0.0 sec)
Diagonalizing the Hamiltonian                      ... done (   0.0 sec)
Back transforming the eigenvectors                 ... done (   0.0 sec)
Now organizing SCF variables                       ... done
                      ------------------
                      INITIAL GUESS DONE (   0.2 sec)
                      ------------------
--------------
SCF ITERATIONS
--------------
ITER       Energy         Delta-E        Max-DP      RMS-DP      [F,P]     Damp
  0  -1739.7603285480   0.000000000000 0.04020854  0.00124439  0.2847956 0.7000
  1  -1739.5901109467   0.170217601333 0.03306221  0.00102382  0.1935638 0.7000
                               ***Turning on DIIS***
  2  -1739.6545034931  -0.064392546432 0.04443186  0.00138815  0.0513571 0.0000
  3  -1739.8107952190  -0.156291725919 0.00985826  0.00024389  0.1703728 0.7000
  4  -1739.8492978848  -0.038502665772 0.01132800  0.00025473  0.1512742 0.7000
  5  -1739.8542706966  -0.004972811812 0.01104528  0.00023327  0.1187021 0.7000
  6  -1739.8521866463   0.002084050294 0.03073312  0.00062357  0.0893684 0.0000
  7  -1739.8343129384   0.017873707877 0.00440228  0.00010424  0.0103947 0.0000
  8  -1739.8344443187  -0.000131380277 0.00301241  0.00005767  0.0042600 0.0000
  9  -1739.8344748167  -0.000030497946 0.00181348  0.00003451  0.0021785 0.0000
 10  -1739.8344867587  -0.000011942030 0.00167794  0.00003136  0.0010823 0.0000
 11  -1739.8344926701  -0.000005911421 0.00208627  0.00004513  0.0006572 0.0000
 12  -1739.8344977592  -0.000005089063 0.00139991  0.00002581  0.0002624 0.0000
 13  -1739.8344989138  -0.000001154603 0.00045385  0.00000759  0.0001062 0.0000
 14  -1739.8344990093  -0.000000095502 0.00017224  0.00000261  0.0000355 0.0000
 15  -1739.8344990193  -0.000000010030 0.00003089  0.00000046  0.0000060 0.0000
 16  -1739.8344990196  -0.000000000241 0.00000223  0.00000006  0.0000042 0.0000
 17  -1739.8344990196  -0.000000000020 0.00000208  0.00000004  0.0000018 0.0000
                            ***DIIS convergence achieved***

               *****************************************************
               *                     SUCCESS                       *
               *           SCF CONVERGED AFTER  18 CYCLES          *
               *****************************************************


----------------
TOTAL SCF ENERGY
----------------

Total Energy       :        -1739.83449902 Eh          -47343.30361 eV

Components:
Nuclear Repulsion  :           79.25910468 Eh            2156.74989 eV
Electronic Energy  :        -1819.09360370 Eh          -49500.05349 eV
One Electron Energy:        -2586.83750688 Eh          -70391.42719 eV
Two Electron Energy:          767.74390319 Eh           20891.37370 eV

Virial components:
Potential Energy   :        -3477.83634034 Eh          -94636.73806 eV
Kinetic Energy     :         1738.00184132 Eh           47293.43445 eV
Virial Ratio       :            2.00105446


DFT components:
N(Alpha)           :       18.999992237818 electrons
N(Beta)            :       18.999992237818 electrons
N(Total)           :       37.999984475635 electrons
E(X)               :      -35.791303592792 Eh       
E(C)               :       -1.260984851162 Eh       
E(XC)              :      -37.052288443954 Eh       
DFET-embed. en.    :        0.000000000000 Eh       

---------------
SCF CONVERGENCE
---------------

  Last Energy change         ...   -2.9559e-12  Tolerance :   1.0000e-08
  Last MAX-Density change    ...    1.9789e-07  Tolerance :   1.0000e-07
  Last RMS-Density change    ...    6.9741e-09  Tolerance :   5.0000e-09
  Last DIIS Error            ...    4.1049e-07  Tolerance :   5.0000e-07

             **** THE GBW FILE WAS UPDATED (Cu01N0_F.gbw) ****
             **** DENSITY FILE WAS UPDATED (Cu01N0_F.scfp) ****
             **** ENERGY FILE WAS UPDATED (Cu01N0_F.en.tmp) ****
             **** THE GBW FILE WAS UPDATED (Cu01N0_F.gbw) ****
             **** DENSITY FILE WAS UPDATED (Cu01N0_F.scfp) ****
----------------
ORBITAL ENERGIES
----------------

  NO   OCC          E(Eh)            E(eV) 
   0   2.0000    -325.455840     -8856.1037 
   1   2.0000     -39.665658     -1079.3574 
   2   2.0000     -34.702142      -944.2933 
   3   2.0000     -34.702142      -944.2933 
   4   2.0000     -34.699411      -944.2190 
   5   2.0000     -25.230971      -686.5696 
   6   2.0000      -4.619077      -125.6915 
   7   2.0000      -3.039271       -82.7028 
   8   2.0000      -3.036758       -82.6344 
   9   2.0000      -3.036758       -82.6344 
  10   2.0000      -1.199965       -32.6527 
  11   2.0000      -0.461839       -12.5673 
  12   2.0000      -0.436224       -11.8703 
  13   2.0000      -0.436224       -11.8703 
  14   2.0000      -0.394124       -10.7247 
  15   2.0000      -0.394124       -10.7246 
  16   2.0000      -0.356239        -9.6938 
  17   2.0000      -0.356239        -9.6938 
  18   2.0000      -0.334090        -9.0911 
  19   0.0000      -0.072373        -1.9694 
  20   0.0000       0.022713         0.6180 
  21   0.0000       0.022713         0.6180 
  22   0.0000       0.057677         1.5695 
  23   0.0000       0.100358         2.7309 
  24   0.0000       0.163899         4.4599 
  25   0.0000       0.163899         4.4599 
  26   0.0000       0.168416         4.5828 
  27   0.0000       0.184047         5.0082 
  28   0.0000       0.184047         5.0082 
  29   0.0000       0.208202         5.6655 
  30   0.0000       0.208202         5.6655 
  31   0.0000       0.235157         6.3989 
  32   0.0000       0.284640         7.7455 
  33   0.0000       0.284640         7.7455 
  34   0.0000       0.315589         8.5876 
  35   0.0000       0.424055        11.5391 
  36   0.0000       0.619865        16.8674 
  37   0.0000       0.619866        16.8674 
  38   0.0000       0.695095        18.9145 
  39   0.0000       0.695095        18.9145 
  40   0.0000       0.695465        18.9246 
  41   0.0000       0.781487        21.2653 
  42   0.0000       0.781487        21.2653 
  43   0.0000       0.783902        21.3311 
  44   0.0000       0.893107        24.3027 
  45   0.0000       0.893107        24.3027 
  46   0.0000       0.957514        26.0553 
  47   0.0000       0.957515        26.0553 
  48   0.0000       1.126128        30.6435 
  49   0.0000       1.126128        30.6435 
  50   0.0000       1.142982        31.1021 
  51   0.0000       1.193946        32.4889 
  52   0.0000       1.402881        38.1743 
  53   0.0000       2.437018        66.3146 
  54   0.0000       2.469592        67.2010 
  55   0.0000       2.469605        67.2014 
  56   0.0000       2.497353        67.9564 
  57   0.0000       2.497353        67.9564 
  58   0.0000       3.173735        86.3617 
  59   0.0000       3.173735        86.3617 
  60   0.0000       3.253720        88.5382 
  61   0.0000       3.379846        91.9703 
  62   0.0000       3.561557        96.9149 
  63   0.0000       3.561557        96.9149 
  64   0.0000       3.568091        97.0927 
  65   0.0000       3.568091        97.0927 
  66   0.0000       3.571008        97.1721 
  67   0.0000       3.571008        97.1721 
  68   0.0000       3.580198        97.4221 
  69   0.0000       3.693136       100.4953 
  70   0.0000       3.693136       100.4953 
  71   0.0000       3.861138       105.0669 
  72   0.0000       3.861140       105.0670 
  73   0.0000       3.941121       107.2434 
  74   0.0000       3.941121       107.2434 
  75   0.0000       4.041071       109.9631 
  76   0.0000       4.183820       113.8475 
  77   0.0000       4.570320       124.3647 
  78   0.0000       7.191729       195.6969 
  79   0.0000       7.191824       195.6995 
  80   0.0000       7.203359       196.0134 
  81   0.0000       7.203359       196.0134 
  82   0.0000       7.234861       196.8706 
  83   0.0000       7.234861       196.8706 
  84   0.0000       7.327513       199.3918 
  85   0.0000       8.808599       239.6942 
  86   0.0000       8.809071       239.7070 
  87   0.0000       8.862465       241.1599 
  88   0.0000       8.862465       241.1599 
  89   0.0000       9.090293       247.3594 
  90   0.0000      13.267967       361.0397 
  91   0.0000      13.267970       361.0398 
  92   0.0000      13.269504       361.0816 
  93   0.0000      13.269504       361.0816 
  94   0.0000      13.269961       361.0940 
  95   0.0000      13.269961       361.0940 
  96   0.0000      13.270597       361.1113 
  97   0.0000      13.270613       361.1117 
  98   0.0000      13.281131       361.3980 
  99   0.0000      13.474227       366.6524 
 100   0.0000      13.474227       366.6524 
 101   0.0000      13.479267       366.7895 
 102   0.0000      13.479276       366.7898 
 103   0.0000      13.518684       367.8621 
 104   0.0000      13.518684       367.8621 
 105   0.0000      13.704177       372.9096 
 106   0.0000      57.744479      1571.3072 

                    ********************************
                    * MULLIKEN POPULATION ANALYSIS *
                    ********************************

-----------------------
MULLIKEN ATOMIC CHARGES
-----------------------
   0 Cu:    0.751236
   1 F :   -0.751236
Sum of atomic charges:   -0.0000000

--------------------------------
MULLIKEN REDUCED ORBITAL CHARGES
--------------------------------
  0 Cus       :     6.249936  s :     6.249936
      pz      :     4.037049  p :    12.088869
      px      :     4.025910
      py      :     4.025910
      dz2     :     1.905828  d :     9.908032
      dxz     :     2.000543
      dyz     :     2.000543
      dx2y2   :     2.000559
      dxy     :     2.000559
      f0      :     0.000935  f :     0.001921
      f+1     :     0.000450
      f-1     :     0.000450
      f+2     :     0.000042
      f-2     :     0.000042
      f+3     :     0.000000
      f-3     :     0.000000
      g0      :     0.000003  g :     0.000006
      g+1     :     0.000001
      g-1     :     0.000001
      g+2     :     0.000000
      g-2     :     0.000000
      g+3     :     0.000000
      g-3     :     0.000000
      g+4     :     0.000000
      g-4     :     0.000000
  1 F s       :     3.988765  s :     3.988765
      pz      :     1.810140  p :     5.758491
      px      :     1.974175
      py      :     1.974175
      dz2     :     0.007227  d :     0.003748
      dxz     :    -0.001135
      dyz     :    -0.001135
      dx2y2   :    -0.000605
      dxy     :    -0.000605
      f0      :     0.000116  f :     0.000232
      f+1     :     0.000055
      f-1     :     0.000055
      f+2     :     0.000004
      f-2     :     0.000004
      f+3     :     0.000000
      f-3     :     0.000000


                     *******************************
                     * LOEWDIN POPULATION ANALYSIS *
                     *******************************

----------------------
LOEWDIN ATOMIC CHARGES
----------------------
   0 Cu:    0.577494
   1 F :   -0.577494

-------------------------------
LOEWDIN REDUCED ORBITAL CHARGES
-------------------------------
  0 Cus       :     6.158730  s :     6.158730
      pz      :     4.124628  p :    12.234328
      px      :     4.054850
      py      :     4.054850
      dz2     :     1.981657  d :    10.025460
      dxz     :     2.024547
      dyz     :     2.024547
      dx2y2   :     1.997354
      dxy     :     1.997354
      f0      :     0.002225  f :     0.003973
      f+1     :     0.000826
      f-1     :     0.000826
      f+2     :     0.000048
      f-2     :     0.000048
      f+3     :     0.000000
      f-3     :     0.000000
      g0      :     0.000009  g :     0.000014
      g+1     :     0.000003
      g-1     :     0.000003
      g+2     :     0.000000
      g-2     :     0.000000
      g+3     :     0.000000
      g-3     :     0.000000
      g+4     :     0.000000
      g-4     :     0.000000
  1 F s       :     3.825454  s :     3.825454
      pz      :     1.855712  p :     5.670949
      px      :     1.907618
      py      :     1.907618
      dz2     :     0.051337  d :     0.080533
      dxz     :     0.012013
      dyz     :     0.012013
      dx2y2   :     0.002585
      dxy     :     0.002585
      f0      :     0.000247  f :     0.000558
      f+1     :     0.000143
      f-1     :     0.000143
      f+2     :     0.000013
      f-2     :     0.000013
      f+3     :     0.000000
      f-3     :     0.000000


                      *****************************
                      * MAYER POPULATION ANALYSIS *
                      *****************************

  NA   - Mulliken gross atomic population
  ZA   - Total nuclear charge
  QA   - Mulliken gross atomic charge
  VA   - Mayer's total valence
  BVA  - Mayer's bonded valence
  FA   - Mayer's free valence

  ATOM       NA         ZA         QA         VA         BVA        FA
  0 Cu    28.2488    29.0000     0.7512     0.5391     0.5391    -0.0000
  1 F      9.7512     9.0000    -0.7512     0.5391     0.5391    -0.0000

  Mayer bond orders larger than 0.100000
B(  0-Cu,  1-F ) :   0.5391 

-------
TIMINGS
-------

Total SCF time: 0 days 0 hours 0 min 2 sec 

Total time                  ....       2.922 sec
Sum of individual times     ....       2.791 sec  ( 95.5%)

Fock matrix formation       ....       2.495 sec  ( 85.4%)
  XC integration            ....       0.382 sec  ( 15.3% of F)
    Basis function eval.    ....       0.027 sec  (  7.0% of XC)
    Density eval.           ....       0.014 sec  (  3.8% of XC)
    XC-Functional eval.     ....       0.010 sec  (  2.5% of XC)
    XC-Potential eval.      ....       0.026 sec  (  6.9% of XC)
Diagonalization             ....       0.029 sec  (  1.0%)
Density matrix formation    ....       0.005 sec  (  0.2%)
Population analysis         ....       0.002 sec  (  0.1%)
Initial guess               ....       0.083 sec  (  2.9%)
Orbital Transformation      ....       0.000 sec  (  0.0%)
Orbital Orthonormalization  ....       0.000 sec  (  0.0%)
DIIS solution               ....       0.017 sec  (  0.6%)
Grid generation             ....       0.158 sec  (  5.4%)


           ************************************************************
           *        Program running with 24 parallel MPI-processes    *
           *              working on a common directory               *
           ************************************************************

------------------------------------------------------------------------------
                                ORCA  MP2 
------------------------------------------------------------------------------

Freezing NCore=12 chemical core electrons

----------------------
RI-MP2 ENERGY+GRADIENT
----------------------
Dimension of the basis                    ...  107
Memory devoted to MP2                     ... 5000 MB   
Data format for buffers                   ... DOUBLE
Compression type for matrix containers    ... UNCOMPRESSED
Overall scaling of the MP2 energy         ...   2.700e-01
Calculating two index integrals           ... done (    0.005 sec)
Cholesky decomposition of the V-matrix    ... done
Cholesky decomposition of V**-1           ... done (    0.004 sec)

-----------------
RI-TRANSFORMATION (AUX index driven)
-----------------

Dimension of the orbital-basis         ... 107
Dimension of the aux-basis             ... 317
Transformation of internal MOs         ...    0-  18
Transformation of internal/external MOs...    0-  18 to   19- 106
Number Format for Storage              ... Double (8 Byte)
Integral mode                          ... Direct

First Phase: integral generation and transformation of MO indices
  Aux angular momentum 0               ... done (    0.000 sec)
  Aux angular momentum 1               ... done (    0.001 sec)
  Aux angular momentum 2               ... done (    0.001 sec)
  Aux angular momentum 3               ... done (    0.002 sec)
  Aux angular momentum 4               ... done (    0.002 sec)
  Aux angular momentum 5               ... done (    0.003 sec)
  Aux angular momentum 6               ... done (    0.005 sec)
Closing buffer VIJ ( 0.00 GB; CompressionRatio= 0.99)
Closing buffer VIA ( 0.00 GB; CompressionRatio= 1.00)
  Phase 1 completed in     0.087 sec
Second Phase: sorting and transformation of aux index

IJ-Transformation
Memory available                       ... 4996 MB 
Max. # MO pairs treated in a batch     ... 1    
# of internal orbitals                 ... 19
# batches for internal orbitals        ... 1
Closing buffer IJV ( 0.00 GB; CompressionRatio= 1.00)
(ij|v) transformation done in     0.016 sec

IA-Transformation
Memory available                       ... 4996 MB 
Max. # MO pairs treated in a batch     ... 1    
# of internal orbitals                 ... 19
# batches for internal orbitals        ... 1
Closing buffer IAV ( 0.00 GB; CompressionRatio= 1.00)
(ia|v) transformation done in     0.004 sec

  Phase 2 completed in     0.031 sec
RI-Integral transformation completed in     0.119 sec
Opening buffers                              ... done
Frozen core precalculation                   ... done

Starting loop over batches of integrals:

Operator 0  - window                       ... (  6- 18)x( 19-106)
Operator 0  - Memory available             ...  5000 MB
Operator 0  - Memory needed per MO         ...   0.4 MB
Operator 0  - Number of orbitals per batch ... 1
Operator 0  - Number of batches            ... 1

OPERATOR  0   PASS   0:  MOs     6 ...    6 +    7 ...    7 +    8 ...    8 +    9 ...    9
                            +   10 ...   10 +   11 ...   11 +   12 ...   12 +   13 ...   13
                            +   14 ...   14 +   15 ...   15 +   16 ...   16 +   17 ...   17
                            +   18 ...   18
  Reading integrals       ... ok
Closing buffer GIPV ( 0.00 GB; CompressionRatio= 1.00)
Time spent in pair loops =     0.104 sec
Deleting buffer (Ka|jb)[aa] ...done

-----------------------------------------------
 RI-MP2 CORRELATION ENERGY:     -0.355089169 Eh
-----------------------------------------------


---------------------
MP2 DENSITY FORMATION
---------------------

Completing the external part of the density      ... done
Storing the unrelaxed density                    ... done

Calculating the xc-kernel                        ... done
Calculating G(D)                                 ... done
Completing the Lagrangian                        ... done
Solving the Z-vector equations                   ... 

------------------------------------------------------------------------------
                           ORCA CP-SCF CALCULATION
------------------------------------------------------------------------------

Input orbitals are from        ... Cu01N0_F.gbw
Input Perturbation             ... Cu01N0_F.pin.tmp
Wavefunction output            ... Cu01N0_F.pout.tmp
Perturbation mode              ... Real perturbation (singlet)
Solver                         ... POPLE
Max. number of iterations      ... 128
Convergence tolerance          ... 1.000e-08
Integral handling              ... Direct
Number of perturbations        ... 1
Number of operators            ... 1
Orbital ranges used for CP-SCF:
 Operator 0:  Orbitals   0... 18  to  19...106
DFT calculation                         ... on
Exchange functional (SCF)               ... B88
Exchange functional (CP-SCF)            ... B88
   X-Alpha parameter    XAlpha (SCF)    ...  0.666667
   X-Alpha parameter    XAlpha (CP-SCF) ...  0.666667
   Becke's b parameter  XBeta (SCF)     ...  0.004200
   Becke's b parameter  XBeta (CP-SCF)  ...  0.004200
Correlation functional (SCF)            ... LYP
Correlation functional (CP-SCF)         ... LYP
 LDA part of GGA corr.  LDAOpt (SCF)    ... VWN-3
 LDA part of GGA corr.  LDAOpt (CP-SCF) ... VWN-3
Hybrid DFT                              ... on
   Exchange mixing (SCF)                ...  0.530
   Exchange mixing (CP-SCF)             ...  0.530
   GGA exch. scaling(SCF)               ...  0.470
   GGA exch. scaling (CP-SCF)           ...  0.470
   GGA corr. scaling (SCF)              ...  0.730
   GGA corr. scaling (CP-SCF)           ...  0.730
Variables per vector in CP-SCF ... 1672
Number of vectors sought       ... 1
Recalculating density on grid  ... done
Calculating the xc-kernel      ... done
     CP-SCF ITERATION   0: 
     CP-SCF ITERATION   1:      0.005573342959
     CP-SCF ITERATION   2:      0.002886255840
     CP-SCF ITERATION   3:      0.000161703863
     CP-SCF ITERATION   4:      0.000007044197
     CP-SCF ITERATION   5:      0.000000388918
     CP-SCF ITERATION   6:      0.000000014196
     CP-SCF ITERATION   7:      0.000000000416
done
Finalizing the relaxed density                   ... done
Transforming P to the AO basis                   ... done
Storing the relaxed density                      ... done

------------------------------------
ENERGY WEIGHTED DENSITY FINALIZATION
------------------------------------

Gathering the parts of the W-matrix              ... done
Forming the Z-density                            ... done
Transforming Z to the AO basis                   ... done
Calculating G(Z)                                 ... done
Finalizing the W-matrix                          ... done
Transforming W to the AO basis and storing       ... done
Entering the RIJONX and RIJCOSX sections
Starting the three-index derivative integrals:
Operator 0  - Memory available             ...  5000 MB
Operator 0  - Memory needed per MO         ...   0.5 MB
Operator 0  - Number of orbitals per batch ... 1
Operator 0  - Number of batches            ... 1

OPERATOR  0   PASS   0:  MOs     6 ...    6 +    7 ...    7 +    8 ...    8 +    9 ...    9
                            +   10 ...   10 +   11 ...   11 +   12 ...   12 +   13 ...   13
                            +   14 ...   14 +   15 ...   15 +   16 ...   16 +   17 ...   17
                            +   18 ...   18

----------------------------------
MP2 DERIVATIVE INTEGRAL GENERATION
----------------------------------


Input Correlated Electron Density   ... Cu01N0_F.pmp2re
Input Energy Weighted Density       ... Cu01N0_F.wmp2.tmp
Input SCF Electron Density          ... Cu01N0_F.scfp

One-Electron Terms    ...
                        ... One-Electron Terms done
Prescreening matrices              ... done
Exchange-correlation gradient    ... done
Dispersion correction            ... done

                *********************************************
                * UNRELAXED MP2 DENSITY POPULATION ANALYSIS *
                *********************************************

------------------------------------------------------------------------------
                           ORCA POPULATION ANALYSIS
------------------------------------------------------------------------------
Input electron density              ... Cu01N0_F.pmp2ur
BaseName (.gbw .S,...)              ... Cu01N0_F

                    ********************************
                    * MULLIKEN POPULATION ANALYSIS *
                    ********************************

-----------------------
MULLIKEN ATOMIC CHARGES
-----------------------
   0 Cu:    0.745062
   1 F :   -0.745062
Sum of atomic charges:   -0.0000000

--------------------------------
MULLIKEN REDUCED ORBITAL CHARGES
--------------------------------
  0 Cus       :     6.257996  s :     6.257996
      pz      :     4.037306  p :    12.094127
      px      :     4.028411
      py      :     4.028411
      dz2     :     1.898772  d :     9.889778
      dxz     :     1.997699
      dyz     :     1.997699
      dx2y2   :     1.997804
      dxy     :     1.997804
      f0      :     0.002372  f :     0.012188
      f+1     :     0.001911
      f-1     :     0.001911
      f+2     :     0.001518
      f-2     :     0.001518
      f+3     :     0.001478
      f-3     :     0.001478
      g0      :     0.000097  g :     0.000849
      g+1     :     0.000095
      g-1     :     0.000095
      g+2     :     0.000094
      g-2     :     0.000094
      g+3     :     0.000094
      g-3     :     0.000094
      g+4     :     0.000093
      g-4     :     0.000093
  1 F s       :     3.988157  s :     3.988157
      pz      :     1.802937  p :     5.742429
      px      :     1.969746
      py      :     1.969746
      dz2     :     0.009303  d :     0.013608
      dxz     :     0.000867
      dyz     :     0.000867
      dx2y2   :     0.001286
      dxy     :     0.001286
      f0      :     0.000211  f :     0.000868
      f+1     :     0.000147
      f-1     :     0.000147
      f+2     :     0.000093
      f-2     :     0.000093
      f+3     :     0.000088
      f-3     :     0.000088


                     *******************************
                     * LOEWDIN POPULATION ANALYSIS *
                     *******************************

----------------------
LOEWDIN ATOMIC CHARGES
----------------------
   0 Cu:    0.573028
   1 F :   -0.573028

-------------------------------
LOEWDIN REDUCED ORBITAL CHARGES
-------------------------------
  0 Cus       :     6.164982  s :     6.164982
      pz      :     4.124996  p :    12.241094
      px      :     4.058049
      py      :     4.058049
      dz2     :     1.974179  d :    10.005748
      dxz     :     2.021299
      dyz     :     2.021299
      dx2y2   :     1.994485
      dxy     :     1.994485
      f0      :     0.003689  f :     0.014291
      f+1     :     0.002299
      f-1     :     0.002299
      f+2     :     0.001524
      f-2     :     0.001524
      f+3     :     0.001478
      f-3     :     0.001478
      g0      :     0.000103  g :     0.000857
      g+1     :     0.000097
      g-1     :     0.000097
      g+2     :     0.000094
      g-2     :     0.000094
      g+3     :     0.000094
      g-3     :     0.000094
      g+4     :     0.000093
      g-4     :     0.000093
  1 F s       :     3.824971  s :     3.824971
      pz      :     1.850182  p :     5.655405
      px      :     1.902612
      py      :     1.902612
      dz2     :     0.053701  d :     0.091445
      dxz     :     0.014283
      dyz     :     0.014283
      dx2y2   :     0.004589
      dxy     :     0.004589
      f0      :     0.000347  f :     0.001206
      f+1     :     0.000239
      f-1     :     0.000239
      f+2     :     0.000103
      f-2     :     0.000103
      f+3     :     0.000088
      f-3     :     0.000088


                      *****************************
                      * MAYER POPULATION ANALYSIS *
                      *****************************

  NA   - Mulliken gross atomic population
  ZA   - Total nuclear charge
  QA   - Mulliken gross atomic charge
  VA   - Mayer's total valence
  BVA  - Mayer's bonded valence
  FA   - Mayer's free valence

  ATOM       NA         ZA         QA         VA         BVA        FA
  0 Cu    28.2549    29.0000     0.7451     0.9399     0.5251     0.4148
  1 F      9.7451     9.0000    -0.7451     0.7251     0.5251     0.2000

  Mayer bond orders larger than 0.100000
B(  0-Cu,  1-F ) :   0.5251 


                *******************************************
                * RELAXED MP2 DENSITY POPULATION ANALYSIS *
                *******************************************

------------------------------------------------------------------------------
                           ORCA POPULATION ANALYSIS
------------------------------------------------------------------------------
Input electron density              ... Cu01N0_F.pmp2re
BaseName (.gbw .S,...)              ... Cu01N0_F

                    ********************************
                    * MULLIKEN POPULATION ANALYSIS *
                    ********************************

-----------------------
MULLIKEN ATOMIC CHARGES
-----------------------
   0 Cu:    0.689060
   1 F :   -0.689060
Sum of atomic charges:   -0.0000000

--------------------------------
MULLIKEN REDUCED ORBITAL CHARGES
--------------------------------
  0 Cus       :     6.349810  s :     6.349810
      pz      :     4.034327  p :    12.107697
      px      :     4.036685
      py      :     4.036685
      dz2     :     1.853141  d :     9.840450
      dxz     :     1.995864
      dyz     :     1.995864
      dx2y2   :     1.997791
      dxy     :     1.997791
      f0      :     0.002334  f :     0.012133
      f+1     :     0.001908
      f-1     :     0.001908
      f+2     :     0.001514
      f-2     :     0.001514
      f+3     :     0.001478
      f-3     :     0.001478
      g0      :     0.000097  g :     0.000849
      g+1     :     0.000095
      g-1     :     0.000095
      g+2     :     0.000094
      g-2     :     0.000094
      g+3     :     0.000094
      g-3     :     0.000094
      g+4     :     0.000093
      g-4     :     0.000093
  1 F s       :     3.987982  s :     3.987982
      pz      :     1.758879  p :     5.684256
      px      :     1.962688
      py      :     1.962688
      dz2     :     0.010359  d :     0.015937
      dxz     :     0.001485
      dyz     :     0.001485
      dx2y2   :     0.001304
      dxy     :     0.001304
      f0      :     0.000219  f :     0.000885
      f+1     :     0.000151
      f-1     :     0.000151
      f+2     :     0.000094
      f-2     :     0.000094
      f+3     :     0.000088
      f-3     :     0.000088


                     *******************************
                     * LOEWDIN POPULATION ANALYSIS *
                     *******************************

----------------------
LOEWDIN ATOMIC CHARGES
----------------------
   0 Cu:    0.554170
   1 F :   -0.554170

-------------------------------
LOEWDIN REDUCED ORBITAL CHARGES
-------------------------------
  0 Cus       :     6.228895  s :     6.228895
      pz      :     4.114175  p :    12.248112
      px      :     4.066968
      py      :     4.066968
      dz2     :     1.929753  d :     9.953871
      dxz     :     2.017895
      dyz     :     2.017895
      dx2y2   :     1.994164
      dxy     :     1.994164
      f0      :     0.003548  f :     0.014096
      f+1     :     0.002276
      f-1     :     0.002276
      f+2     :     0.001520
      f-2     :     0.001520
      f+3     :     0.001478
      f-3     :     0.001478
      g0      :     0.000103  g :     0.000856
      g+1     :     0.000096
      g-1     :     0.000096
      g+2     :     0.000094
      g-2     :     0.000094
      g+3     :     0.000094
      g-3     :     0.000094
      g+4     :     0.000093
      g-4     :     0.000093
  1 F s       :     3.831247  s :     3.831247
      pz      :     1.834255  p :     5.627980
      px      :     1.896863
      py      :     1.896863
      dz2     :     0.054833  d :     0.093737
      dxz     :     0.014537
      dyz     :     0.014537
      dx2y2   :     0.004915
      dxy     :     0.004915
      f0      :     0.000342  f :     0.001206
      f+1     :     0.000240
      f-1     :     0.000240
      f+2     :     0.000104
      f-2     :     0.000104
      f+3     :     0.000088
      f-3     :     0.000088


                      *****************************
                      * MAYER POPULATION ANALYSIS *
                      *****************************

  NA   - Mulliken gross atomic population
  ZA   - Total nuclear charge
  QA   - Mulliken gross atomic charge
  VA   - Mayer's total valence
  BVA  - Mayer's bonded valence
  FA   - Mayer's free valence

  ATOM       NA         ZA         QA         VA         BVA        FA
  0 Cu    28.3109    29.0000     0.6891     1.0292     0.6545     0.3747
  1 F      9.6891     9.0000    -0.6891     0.8460     0.6545     0.1915

  Mayer bond orders larger than 0.100000
B(  0-Cu,  1-F ) :   0.6545 


-------
TIMINGS
-------

Total time                :    5.896 sec
Integral trafo            :    0.131 sec (  2.2%)
FC preparation            :    0.004 sec (  0.1%)
I/O of integrals          :    0.000 sec (  0.0%)
K(i,j) Operators          :    0.001 sec (  0.0%)
T(i,j) pair energies      :    0.001 sec (  0.0%)
V-calculation             :    0.005 sec (  0.1%)
V**(-1/2)                 :    0.004 sec (  0.1%)
Gamma(ia|P)               :    0.001 sec (  0.0%)
Gamma-Trafo               :    0.002 sec (  0.0%)
D(virtual)                :    0.000 sec (  0.0%)
D(internal)               :    0.002 sec (  0.0%)
W(virtual)                :    0.000 sec (  0.0%)
W(internal)               :    0.002 sec (  0.0%)
L(virtual)                :    0.084 sec (  1.4%)
L(internal)               :    0.000 sec (  0.0%)
G(D)                      :    0.377 sec (  6.4%)
G(Z)                      :    0.371 sec (  6.3%)
Z-Vector Solution         :    3.254 sec ( 55.2%)
Z-Vector Solution         :    3.254 sec ( 55.2%)
3-Index Derivative 
+ Separable RIJ part      :    0.215 sec (  3.6%)
2-Index Derivative 
+ Separable RIJ part      :    0.002 sec (  0.0%)
Separable Gradient (X)    :    1.143 sec ( 19.4%)


---------------------------------------
MP2 TOTAL ENERGY:    -1740.189588188 Eh
---------------------------------------

-----------------------------------
NORM OF THE MP2 GRADIENT:  0.016787
-----------------------------------


-------------------------------------------------------------------------------
                          DFT DISPERSION CORRECTION                            
                                                                               
                              DFTD3 V3.1  Rev 1                                
                          USING Becke-Johnson damping                          
-------------------------------------------------------------------------------
The B2PLYP functional is recognized
Active option DFTDOPT                   ...         4   

molecular C6(AA) [au] = 243.849286 


            DFT-D V3
 parameters
 s6 scaling factor         :     0.6400 
 a1 scaling factor         :     0.3065 
 s8 scaling factor         :     0.9147 
 a2 scaling factor         :     5.0570 
 ad hoc parameters k1-k3   :    16.0000     1.3333    -4.0000 

 Edisp/kcal,au: -0.224442800087  -0.000357672331 
 E6   /kcal   :  -0.105701285 
 E8   /kcal   :  -0.118741515 
 % E8         :  52.905022944 

-------------------------   ----------------
Dispersion correction           -0.000357672
-------------------------   ----------------


-------------------------   --------------------
FINAL SINGLE POINT ENERGY     -1740.189945860758
-------------------------   --------------------

------------------------------------------------------------------------------
                         ORCA GEOMETRY RELAXATION STEP
------------------------------------------------------------------------------

Reading the OPT-File                    .... done
Getting information on internals        .... done
Copying old internal coords+grads       .... done
Making the new internal coordinates     .... (new redundants).... done
Validating the new internal coordinates .... (new redundants).... done
Calculating the B-matrix                .... done
Calculating the G,G- and P matrices     .... done
Transforming gradient to internals      .... done
Projecting the internal gradient        .... done
Number of atoms                         ....   2
Number of internal coordinates          ....   1
Current Energy                          .... -1740.189945861 Eh
Current gradient norm                   ....     0.016786564 Eh/bohr
Maximum allowed component of the step   ....  0.300
Current trust radius                    ....  0.300
Evaluating the initial hessian          ....  (Almloef) done
Projecting the Hessian                  .... done
Forming the augmented Hessian           .... done
Diagonalizing the augmented Hessian     .... done
Last element of RFO vector              ....  0.999966067
Lowest eigenvalues of augmented Hessian:
 -0.000097786
Length of the computed step             ....  0.008238296
The final length of the internal step   ....  0.008238296
Converting the step to cartesian space:
 Initial RMS(Int)=    0.0082382960
Transforming coordinates:
 Iter   0:  RMS(Cart)=    0.0023781912 RMS(Int)=    0.0082382960
 Iter   1:  RMS(Cart)=    0.0000000000 RMS(Int)=    0.0000000000
done
Storing new coordinates                 .... done

                                .--------------------.
          ----------------------|Geometry convergence|-------------------------
          Item                value                   Tolerance       Converged
          ---------------------------------------------------------------------
          RMS gradient        0.0118697375            0.0001000000      NO
          MAX gradient        0.0118697375            0.0003000000      NO
          RMS step            0.0082382960            0.0020000000      NO
          MAX step            0.0082382960            0.0040000000      NO
          ........................................................
          Max(Bonds)      0.0044      Max(Angles)    0.00
          Max(Dihed)        0.00      Max(Improp)    0.00
          ---------------------------------------------------------------------

The optimization has not yet converged - more geometry cycles are needed


    ---------------------------------------------------------------------------
                         Redundant Internal Coordinates
                            (Angstroem and degrees)

        Definition                    Value    dE/dq     Step     New-Value
    ----------------------------------------------------------------------------
     1. B(F   1,Cu  0)                1.7426 -0.011870  0.0044    1.7469   
    ----------------------------------------------------------------------------

         *************************************************************
         *                GEOMETRY OPTIMIZATION CYCLE   2            *
         *************************************************************
---------------------------------
CARTESIAN COORDINATES (ANGSTROEM)
---------------------------------
  Cu     0.000000    0.000000    0.414896
  F      0.000000    0.000000   -1.332043

----------------------------
CARTESIAN COORDINATES (A.U.)
----------------------------
  NO LB      ZA    FRAG     MASS         X           Y           Z
   0 Cu   29.0000    0    63.550    0.000000    0.000000    0.784039
   1 F     9.0000    0    18.998    0.000000    0.000000   -2.517196

--------------------------------
INTERNAL COORDINATES (ANGSTROEM)
--------------------------------
 Cu     0   0   0     0.000000000000     0.00000000     0.00000000
 F      1   0   0     1.746938518471     0.00000000     0.00000000

---------------------------
INTERNAL COORDINATES (A.U.)
---------------------------
 Cu     0   0   0     0.000000000000     0.00000000     0.00000000
 F      1   0   0     3.301235372707     0.00000000     0.00000000



           ************************************************************
           *        Program running with 24 parallel MPI-processes    *
           *              working on a common directory               *
           ************************************************************
 One Electron integrals                  ... done
 Pre-screening matrix                    ... done


           ************************************************************
           *        Program running with 24 parallel MPI-processes    *
           *              working on a common directory               *
           ************************************************************

Diagonalization of the overlap matrix:
Smallest eigenvalue                        ... 2.231e-03
Time for diagonalization                   ...    0.004 sec
Threshold for overlap eigenvalues          ... 1.000e-08
Number of eigenvalues below threshold      ... 0
Time for construction of square roots      ...    0.002 sec
Total time needed                          ...    0.006 sec

-------------------
DFT GRID GENERATION
-------------------

General Integration Accuracy     IntAcc      ...  4.670
Radial Grid Type                 RadialGrid  ... Gauss-Chebyshev
Angular Grid (max. acc.)         AngularGrid ... Lebedev-302
Angular grid pruning method      GridPruning ... 3 (G Style)
Weight generation scheme         WeightScheme... Becke
Basis function cutoff            BFCut       ...    1.0000e-11
Integration weight cutoff        WCut        ...    1.0000e-14
Grids for H and He will be reduced by one unit

# of grid points (after initial pruning)     ...  15828 (   0.0 sec)
# of grid points (after weights+screening)   ...  15780 (   0.0 sec)
nearest neighbour list constructed           ...    0.0 sec
Grid point re-assignment to atoms done       ...    0.0 sec
Grid point division into batches done        ...    0.1 sec
Reduced shell lists constructed in    0.1 sec

Total number of grid points                  ...    15780
Total number of batches                      ...      248
Average number of points per batch           ...       63
Average number of grid points per atom       ...     7890
Average number of shells per batch           ...     7.17 (21.72%)
Average number of basis functions per batch  ...    18.33 (17.13%)
Average number of large shells per batch     ...     4.92 (68.60%)
Average number of large basis fcns per batch ...    14.42 (78.64%)
Average number of aux-shells per batch       ...     7.17 ( 8.63%)
Average number of aux functions per batch    ...    18.33 ( 5.38%)
Maximum spatial batch extension              ...  22.45, 25.48, 15.93 au
Average spatial batch extension              ...   0.80,  0.81,  0.61 au

Time for grid setup =    0.148 sec

--------------
SCF ITERATIONS
--------------
ITER       Energy         Delta-E        Max-DP      RMS-DP      [F,P]     Damp
  0  -1739.8346398823   0.000000000000 0.00030822  0.00000871  0.0006504 0.7000
  1  -1739.8348356728  -0.000195790496 0.00024239  0.00000759  0.0005224 0.7000
                               ***Turning on DIIS***
  2  -1739.8347749064   0.000060766373 0.00052184  0.00001824  0.0004448 0.0000
  3  -1739.8346425006   0.000132405870 0.00017692  0.00000449  0.0001897 0.0000
  4  -1739.8346425135  -0.000000012892 0.00010995  0.00000270  0.0002684 0.0000
  5  -1739.8346425909  -0.000000077392 0.00008611  0.00000163  0.0001004 0.0000
  6  -1739.8346426075  -0.000000016656 0.00006640  0.00000124  0.0000390 0.0000
  7  -1739.8346426137  -0.000000006208 0.00008487  0.00000141  0.0000200 0.0000
  8  -1739.8346426179  -0.000000004162 0.00004331  0.00000072  0.0000062 0.0000
                            ***DIIS convergence achieved***

               *****************************************************
               *                     SUCCESS                       *
               *           SCF CONVERGED AFTER   9 CYCLES          *
               *****************************************************

Total Energy       :        -1739.83464262 Eh          -47343.30751 eV
  Last Energy change         ...   -5.3728e-10  Tolerance :   1.0000e-08
  Last MAX-Density change    ...    2.5896e-06  Tolerance :   1.0000e-07
             **** THE GBW FILE WAS UPDATED (Cu01N0_F.gbw) ****
             **** DENSITY FILE WAS UPDATED (Cu01N0_F.scfp) ****
             **** ENERGY FILE WAS UPDATED (Cu01N0_F.en.tmp) ****
             **** THE GBW FILE WAS UPDATED (Cu01N0_F.gbw) ****
             **** DENSITY FILE WAS UPDATED (Cu01N0_F.scfp) ****
Total SCF time: 0 days 0 hours 0 min 1 sec 


           ************************************************************
           *        Program running with 24 parallel MPI-processes    *
           *              working on a common directory               *
           ************************************************************

------------------------------------------------------------------------------
                                ORCA  MP2 
------------------------------------------------------------------------------

Freezing NCore=12 chemical core electrons

----------------------
RI-MP2 ENERGY+GRADIENT
----------------------
Dimension of the basis                    ...  107
Memory devoted to MP2                     ... 5000 MB   
Data format for buffers                   ... DOUBLE
Compression type for matrix containers    ... UNCOMPRESSED
Overall scaling of the MP2 energy         ...   2.700e-01
Calculating two index integrals           ... done (    0.004 sec)
Cholesky decomposition of the V-matrix    ... done
Cholesky decomposition of V**-1           ... done (    0.003 sec)

-----------------
RI-TRANSFORMATION (AUX index driven)
-----------------

Dimension of the orbital-basis         ... 107
Dimension of the aux-basis             ... 317
Transformation of internal MOs         ...    0-  18
Transformation of internal/external MOs...    0-  18 to   19- 106
Number Format for Storage              ... Double (8 Byte)
Integral mode                          ... Direct

First Phase: integral generation and transformation of MO indices
  Aux angular momentum 0               ... done (    0.000 sec)
  Aux angular momentum 1               ... done (    0.001 sec)
  Aux angular momentum 2               ... done (    0.001 sec)
  Aux angular momentum 3               ... done (    0.001 sec)
  Aux angular momentum 4               ... done (    0.002 sec)
  Aux angular momentum 5               ... done (    0.003 sec)
  Aux angular momentum 6               ... done (    0.005 sec)
Closing buffer VIJ ( 0.00 GB; CompressionRatio= 0.99)
Closing buffer VIA ( 0.00 GB; CompressionRatio= 1.00)
  Phase 1 completed in     0.084 sec
Second Phase: sorting and transformation of aux index

IJ-Transformation
Memory available                       ... 4996 MB 
Max. # MO pairs treated in a batch     ... 1    
# of internal orbitals                 ... 19
# batches for internal orbitals        ... 1
Closing buffer IJV ( 0.00 GB; CompressionRatio= 1.00)
(ij|v) transformation done in     0.001 sec

IA-Transformation
Memory available                       ... 4996 MB 
Max. # MO pairs treated in a batch     ... 1    
# of internal orbitals                 ... 19
# batches for internal orbitals        ... 1
Closing buffer IAV ( 0.00 GB; CompressionRatio= 1.00)
(ia|v) transformation done in     0.003 sec

  Phase 2 completed in     0.013 sec
RI-Integral transformation completed in     0.099 sec
Opening buffers                              ... done
Frozen core precalculation                   ... done

Starting loop over batches of integrals:

Operator 0  - window                       ... (  6- 18)x( 19-106)
Operator 0  - Memory available             ...  5000 MB
Operator 0  - Memory needed per MO         ...   0.4 MB
Operator 0  - Number of orbitals per batch ... 1
Operator 0  - Number of batches            ... 1

OPERATOR  0   PASS   0:  MOs     6 ...    6 +    7 ...    7 +    8 ...    8 +    9 ...    9
                            +   10 ...   10 +   11 ...   11 +   12 ...   12 +   13 ...   13
                            +   14 ...   14 +   15 ...   15 +   16 ...   16 +   17 ...   17
                            +   18 ...   18
  Reading integrals       ... ok
Closing buffer GIPV ( 0.00 GB; CompressionRatio= 1.00)
Time spent in pair loops =     0.076 sec
Deleting buffer (Ka|jb)[aa] ...done

-----------------------------------------------
 RI-MP2 CORRELATION ENERGY:     -0.354999089 Eh
-----------------------------------------------


---------------------
MP2 DENSITY FORMATION
---------------------

Completing the external part of the density      ... done
Storing the unrelaxed density                    ... done

Calculating the xc-kernel                        ... done
Calculating G(D)                                 ... done
Completing the Lagrangian                        ... done
Solving the Z-vector equations                   ... 

------------------------------------------------------------------------------
                           ORCA CP-SCF CALCULATION
------------------------------------------------------------------------------

Input orbitals are from        ... Cu01N0_F.gbw
Input Perturbation             ... Cu01N0_F.pin.tmp
Wavefunction output            ... Cu01N0_F.pout.tmp
Perturbation mode              ... Real perturbation (singlet)
Solver                         ... POPLE
Max. number of iterations      ... 128
Convergence tolerance          ... 1.000e-08
Integral handling              ... Direct
Number of perturbations        ... 1
Number of operators            ... 1
Orbital ranges used for CP-SCF:
 Operator 0:  Orbitals   0... 18  to  19...106
DFT calculation                         ... on
Exchange functional (SCF)               ... B88
Exchange functional (CP-SCF)            ... B88
   X-Alpha parameter    XAlpha (SCF)    ...  0.666667
   X-Alpha parameter    XAlpha (CP-SCF) ...  0.666667
   Becke's b parameter  XBeta (SCF)     ...  0.004200
   Becke's b parameter  XBeta (CP-SCF)  ...  0.004200
Correlation functional (SCF)            ... LYP
Correlation functional (CP-SCF)         ... LYP
 LDA part of GGA corr.  LDAOpt (SCF)    ... VWN-3
 LDA part of GGA corr.  LDAOpt (CP-SCF) ... VWN-3
Hybrid DFT                              ... on
   Exchange mixing (SCF)                ...  0.530
   Exchange mixing (CP-SCF)             ...  0.530
   GGA exch. scaling(SCF)               ...  0.470
   GGA exch. scaling (CP-SCF)           ...  0.470
   GGA corr. scaling (SCF)              ...  0.730
   GGA corr. scaling (CP-SCF)           ...  0.730
Variables per vector in CP-SCF ... 1672
Number of vectors sought       ... 1
Recalculating density on grid  ... done
Calculating the xc-kernel      ... done
     CP-SCF ITERATION   0: 
     CP-SCF ITERATION   1:      0.005558893970
     CP-SCF ITERATION   2:      0.002880027182
     CP-SCF ITERATION   3:      0.000160993654
     CP-SCF ITERATION   4:      0.000006981183
     CP-SCF ITERATION   5:      0.000000386129
     CP-SCF ITERATION   6:      0.000000014126
     CP-SCF ITERATION   7:      0.000000000411
done
Finalizing the relaxed density                   ... done
Transforming P to the AO basis                   ... done
Storing the relaxed density                      ... done

------------------------------------
ENERGY WEIGHTED DENSITY FINALIZATION
------------------------------------

Gathering the parts of the W-matrix              ... done
Forming the Z-density                            ... done
Transforming Z to the AO basis                   ... done
Calculating G(Z)                                 ... done
Finalizing the W-matrix                          ... done
Transforming W to the AO basis and storing       ... done
Entering the RIJONX and RIJCOSX sections
Starting the three-index derivative integrals:
Operator 0  - Memory available             ...  5000 MB
Operator 0  - Memory needed per MO         ...   0.5 MB
Operator 0  - Number of orbitals per batch ... 1
Operator 0  - Number of batches            ... 1

OPERATOR  0   PASS   0:  MOs     6 ...    6 +    7 ...    7 +    8 ...    8 +    9 ...    9
                            +   10 ...   10 +   11 ...   11 +   12 ...   12 +   13 ...   13
                            +   14 ...   14 +   15 ...   15 +   16 ...   16 +   17 ...   17
                            +   18 ...   18

----------------------------------
MP2 DERIVATIVE INTEGRAL GENERATION
----------------------------------


Input Correlated Electron Density   ... Cu01N0_F.pmp2re
Input Energy Weighted Density       ... Cu01N0_F.wmp2.tmp
Input SCF Electron Density          ... Cu01N0_F.scfp

One-Electron Terms    ...
                        ... One-Electron Terms done
Prescreening matrices              ... done
Exchange-correlation gradient    ... done
Dispersion correction            ... done

-------
TIMINGS
-------

Total time                :    5.814 sec
Integral trafo            :    0.112 sec (  1.9%)
FC preparation            :    0.052 sec (  0.9%)
I/O of integrals          :    0.000 sec (  0.0%)
K(i,j) Operators          :    0.001 sec (  0.0%)
T(i,j) pair energies      :    0.001 sec (  0.0%)
V-calculation             :    0.004 sec (  0.1%)
V**(-1/2)                 :    0.003 sec (  0.1%)
Gamma(ia|P)               :    0.001 sec (  0.0%)
Gamma-Trafo               :    0.002 sec (  0.0%)
D(virtual)                :    0.000 sec (  0.0%)
D(internal)               :    0.002 sec (  0.0%)
W(virtual)                :    0.000 sec (  0.0%)
W(internal)               :    0.002 sec (  0.0%)
L(virtual)                :    0.050 sec (  0.9%)
L(internal)               :    0.000 sec (  0.0%)
G(D)                      :    0.375 sec (  6.5%)
G(Z)                      :    0.372 sec (  6.4%)
Z-Vector Solution         :    3.361 sec ( 57.8%)
Z-Vector Solution         :    3.361 sec ( 57.8%)
3-Index Derivative 
+ Separable RIJ part      :    0.215 sec (  3.7%)
2-Index Derivative 
+ Separable RIJ part      :    0.002 sec (  0.0%)
Separable Gradient (X)    :    1.146 sec ( 19.7%)


---------------------------------------
MP2 TOTAL ENERGY:    -1740.189641707 Eh
---------------------------------------

-----------------------------------
NORM OF THE MP2 GRADIENT:  0.014227
-----------------------------------


-------------------------------------------------------------------------------
                          DFT DISPERSION CORRECTION                            
                                                                               
                              DFTD3 V3.1  Rev 1                                
                          USING Becke-Johnson damping                          
-------------------------------------------------------------------------------
-------------------------   ----------------
Dispersion correction           -0.000357653
-------------------------   ----------------


-------------------------   --------------------
FINAL SINGLE POINT ENERGY     -1740.189999359998
-------------------------   --------------------

------------------------------------------------------------------------------
                         ORCA GEOMETRY RELAXATION STEP
------------------------------------------------------------------------------

Reading the OPT-File                    .... done
Getting information on internals        .... done
Copying old internal coords+grads       .... done
Making the new internal coordinates     .... (new redundants).... done
Validating the new internal coordinates .... (new redundants).... done
Calculating the B-matrix                .... done
Calculating the G,G- and P matrices     .... done
Transforming gradient to internals      .... done
Projecting the internal gradient        .... done
Number of atoms                         ....   2
Number of internal coordinates          ....   1
Current Energy                          .... -1740.189999360 Eh
Current gradient norm                   ....     0.014226552 Eh/bohr
Maximum allowed component of the step   ....  0.300
Current trust radius                    ....  0.300
Updating the Hessian (BFGS)             .... done
Forming the augmented Hessian           .... done
Diagonalizing the augmented Hessian     .... done
Last element of RFO vector              ....  0.998958097
Lowest eigenvalues of augmented Hessian:
 -0.000459562
Length of the computed step             ....  0.045684438
The final length of the internal step   ....  0.045684438
Converting the step to cartesian space:
 Initial RMS(Int)=    0.0456844379
Transforming coordinates:
 Iter   0:  RMS(Cart)=    0.0131879613 RMS(Int)=    0.0456844379
 Iter   1:  RMS(Cart)=    0.0000000000 RMS(Int)=    0.0000000000
done
Storing new coordinates                 .... done

                                .--------------------.
          ----------------------|Geometry convergence|-------------------------
          Item                value                   Tolerance       Converged
          ---------------------------------------------------------------------
          Energy change      -0.0000534992            0.0000050000      NO
          RMS gradient        0.0100594908            0.0001000000      NO
          MAX gradient        0.0100594908            0.0003000000      NO
          RMS step            0.0456844379            0.0020000000      NO
          MAX step            0.0456844379            0.0040000000      NO
          ........................................................
          Max(Bonds)      0.0242      Max(Angles)    0.00
          Max(Dihed)        0.00      Max(Improp)    0.00
          ---------------------------------------------------------------------

The optimization has not yet converged - more geometry cycles are needed


    ---------------------------------------------------------------------------
                         Redundant Internal Coordinates
                            (Angstroem and degrees)

        Definition                    Value    dE/dq     Step     New-Value
    ----------------------------------------------------------------------------
     1. B(F   1,Cu  0)                1.7469 -0.010059  0.0242    1.7711   
    ----------------------------------------------------------------------------

         *************************************************************
         *                GEOMETRY OPTIMIZATION CYCLE   3            *
         *************************************************************
---------------------------------
CARTESIAN COORDINATES (ANGSTROEM)
---------------------------------
  Cu     0.000000    0.000000    0.426983
  F      0.000000    0.000000   -1.344130

----------------------------
CARTESIAN COORDINATES (A.U.)
----------------------------
  NO LB      ZA    FRAG     MASS         X           Y           Z
   0 Cu   29.0000    0    63.550    0.000000    0.000000    0.806882
   1 F     9.0000    0    18.998    0.000000    0.000000   -2.540038

--------------------------------
INTERNAL COORDINATES (ANGSTROEM)
--------------------------------
 Cu     0   0   0     0.000000000000     0.00000000     0.00000000
 F      1   0   0     1.771113681767     0.00000000     0.00000000

---------------------------
INTERNAL COORDINATES (A.U.)
---------------------------
 Cu     0   0   0     0.000000000000     0.00000000     0.00000000
 F      1   0   0     3.346919810580     0.00000000     0.00000000



           ************************************************************
           *        Program running with 24 parallel MPI-processes    *
           *              working on a common directory               *
           ************************************************************
 One Electron integrals                  ... done
 Pre-screening matrix                    ... done


           ************************************************************
           *        Program running with 24 parallel MPI-processes    *
           *              working on a common directory               *
           ************************************************************

Diagonalization of the overlap matrix:
Smallest eigenvalue                        ... 2.384e-03
Time for diagonalization                   ...    0.004 sec
[...]
      g0      :     0.000097  g :     0.000847
      g+1     :     0.000095
      g-1     :     0.000095
      g+2     :     0.000094
      g-2     :     0.000094
      g+3     :     0.000094
      g-3     :     0.000094
      g+4     :     0.000093
      g-4     :     0.000093
  1 F s       :     3.983033  s :     3.983033
      pz      :     1.748036  p :     5.675486
      px      :     1.963725
      py      :     1.963725
      dz2     :     0.009541  d :     0.014851
      dxz     :     0.001329
      dyz     :     0.001329
      dx2y2   :     0.001326
      dxy     :     0.001326
      f0      :     0.000205  f :     0.000844
      f+1     :     0.000139
      f-1     :     0.000139
      f+2     :     0.000092
      f-2     :     0.000092
      f+3     :     0.000088
      f-3     :     0.000088


                     *******************************
                     * LOEWDIN POPULATION ANALYSIS *
                     *******************************

----------------------
LOEWDIN ATOMIC CHARGES
----------------------
   0 Cu:    0.558290
   1 F :   -0.558290

-------------------------------
LOEWDIN REDUCED ORBITAL CHARGES
-------------------------------
  0 Cus       :     6.222209  s :     6.222209
      pz      :     4.111266  p :    12.238529
      px      :     4.063632
      py      :     4.063632
      dz2     :     1.942267  d :     9.966587
      dxz     :     2.017688
      dyz     :     2.017688
      dx2y2   :     1.994471
      dxy     :     1.994471
      f0      :     0.003228  f :     0.013532
      f+1     :     0.002163
      f-1     :     0.002163
      f+2     :     0.001515
      f-2     :     0.001515
      f+3     :     0.001474
      f-3     :     0.001474
      g0      :     0.000101  g :     0.000853
      g+1     :     0.000096
      g-1     :     0.000096
      g+2     :     0.000094
      g-2     :     0.000094
      g+3     :     0.000094
      g-3     :     0.000094
      g+4     :     0.000093
      g-4     :     0.000093
  1 F s       :     3.837081  s :     3.837081
      pz      :     1.828837  p :     5.630979
      px      :     1.901071
      py      :     1.901071
      dz2     :     0.051942  d :     0.089123
      dxz     :     0.013975
      dyz     :     0.013975
      dx2y2   :     0.004616
      dxy     :     0.004616
      f0      :     0.000301  f :     0.001107
      f+1     :     0.000214
      f-1     :     0.000214
      f+2     :     0.000101
      f-2     :     0.000101
      f+3     :     0.000088
      f-3     :     0.000088


                      *****************************
                      * MAYER POPULATION ANALYSIS *
                      *****************************

  NA   - Mulliken gross atomic population
  ZA   - Total nuclear charge
  QA   - Mulliken gross atomic charge
  VA   - Mayer's total valence
  BVA  - Mayer's bonded valence
  FA   - Mayer's free valence

  ATOM       NA         ZA         QA         VA         BVA        FA
  0 Cu    28.3258    29.0000     0.6742     1.0197     0.6475     0.3723
  1 F      9.6742     9.0000    -0.6742     0.8397     0.6475     0.1923

  Mayer bond orders larger than 0.100000
B(  0-Cu,  1-F ) :   0.6475 


-------
TIMINGS
-------

Total time                :    5.766 sec
Integral trafo            :    0.128 sec (  2.2%)
FC preparation            :    0.008 sec (  0.1%)
I/O of integrals          :    0.000 sec (  0.0%)
K(i,j) Operators          :    0.001 sec (  0.0%)
T(i,j) pair energies      :    0.001 sec (  0.0%)
V-calculation             :    0.005 sec (  0.1%)
V**(-1/2)                 :    0.004 sec (  0.1%)
Gamma(ia|P)               :    0.001 sec (  0.0%)
Gamma-Trafo               :    0.002 sec (  0.0%)
D(virtual)                :    0.000 sec (  0.0%)
D(internal)               :    0.002 sec (  0.0%)
W(virtual)                :    0.000 sec (  0.0%)
W(internal)               :    0.002 sec (  0.0%)
L(virtual)                :    0.051 sec (  0.9%)
L(internal)               :    0.000 sec (  0.0%)
G(D)                      :    0.386 sec (  6.7%)
G(Z)                      :    0.386 sec (  6.7%)
Z-Vector Solution         :    3.269 sec ( 56.7%)
Z-Vector Solution         :    3.269 sec ( 56.7%)
3-Index Derivative 
+ Separable RIJ part      :    0.212 sec (  3.7%)
2-Index Derivative 
+ Separable RIJ part      :    0.002 sec (  0.0%)
Separable Gradient (X)    :    1.132 sec ( 19.6%)


---------------------------------------
MP2 TOTAL ENERGY:    -1740.189668798 Eh
---------------------------------------

-----------------------------------
NORM OF THE MP2 GRADIENT:  0.000121
-----------------------------------


-------------------------------------------------------------------------------
                          DFT DISPERSION CORRECTION                            
                                                                               
                              DFTD3 V3.1  Rev 1                                
                          USING Becke-Johnson damping                          
-------------------------------------------------------------------------------
The B2PLYP functional is recognized
Active option DFTDOPT                   ...         4   

molecular C6(AA) [au] = 243.998271 


            DFT-D V3
 parameters
 s6 scaling factor         :     0.6400 
 a1 scaling factor         :     0.3065 
 s8 scaling factor         :     0.9147 
 a2 scaling factor         :     5.0570 
 ad hoc parameters k1-k3   :    16.0000     1.3333    -4.0000 

 Edisp/kcal,au: -0.224361819044  -0.000357543279 
 E6   /kcal   :  -0.105614501 
 E8   /kcal   :  -0.118747318 
 % E8         :  52.926704800 

-------------------------   ----------------
Dispersion correction           -0.000357543
-------------------------   ----------------


-------------------------   --------------------
FINAL SINGLE POINT ENERGY     -1740.190026341638
-------------------------   --------------------

                                *** OPTIMIZATION RUN DONE ***

                            ***************************************
                            *     ORCA property calculations      *
                            ***************************************

                                    ---------------------
                                    Active property flags
                                    ---------------------
   (+) Dipole Moment


------------------------------------------------------------------------------
                       ORCA ELECTRIC PROPERTIES CALCULATION
------------------------------------------------------------------------------

Dipole Moment Calculation                       ... on
Quadrupole Moment Calculation                   ... off
Polarizability Calculation                      ... off
GBWName                                         ... Cu01N0_F.gbw
Electron density file                           ... Cu01N0_F.scfp
The origin for moment calculation is the CENTER OF MASS  = ( 0.000000,  0.000000  0.037779)

-------------
DIPOLE MOMENT
-------------
                                X             Y             Z
Electronic contribution:      0.00000       0.00000       3.14295
Nuclear contribution   :      0.00000       0.00000      -0.85288
                        -----------------------------------------
Total Dipole Moment    :      0.00000       0.00000       2.29007
                        -----------------------------------------
Magnitude (a.u.)       :      2.29007
Magnitude (Debye)      :      5.82089



--------------------
Rotational spectrum 
--------------------
 
Rotational constants in cm-1:     0.000000     0.366488     0.366488 
Rotational constants in MHz :     0.000000 10987.019227 10987.019227 

 Dipole components along the rotational axes: 
x,y,z [a.u.] :     2.290068     0.000000     0.000000 
x,y,z [Debye]:     5.820891     0.000000     0.000000 

 

                         *** MP2 UNRELAXED DENSITY ***

------------------------------------------------------------------------------
                       ORCA ELECTRIC PROPERTIES CALCULATION
------------------------------------------------------------------------------

Dipole Moment Calculation                       ... on
Quadrupole Moment Calculation                   ... off
Polarizability Calculation                      ... off
GBWName                                         ... Cu01N0_F.gbw
Electron density file                           ... Cu01N0_F.pmp2ur
The origin for moment calculation is the CENTER OF MASS  = ( 0.000000,  0.000000  0.037779)

-------------
DIPOLE MOMENT
-------------
                                X             Y             Z
Electronic contribution:      0.00000       0.00000       3.10923
Nuclear contribution   :      0.00000       0.00000      -0.85288
                        -----------------------------------------
Total Dipole Moment    :      0.00000       0.00000       2.25635
                        -----------------------------------------
Magnitude (a.u.)       :      2.25635
Magnitude (Debye)      :      5.73519



--------------------
Rotational spectrum 
--------------------
 
Rotational constants in cm-1:     0.000000     0.366488     0.366488 
Rotational constants in MHz :     0.000000 10987.019227 10987.019227 

 Dipole components along the rotational axes: 
x,y,z [a.u.] :     2.256350     0.000000     0.000000 
x,y,z [Debye]:     5.735186     0.000000     0.000000 

 

                           *** MP2 RELAXED DENSITY ***

------------------------------------------------------------------------------
                       ORCA ELECTRIC PROPERTIES CALCULATION
------------------------------------------------------------------------------

Dipole Moment Calculation                       ... on
Quadrupole Moment Calculation                   ... off
Polarizability Calculation                      ... off
GBWName                                         ... Cu01N0_F.gbw
Electron density file                           ... Cu01N0_F.pmp2re
The origin for moment calculation is the CENTER OF MASS  = ( 0.000000,  0.000000  0.037779)

-------------
DIPOLE MOMENT
-------------
                                X             Y             Z
Electronic contribution:      0.00000       0.00000       2.94125
Nuclear contribution   :      0.00000       0.00000      -0.85288
                        -----------------------------------------
Total Dipole Moment    :      0.00000       0.00000       2.08837
                        -----------------------------------------
Magnitude (a.u.)       :      2.08837
Magnitude (Debye)      :      5.30821



--------------------
Rotational spectrum 
--------------------
 
Rotational constants in cm-1:     0.000000     0.366488     0.366488 
Rotational constants in MHz :     0.000000 10987.019227 10987.019227 

 Dipole components along the rotational axes: 
x,y,z [a.u.] :     2.088370     0.000000     0.000000 
x,y,z [Debye]:     5.308214     0.000000     0.000000 

 

----------------------------------------------------------------------------
                           ORCA NUMERICAL FREQUENCIES
                              (24-process run)
----------------------------------------------------------------------------

Number of atoms                ... 2
Central differences            ... used
Number of displacements        ... 12
Numerical increment            ... 5.000e-03 bohr
IR-spectrum generation         ... on
Raman-spectrum generation      ... off
Surface Crossing Hessian       ... off

 WARNING: There are more processes than displacements to do
  ====> : Reducing number of processes to   6

The output will be reduced. Please look at the following files:
SCF program output             ... >Cu01N0_F.lastscf
Integral program output        ... >Cu01N0_F.lastint
Gradient program output        ... >Cu01N0_F.lastgrad
Dipole moment program output   ... >Cu01N0_F.lastmom
AutoCI program output          ... >Cu01N0_F.lastautoci


         <<< Energy and Gradient at the input geometry >>>

        <<< Energy and Gradient at displaced geometries >>>
             <<<Displacing   1/coordinate 3 (+)>>>
             <<<Displacing   2/coordinate 3 (+)>>>
             <<<Displacing   1/coordinate 1 (+)>>>
             <<<Displacing   2/coordinate 2 (+)>>>
             <<<Displacing   1/coordinate 2 (+)>>>
             <<<Displacing   2/coordinate 1 (+)>>>
             <<<Displacing   2/coordinate 3 (-)>>>
             <<<Displacing   2/coordinate 1 (-)>>>
             <<<Displacing   1/coordinate 1 (-)>>>
             <<<Displacing   1/coordinate 3 (-)>>>
             <<<Displacing   1/coordinate 2 (-)>>>
             <<<Displacing   2/coordinate 2 (-)>>>
Warning: T+R mode no 5 is zero 

-----------------------
VIBRATIONAL FREQUENCIES
-----------------------

Scaling factor for frequencies =  1.000000000 (already applied!)

   0:         0.00 cm**-1
   1:         0.00 cm**-1
   2:         0.00 cm**-1
   3:         0.00 cm**-1
   4:         0.00 cm**-1
   5:       579.97 cm**-1


------------
NORMAL MODES
------------

These modes are the cartesian displacements weighted by the diagonal matrix
M(i,i)=1/sqrt(m[i]) where m[i] is the mass of the displaced atom
Thus, these vectors are normalized but *not* orthogonal

                  0          1          2          3          4          5    
      0       0.000000   0.000000   0.000000   0.000000   0.000000   0.000000
      1       0.000000   0.000000   0.000000   0.000000   0.000000   0.000000
      2       0.000000   0.000000   0.000000   0.000000   0.000000   0.286421
      3       0.000000   0.000000   0.000000   0.000000   0.000000   0.000000
      4       0.000000   0.000000   0.000000   0.000000   0.000000   0.000000
      5       0.000000   0.000000   0.000000   0.000000   0.000000  -0.958104


-----------
IR SPECTRUM  
-----------

 Mode    freq (cm**-1)   T**2         TX         TY         TZ
-------------------------------------------------------------------
   5:       579.97   57.200176  (  0.000001  -0.000001   7.563080)

The first frequency considered to be a vibration is 5
The total number of vibrations considered is 1


--------------------------
THERMOCHEMISTRY AT 298.15K
--------------------------

Temperature         ... 298.15 K
Pressure            ... 1.00 atm
Total Mass          ... 82.55 AMU
The molecule is recognized as being linear

Throughout the following assumptions are being made:
  (1) The electronic state is orbitally nondegenerate
  (2) There are no thermally accessible electronically excited states
  (3) Hindered rotations indicated by low frequency modes are not
      treated as such but are treated as vibrations and this may
      cause some error
  (4) All equations used are the standard statistical mechanics
      equations for an ideal gas
  (5) All vibrations are strictly harmonic

freq.     579.97  E(vib)   ...       0.11 

------------
INNER ENERGY
------------

The inner energy is: U= E(el) + E(ZPE) + E(vib) + E(rot) + E(trans)
    E(el)   - is the total energy from the electronic structure calculation
              = E(kin-el) + E(nuc-el) + E(el-el) + E(nuc-nuc)
    E(ZPE)  - the the zero temperature vibrational energy from the frequency calculation
    E(vib)  - the the finite temperature correction to E(ZPE) due to population
              of excited vibrational states
    E(rot)  - is the rotational thermal energy
    E(trans)- is the translational thermal energy

Summary of contributions to the inner energy U:
Electronic energy                ...  -1740.19002630 Eh
Zero point energy                ...      0.00132126 Eh       0.83 kcal/mol
Thermal vibrational correction   ...      0.00017134 Eh       0.11 kcal/mol
Thermal rotational correction    ...      0.00094418 Eh       0.59 kcal/mol
Thermal translational correction ...      0.00141627 Eh       0.89 kcal/mol
-----------------------------------------------------------------------
Total thermal energy                  -1740.18617325 Eh


Summary of corrections to the electronic energy:
(perhaps to be used in another calculation)
Total thermal correction                  0.00253179 Eh       1.59 kcal/mol
Non-thermal (ZPE) correction              0.00132126 Eh       0.83 kcal/mol
-----------------------------------------------------------------------
Total correction                          0.00385305 Eh       2.42 kcal/mol


--------
ENTHALPY
--------

The enthalpy is H = U + kB*T
                kB is Boltzmann's constant
Total free energy                 ...  -1740.18617325 Eh 
Thermal Enthalpy correction       ...      0.00094421 Eh       0.59 kcal/mol
-----------------------------------------------------------------------
Total Enthalpy                    ...  -1740.18522904 Eh


Note: Rotational entropy computed according to Herzberg 
Infrared and Raman Spectra, Chapter V,1, Van Nostrand Reinhold, 1945 
Point Group:  Cinfv, Symmetry Number:   1  
Rotational constants in cm-1:     0.000000     0.366488     0.366488 

Vibrational entropy computed according to the QRRHO of S. Grimme
Chem.Eur.J. 2012 18 9955


-------
ENTROPY
-------

The entropy contributions are T*S = T*(S(el)+S(vib)+S(rot)+S(trans))
     S(el)   - electronic entropy
     S(vib)  - vibrational entropy
     S(rot)  - rotational entropy
     S(trans)- translational entropy
The entropies will be listed as mutliplied by the temperature to get
units of energy

Electronic entropy                ...      0.00000000 Eh      0.00 kcal/mol
Vibrational entropy               ...      0.00023092 Eh      0.14 kcal/mol
Rotational entropy                ...      0.00692802 Eh      4.35 kcal/mol
Translational entropy             ...      0.01859962 Eh     11.67 kcal/mol
-----------------------------------------------------------------------
Final entropy term                ...      0.02575855 Eh     16.16 kcal/mol

In case the symmetry of your molecule has not been determined correctly
or in case you have a reason to use a different symmetry number we print 
out the resulting rotational entropy values for sn=1,12 :
 --------------------------------------------------------
|  sn= 1 | S(rot)=             -inf Eh      -inf kcal/mol|
|  sn= 2 | S(rot)=             -inf Eh      -inf kcal/mol|
|  sn= 3 | S(rot)=             -inf Eh      -inf kcal/mol|
|  sn= 4 | S(rot)=             -inf Eh      -inf kcal/mol|
|  sn= 5 | S(rot)=             -inf Eh      -inf kcal/mol|
|  sn= 6 | S(rot)=             -inf Eh      -inf kcal/mol|
|  sn= 7 | S(rot)=             -inf Eh      -inf kcal/mol|
|  sn= 8 | S(rot)=             -inf Eh      -inf kcal/mol|
|  sn= 9 | S(rot)=             -inf Eh      -inf kcal/mol|
|  sn=10 | S(rot)=             -inf Eh      -inf kcal/mol|
|  sn=11 | S(rot)=             -inf Eh      -inf kcal/mol|
|  sn=12 | S(rot)=             -inf Eh      -inf kcal/mol|
 --------------------------------------------------------


-------------------
GIBBS FREE ENERGY
-------------------

The Gibbs free energy is G = H - T*S

Total enthalpy                    ...  -1740.18522904 Eh 
Total entropy correction          ...     -0.02575855 Eh    -16.16 kcal/mol
-----------------------------------------------------------------------
Final Gibbs free energy         ...  -1740.21098759 Eh

For completeness - the Gibbs free energy minus the electronic energy
G-E(el)                           ...     -0.02096129 Eh    -13.15 kcal/mol


Total Time for Numerical Frequencies  :        54.446 sec

Timings for individual modules:

Sum of individual times         ...       54.410 sec (=   0.907 min)
GTO integral calculation        ...        3.902 sec (=   0.065 min)   7.2 %
SCF iterations                  ...       12.621 sec (=   0.210 min)  23.2 %
MP2 module                      ...       37.608 sec (=   0.627 min)  69.1 %
Geometry relaxation             ...        0.280 sec (=   0.005 min)   0.5 %
                             ****ORCA TERMINATED NORMALLY****
TOTAL RUN TIME: 0 days 0 hours 1 minutes 42 seconds 103 msec
