
                                 *****************
                                 * O   R   C   A *
                                 *****************

           --- An Ab Initio, DFT and Semiempirical electronic structure package ---

                  #######################################################
                  #                        -***-                        #
                  #          Department of theory and spectroscopy      #
                  #               Directorship: Frank Neese             #
                  #        Max Planck Institute fuer Kohlenforschung    #
                  #                Kaiser Wilhelm Platz 1               #
                  #                 D-45470 Muelheim/Ruhr               #
                  #                      Germany                        #
                  #                                                     #
                  #                  All rights reserved                #
                  #                        -***-                        #
                  #######################################################


                         Program Version 4.2.0 -  RELEASE  -


 With contributions from (in alphabetic order):
   Daniel Aravena         : Magnetic Suceptibility
   Michael Atanasov       : Ab Initio Ligand Field Theory (pilot matlab implementation)
   Alexander A. Auer      : GIAO ZORA, VPT2
   Ute Becker             : Parallelization
   Giovanni Bistoni       : ED, misc. LED, open-shell LED, HFLED
   Martin Brehm           : Molecular dynamics
   Dmytro Bykov           : SCF Hessian
   Vijay G. Chilkuri      : MRCI spin determinant printing, contributions to CSF-ICE
   Dipayan Datta          : RHF DLPNO-CCSD density
   Achintya Kumar Dutta   : EOM-CC, STEOM-CC
   Dmitry Ganyushin       : Spin-Orbit,Spin-Spin,Magnetic field MRCI
   Miquel Garcia          : C-PCM Hessian, Gaussian charge scheme
   Yang Guo               : DLPNO-NEVPT2, CIM, IAO-localization
   Andreas Hansen         : Spin unrestricted coupled pair/coupled cluster methods
   Benjamin Helmich-Paris : CASSCF linear response (MC-RPA)
   Lee Huntington         : MR-EOM, pCC
   Robert Izsak           : Overlap fitted RIJCOSX, COSX-SCS-MP3, EOM
   Christian Kollmar      : KDIIS, OOCD, Brueckner-CCSD(T), CCSD density
   Simone Kossmann        : Meta GGA functionals, TD-DFT gradient, OOMP2, MP2 Hessian
   Martin Krupicka        : AUTO-CI
   Lucas Lang             : DCDCAS
   Dagmar Lenk            : GEPOL surface, SMD
   Dimitrios Liakos       : Extrapolation schemes; Compound Job, initial MDCI parallelization
   Dimitrios Manganas     : Further ROCIS development; embedding schemes
   Dimitrios Pantazis     : SARC Basis sets
   Taras Petrenko         : DFT Hessian,TD-DFT gradient, ASA, ECA, R-Raman, ABS, FL, XAS/XES, NRVS
   Peter Pinski           : DLPNO-MP2, DLPNO-MP2 Gradient
   Christoph Reimann      : Effective Core Potentials
   Marius Retegan         : Local ZFS, SOC
   Christoph Riplinger    : Optimizer, TS searches, QM/MM, DLPNO-CCSD(T), (RO)-DLPNO pert. Triples
   Tobias Risthaus        : Range-separated hybrids, TD-DFT gradient, RPA, STAB
   Michael Roemelt        : Original ROCIS implementation
   Masaaki Saitow         : Open-shell DLPNO-CCSD energy and density
   Barbara Sandhoefer     : DKH picture change effects
   Avijit Sen             : IP-ROCIS
   Kantharuban Sivalingam : CASSCF convergence, NEVPT2, FIC-MRCI
   Bernardo de Souza      : ESD, SOC TD-DFT
   Georgi Stoychev        : AutoAux, RI-MP2 NMR
   Willem Van den Heuvel  : Paramagnetic NMR
   Boris Wezisla          : Elementary symmetry handling
   Frank Wennmohs         : Technical directorship


 We gratefully acknowledge several colleagues who have allowed us to
 interface, adapt or use parts of their codes:
   Stefan Grimme, W. Hujo, H. Kruse,             : VdW corrections, initial TS optimization,
                  C. Bannwarth                     DFT functionals, gCP, sTDA/sTD-DF
   Ed Valeev, F. Pavosevic, A. Kumar             : LibInt (2-el integral package), F12 methods
   Garnet Chan, S. Sharma, J. Yang, R. Olivares  : DMRG
   Ulf Ekstrom                                   : XCFun DFT Library
   Mihaly Kallay                                 : mrcc  (arbitrary order and MRCC methods)
   Andreas Klamt, Michael Diedenhofen            : otool_cosmo (COSMO solvation model)
   Jiri Pittner, Ondrej Demel                    : Mk-CCSD
   Frank Weinhold                                : gennbo (NPA and NBO analysis)
   Christopher J. Cramer and Donald G. Truhlar   : smd solvation model
   Lars Goerigk                                  : TD-DFT with DH, B97 family of functionals
   V. Asgeirsson, H. Jonsson                     : NEB implementation
   FAccTs GmbH                                   : IRC, NEB, NEB-TS, Multilevel, MM, QM/MM, CI optimization
   S Lehtola, MJT Oliveira, MAL Marques          : LibXC Library


 Your calculation uses the libint2 library for the computation of 2-el integrals
 For citations please refer to: http://libint.valeyev.net

 Your ORCA version has been built with support for libXC version: 4.2.3
 For citations please refer to: https://tddft.org/programs/libxc/

 This ORCA versions uses:
   CBLAS   interface :  Fast vector & matrix operations
   LAPACKE interface :  Fast linear algebra routines
   SCALAPACK package :  Parallel linear algebra routines


Your calculation utilizes the atom-pairwise dispersion correction
with the Becke-Johnson damping scheme (D3BJ)
Cite in your paper:
S.Grimme, S.Ehrlich, L.Goerigk, J Comput Chem, (2011), 32, 1456–1465 
S.Grimme, J.Antony, S.Ehrlich and H.Krieg, J.Chem.Phys., 132, (2010), 154104 
   

----- Orbital basis set information -----
Your calculation utilizes the basis: def2-TZVPPD
   F. Weigend and R. Ahlrichs, Phys. Chem. Chem. Phys. 7, 3297 (2005).
   D. Rappoport and F. Furche, J. Chem. Phys. 133 134105 (2010).

----- AuxC basis set information -----
Your calculation utilizes the auxiliary basis: def2-TZVPPD/C
   A. Hellweg, C. Hattig, S. Hofener and W. Klopper, Theor. Chem. Acc. 117, 587 (2007).

----- AuxJK basis set information -----
Your calculation utilizes the auxiliary basis: def2/JK
   H-Ba, Hf-Rn: F. Weigend, J. Comput. Chem. 29, 167 (2008).

================================================================================
                                        WARNINGS
                       Please study these warnings very carefully!
================================================================================


WARNING: The frozen-core approximation for MP2-gradient calculations is turned on by default.

WARNING: Geometry Optimization
  ===> : Switching off AutoStart
         For restart on a previous wavefunction, please use MOREAD

WARNING: The frozen-core approximation is turned on by default for 
         the MP2 part of double-hybrid DFT.

INFO   : the flag for use of LIBINT has been found!

================================================================================
                                       INPUT FILE
================================================================================
NAME = Cu03C1_LIN.in
|  1> #
|  2> # Cu03C1_LIN ri-B2PLYP-D3BJ/Def2-TZVPPD
|  3> #
|  4> ! rijk ri-b2plyp d3bj def2-tzvppd def2/jk def2-tzvppd/c grid4 nofinalgrid opt xyzfile numfreq
|  5> 
|  6> *xyz 1 1
|  7> Cu       0.000000    0.000000    0.000000 
|  8> Cu       0.000000    0.000000    2.337165 
|  9> Cu       0.000000    0.000000   -2.337165 
| 10> *
| 11> 
| 12> %maxcore 5000
| 13> 
| 14> %pal
| 15> nprocs = 24
| 16> end
| 17> 
| 18> 
| 19>                          ****END OF INPUT****
================================================================================

                       *****************************
                       * Geometry Optimization Run *
                       *****************************

Geometry optimization settings:
Update method            Update   .... BFGS
Choice of coordinates    CoordSys .... Z-matrix Internals
Initial Hessian          InHess   .... Almoef's Model

Convergence Tolerances:
Energy Change            TolE     ....  5.0000e-06 Eh
Max. Gradient            TolMAXG  ....  3.0000e-04 Eh/bohr
RMS Gradient             TolRMSG  ....  1.0000e-04 Eh/bohr
Max. Displacement        TolMAXD  ....  4.0000e-03 bohr
RMS Displacement         TolRMSD  ....  2.0000e-03 bohr
Strict Convergence                ....  False
------------------------------------------------------------------------------
                        ORCA OPTIMIZATION COORDINATE SETUP
------------------------------------------------------------------------------

The optimization will be done in new redundant internal coordinates
Making redundant internal coordinates   ...  (new redundants) done
Evaluating the initial hessian          ...  (Almloef) done
Evaluating the coordinates              ...  done
Calculating the B-matrix                .... done
Calculating the G-matrix                .... done
Diagonalizing the G-matrix              .... done
The first mode is                       ....    0
The number of degrees of freedom        ....    4

    -----------------------------------------------------------------
                    Redundant Internal Coordinates


    -----------------------------------------------------------------
         Definition                    Initial Value    Approx d2E/dq
    -----------------------------------------------------------------
      1. B(Cu  1,Cu  0)                  2.3372         1.971727   
      2. B(Cu  2,Cu  0)                  2.3372         1.971727   
      3. L(Cu  1,Cu  0,Cu  2, 2)       180.0000         1.051601   
      4. L(Cu  1,Cu  0,Cu  2, 1)       180.0000         1.051601   
    -----------------------------------------------------------------

Number of atoms                         .... 3
Number of degrees of freedom            .... 4

         *************************************************************
         *                GEOMETRY OPTIMIZATION CYCLE   1            *
         *************************************************************
---------------------------------
CARTESIAN COORDINATES (ANGSTROEM)
---------------------------------
  Cu     0.000000    0.000000    0.000000
  Cu     0.000000    0.000000    2.337165
  Cu     0.000000    0.000000   -2.337165

----------------------------
CARTESIAN COORDINATES (A.U.)
----------------------------
  NO LB      ZA    FRAG     MASS         X           Y           Z
   0 Cu   29.0000    0    63.550    0.000000    0.000000    0.000000
   1 Cu   29.0000    0    63.550    0.000000    0.000000    4.416602
   2 Cu   29.0000    0    63.550    0.000000    0.000000   -4.416602

--------------------------------
INTERNAL COORDINATES (ANGSTROEM)
--------------------------------
 Cu     0   0   0     0.000000000000     0.00000000     0.00000000
 Cu     1   0   0     2.337165000000     0.00000000     0.00000000
 Cu     1   2   0     2.337165000000   180.00000000     0.00000000

---------------------------
INTERNAL COORDINATES (A.U.)
---------------------------
 Cu     0   0   0     0.000000000000     0.00000000     0.00000000
 Cu     1   0   0     4.416601779786     0.00000000     0.00000000
 Cu     1   2   0     4.416601779786   180.00000000     0.00000000

---------------------
BASIS SET INFORMATION
---------------------
There are 1 groups of distinct atoms

 Group   1 Type Cu  : 17s13p7d2f1g contracted to 6s6p4d2f1g pattern {842111/631111/4111/11/1}

Atom   0Cu   basis set group =>   1
Atom   1Cu   basis set group =>   1
Atom   2Cu   basis set group =>   1
---------------------------------
AUXILIARY/C BASIS SET INFORMATION
---------------------------------
There are 1 groups of distinct atoms

 Group   1 Type Cu  : 10s10p9d7f5g3h1i contracted to 10s10p9d7f5g3h1i pattern {1111111111/1111111111/111111111/1111111/11111/111/1}

Atom   0Cu   basis set group =>   1
Atom   1Cu   basis set group =>   1
Atom   2Cu   basis set group =>   1
----------------------------------
AUXILIARY/JK BASIS SET INFORMATION
----------------------------------
There are 1 groups of distinct atoms

 Group   1 Type Cu  : 19s14p12d10f7g3h1i contracted to 16s13p11d9f5g3h1i pattern {4111111111111111/2111111111111/21111111111/211111111/31111/111/1}

Atom   0Cu   basis set group =>   1
Atom   1Cu   basis set group =>   1
Atom   2Cu   basis set group =>   1


           ************************************************************
           *        Program running with 24 parallel MPI-processes    *
           *              working on a common directory               *
           ************************************************************
------------------------------------------------------------------------------
                           ORCA GTO INTEGRAL CALCULATION
                           -- RI-GTO INTEGRALS CHOSEN --
------------------------------------------------------------------------------

                         BASIS SET STATISTICS AND STARTUP INFO

Gaussian basis set:
 # of primitive gaussian shells          ...  120
 # of primitive gaussian functions       ...  342
 # of contracted shells                  ...   57
 # of contracted basis functions         ...  201
 Highest angular momentum                ...    4
 Maximum contraction depth               ...    8
Auxiliary gaussian basis set:
 # of primitive gaussian shells          ...  198
 # of primitive gaussian functions       ...  900
 # of contracted shells                  ...  174
 # of contracted aux-basis functions     ...  792
 Highest angular momentum                ...    6
 Maximum contraction depth               ...    4
Ratio of auxiliary to basis functions    ...  3.94
Integral package used                  ... LIBINT
 One Electron integrals                  ... done
 Ordering auxiliary basis shells         ... done
 Integral threshhold             Thresh  ...  2.500e-11
 Primitive cut-off               TCut    ...  2.500e-12
 Pre-screening matrix                    ... done
 Shell pair data                         ... 
 Ordering of the shell pairs             ... done (   0.000 sec) 1432 of 1653 pairs
 Determination of significant pairs      ... done (   0.000 sec)
 Creation of shell pair data             ... done (   0.000 sec)
 Storage of shell pair data              ... done (   0.026 sec)
 Shell pair data done in (   0.026 sec)
 Computing two index integrals           ... done
 Cholesky decomposition of the V-matrix  ... done


Timings:
 Total evaluation time                   ...   0.380 sec (  0.006 min)
 One electron matrix time                ...   0.022 sec (  0.000 min) =  5.7%
 Schwartz matrix evaluation time         ...   0.181 sec (  0.003 min) = 47.6%
 Two index repulsion integral time       ...   0.111 sec (  0.002 min) = 29.2%
 Cholesky decomposition of V             ...   0.010 sec (  0.000 min) =  2.6%
 Three index repulsion integral time     ...   0.000 sec (  0.000 min) =  0.0%



           ************************************************************
           *        Program running with 24 parallel MPI-processes    *
           *              working on a common directory               *
           ************************************************************
-------------------------------------------------------------------------------
                                 ORCA SCF
-------------------------------------------------------------------------------

------------
SCF SETTINGS
------------
Hamiltonian:
 Density Functional     Method          .... DFT(GTOs)
 Exchange Functional    Exchange        .... B88
   X-Alpha parameter    XAlpha          ....  0.666667
   Becke's b parameter  XBeta           ....  0.004200
 Correlation Functional Correlation     .... LYP
 LDA part of GGA corr.  LDAOpt          .... VWN-3
 Gradients option       PostSCFGGA      .... off
 Hybrid DFT is turned on
   Fraction HF Exchange ScalHFX         ....  0.530000
   Scaling of DF-GGA-X  ScalDFX         ....  0.470000
   Scaling of DF-GGA-C  ScalDFC         ....  0.730000
   Scaling of DF-LDA-C  ScalLDAC        ....  0.730000
   Perturbative correction              ....  0.270000
   Density functional embedding theory  .... OFF
 RI-approximation to the Coulomb term is turned on
   Number of auxiliary basis functions  .... 792
   RI-JK (J+K treated both via RI)      .... on


General Settings:
 Integral files         IntName         .... Cu03C1_LIN
 Hartree-Fock type      HFTyp           .... RHF
 Total Charge           Charge          ....    1
 Multiplicity           Mult            ....    1
 Number of Electrons    NEL             ....   86
 Basis Dimension        Dim             ....  201
 Nuclear Repulsion      ENuc            ....    476.0447295979 Eh

Convergence Acceleration:
 DIIS                   CNVDIIS         .... on
   Start iteration      DIISMaxIt       ....    12
   Startup error        DIISStart       ....  0.200000
   # of expansion vecs  DIISMaxEq       ....     5
   Bias factor          DIISBfac        ....   1.050
   Max. coefficient     DIISMaxC        ....  10.000
 Newton-Raphson         CNVNR           .... off
 SOSCF                  CNVSOSCF        .... off
 Level Shifting         CNVShift        .... on
   Level shift para.    LevelShift      ....    0.2500
   Turn off err/grad.   ShiftErr        ....    0.0010
 Zerner damping         CNVZerner       .... off
 Static damping         CNVDamp         .... on
   Fraction old density DampFac         ....    0.7000
   Max. Damping (<1)    DampMax         ....    0.9800
   Min. Damping (>=0)   DampMin         ....    0.0000
   Turn off err/grad.   DampErr         ....    0.1000
 Fernandez-Rico         CNVRico         .... off

SCF Procedure:
 Maximum # iterations   MaxIter         ....   125
 SCF integral mode      SCFMode         .... Direct
   Integral package                     .... LIBINT
 Reset frequency        DirectResetFreq ....    20
 Integral Threshold     Thresh          ....  2.500e-11 Eh
 Primitive CutOff       TCut            ....  2.500e-12 Eh

Convergence Tolerance:
 Convergence Check Mode ConvCheckMode   .... Total+1el-Energy
 Convergence forced     ConvForced      .... 0
 Energy Change          TolE            ....  1.000e-08 Eh
 1-El. energy change                    ....  1.000e-05 Eh
 DIIS Error             TolErr          ....  5.000e-07


Diagonalization of the overlap matrix:
Smallest eigenvalue                        ... 3.551e-04
Time for diagonalization                   ...    0.007 sec
Threshold for overlap eigenvalues          ... 1.000e-08
Number of eigenvalues below threshold      ... 0
Time for construction of square roots      ...    0.005 sec
Total time needed                          ...    0.012 sec

-------------------
DFT GRID GENERATION
-------------------

General Integration Accuracy     IntAcc      ...  4.670
Radial Grid Type                 RadialGrid  ... Gauss-Chebyshev
Angular Grid (max. acc.)         AngularGrid ... Lebedev-302
Angular grid pruning method      GridPruning ... 3 (G Style)
Weight generation scheme         WeightScheme... Becke
Basis function cutoff            BFCut       ...    1.0000e-11
Integration weight cutoff        WCut        ...    1.0000e-14
Grids for H and He will be reduced by one unit

# of grid points (after initial pruning)     ...  28668 (   0.0 sec)
# of grid points (after weights+screening)   ...  28508 (   0.0 sec)
nearest neighbour list constructed           ...    0.0 sec
Grid point re-assignment to atoms done       ...    0.0 sec
Grid point division into batches done        ...    0.2 sec
Reduced shell lists constructed in    0.3 sec

Total number of grid points                  ...    28508
Total number of batches                      ...      447
Average number of points per batch           ...       63
Average number of grid points per atom       ...     9503
Average number of shells per batch           ...    19.10 (33.51%)
Average number of basis functions per batch  ...    56.10 (27.91%)
Average number of large shells per batch     ...    16.15 (84.55%)
Average number of large basis fcns per batch ...    46.85 (83.51%)
Average number of aux-shells per batch       ...    19.10 (10.98%)
Average number of aux functions per batch    ...    56.10 ( 7.08%)
Maximum spatial batch extension              ...  26.18, 26.18,  4.39 au
Average spatial batch extension              ...   0.42,  0.42,  0.18 au

Time for grid setup =    0.304 sec

------------------------------
INITIAL GUESS: MODEL POTENTIAL
------------------------------
Loading Hartree-Fock densities                     ... done
Calculating cut-offs                               ... done
Setting up the integral package                    ... done
Initializing the effective Hamiltonian             ... done
Starting the Coulomb interaction                   ... done (   0.0 sec)
Reading the grid                                   ... done
Mapping shells                                     ... done
Starting the XC term evaluation                    ... done (   0.0 sec)
  promolecular density results
     # of electrons  =     87.000081437
     EX              =   -197.376634533
     EC              =     -1.567587245
     EX+EC           =   -198.944221777
Transforming the Hamiltonian                       ... done (   0.0 sec)
Diagonalizing the Hamiltonian                      ... done (   0.0 sec)
Back transforming the eigenvectors                 ... done (   0.0 sec)
Now organizing SCF variables                       ... done
                      ------------------
                      INITIAL GUESS DONE (   0.4 sec)
                      ------------------
--------------
SCF ITERATIONS
--------------
ITER       Energy         Delta-E        Max-DP      RMS-DP      [F,P]     Damp
  0  -4919.9363185195   0.000000000000 0.11113492  0.00136491  0.1201849 0.7000
  1  -4919.7540462892   0.182272230255 0.10676701  0.00119133  0.0643741 0.7000
                               ***Turning on DIIS***
  2  -4919.8678916089  -0.113845319673 0.25700569  0.00274520  0.0341607 0.0000
  3  -4919.9837296691  -0.115838060180 0.04359512  0.00052433  0.0177020 0.0000
  4  -4919.9856183988  -0.001888729685 0.00964292  0.00016944  0.0146156 0.0000
  5  -4919.9859869283  -0.000368529526 0.00572856  0.00009973  0.0099181 0.0000
  6  -4919.9861951093  -0.000208180986 0.00436710  0.00007371  0.0023434 0.0000
  7  -4919.9862549896  -0.000059880300 0.00374650  0.00005485  0.0015876 0.0000
  8  -4919.9862812227  -0.000026233115 0.00384101  0.00005928  0.0009117 0.0000
  9  -4919.9862937008  -0.000012478044 0.00102680  0.00001250  0.0006979 0.0000
 10  -4919.9862954974  -0.000001796678 0.00045420  0.00000643  0.0001878 0.0000
 11  -4919.9862956877  -0.000000190305 0.00019784  0.00000266  0.0000309 0.0000
 12  -4919.9862957099  -0.000000022165 0.00006072  0.00000086  0.0000121 0.0000
 13  -4919.9862957120  -0.000000002135 0.00002098  0.00000027  0.0000205 0.0000
 14  -4919.9862957127  -0.000000000667 0.00001293  0.00000019  0.0000049 0.0000
 15  -4919.9862957128  -0.000000000092 0.00000201  0.00000004  0.0000013 0.0000
                            ***DIIS convergence achieved***

               *****************************************************
               *                     SUCCESS                       *
               *           SCF CONVERGED AFTER  16 CYCLES          *
               *****************************************************


----------------
TOTAL SCF ENERGY
----------------

Total Energy       :        -4919.98629571 Eh         -133879.63342 eV

Components:
Nuclear Repulsion  :          476.04472960 Eh           12953.83565 eV
Electronic Energy  :        -5396.03102531 Eh         -146833.46907 eV
One Electron Energy:        -7800.37706055 Eh         -212259.05086 eV
Two Electron Energy:         2404.34603524 Eh           65425.58179 eV

Virial components:
Potential Energy   :        -9834.88747353 Eh         -267620.89374 eV
Kinetic Energy     :         4914.90117782 Eh          133741.26032 eV
Virial Ratio       :            2.00103463


DFT components:
N(Alpha)           :       42.999994990682 electrons
N(Beta)            :       42.999994990682 electrons
N(Total)           :       85.999989981363 electrons
E(X)               :      -92.966195366612 Eh       
E(C)               :       -3.013105446819 Eh       
E(XC)              :      -95.979300813431 Eh       
DFET-embed. en.    :        0.000000000000 Eh       

---------------
SCF CONVERGENCE
---------------

  Last Energy change         ...   -1.0004e-11  Tolerance :   1.0000e-08
  Last MAX-Density change    ...    2.1906e-06  Tolerance :   1.0000e-07
  Last RMS-Density change    ...    2.6844e-08  Tolerance :   5.0000e-09
  Last DIIS Error            ...    9.6222e-07  Tolerance :   5.0000e-07

             **** THE GBW FILE WAS UPDATED (Cu03C1_LIN.gbw) ****
             **** DENSITY FILE WAS UPDATED (Cu03C1_LIN.scfp) ****
             **** ENERGY FILE WAS UPDATED (Cu03C1_LIN.en.tmp) ****
             **** THE GBW FILE WAS UPDATED (Cu03C1_LIN.gbw) ****
             **** DENSITY FILE WAS UPDATED (Cu03C1_LIN.scfp) ****
----------------
ORBITAL ENERGIES
----------------

  NO   OCC          E(Eh)            E(eV) 
   0   2.0000    -325.633659     -8860.9423 
   1   2.0000    -325.633656     -8860.9423 
   2   2.0000    -325.591884     -8859.8056 
   3   2.0000     -39.838119     -1084.0503 
   4   2.0000     -39.838105     -1084.0500 
   5   2.0000     -39.802713     -1083.0869 
   6   2.0000     -34.874746      -948.9901 
   7   2.0000     -34.874744      -948.9900 
   8   2.0000     -34.874239      -948.9763 
   9   2.0000     -34.874239      -948.9763 
  10   2.0000     -34.874237      -948.9762 
  11   2.0000     -34.874237      -948.9762 
  12   2.0000     -34.838628      -948.0073 
  13   2.0000     -34.837473      -947.9758 
  14   2.0000     -34.837473      -947.9758 
  15   2.0000      -4.791154      -130.3739 
  16   2.0000      -4.791137      -130.3735 
  17   2.0000      -4.751392      -129.2920 
  18   2.0000      -3.212366       -87.4129 
  19   2.0000      -3.212191       -87.4082 
  20   2.0000      -3.210037       -87.3495 
  21   2.0000      -3.210037       -87.3495 
  22   2.0000      -3.210029       -87.3493 
  23   2.0000      -3.210029       -87.3493 
  24   2.0000      -3.172776       -86.3356 
  25   2.0000      -3.166420       -86.1627 
  26   2.0000      -3.166420       -86.1627 
  27   2.0000      -0.592538       -16.1238 
  28   2.0000      -0.577447       -15.7131 
  29   2.0000      -0.577447       -15.7131 
  30   2.0000      -0.571079       -15.5398 
  31   2.0000      -0.570290       -15.5184 
  32   2.0000      -0.570290       -15.5184 
  33   2.0000      -0.568004       -15.4562 
  34   2.0000      -0.567999       -15.4560 
  35   2.0000      -0.567643       -15.4463 
  36   2.0000      -0.567637       -15.4462 
  37   2.0000      -0.521913       -14.2020 
  38   2.0000      -0.521905       -14.2018 
  39   2.0000      -0.518826       -14.1180 
  40   2.0000      -0.518826       -14.1180 
  41   2.0000      -0.514860       -14.0101 
  42   2.0000      -0.414107       -11.2684 
  43   0.0000      -0.278807        -7.5867 
  44   0.0000      -0.179391        -4.8815 
  45   0.0000      -0.156435        -4.2568 
  46   0.0000      -0.156435        -4.2568 
  47   0.0000      -0.115195        -3.1346 
  48   0.0000      -0.108566        -2.9542 
  49   0.0000      -0.108566        -2.9542 
  50   0.0000      -0.040835        -1.1112 
  51   0.0000      -0.040835        -1.1112 
  52   0.0000      -0.033343        -0.9073 
  53   0.0000      -0.030827        -0.8388 
  54   0.0000      -0.028407        -0.7730 
  55   0.0000       0.009815         0.2671 
  56   0.0000       0.009815         0.2671 
  57   0.0000       0.021570         0.5870 
  58   0.0000       0.034849         0.9483 
  59   0.0000       0.034849         0.9483 
  60   0.0000       0.037413         1.0181 
  61   0.0000       0.037413         1.0181 
  62   0.0000       0.073367         1.9964 
  63   0.0000       0.075466         2.0535 
  64   0.0000       0.075467         2.0536 
  65   0.0000       0.090835         2.4718 
  66   0.0000       0.090835         2.4718 
  67   0.0000       0.104843         2.8529 
  68   0.0000       0.110815         3.0154 
  69   0.0000       0.110815         3.0154 
  70   0.0000       0.144786         3.9398 
  71   0.0000       0.162573         4.4238 
  72   0.0000       0.162573         4.4238 
  73   0.0000       0.175755         4.7825 
  74   0.0000       0.219861         5.9827 
  75   0.0000       0.219861         5.9827 
  76   0.0000       0.256090         6.9686 
  77   0.0000       0.334831         9.1112 
  78   0.0000       0.334831         9.1112 
  79   0.0000       0.379435        10.3250 
  80   0.0000       0.438759        11.9392 
  81   0.0000       0.506186        13.7740 
  82   0.0000       0.557075        15.1588 
  83   0.0000       0.557075        15.1588 
  84   0.0000       0.578939        15.7537 
  85   0.0000       0.578939        15.7537 
  86   0.0000       0.642658        17.4876 
  87   0.0000       0.642658        17.4876 
  88   0.0000       0.658182        17.9100 
  89   0.0000       0.759891        20.6777 
  90   0.0000       0.759894        20.6778 
  91   0.0000       0.787923        21.4405 
  92   0.0000       0.787923        21.4405 
  93   0.0000       0.794022        21.6064 
  94   0.0000       0.794025        21.6065 
  95   0.0000       0.796737        21.6803 
  96   0.0000       0.853231        23.2176 
  97   0.0000       0.856316        23.3015 
  98   0.0000       0.856316        23.3015 
  99   0.0000       0.874030        23.7836 
 100   0.0000       0.874034        23.7837 
 101   0.0000       1.065147        28.9841 
 102   0.0000       1.065147        28.9841 
 103   0.0000       1.091498        29.7012 
 104   0.0000       1.386002        37.7150 
 105   0.0000       2.962656        80.6180 
 106   0.0000       2.962656        80.6180 
 107   0.0000       2.963687        80.6460 
 108   0.0000       3.049095        82.9701 
 109   0.0000       3.049095        82.9701 
 110   0.0000       3.061042        83.2952 
 111   0.0000       3.092930        84.1629 
 112   0.0000       3.092930        84.1629 
 113   0.0000       3.100217        84.3612 
 114   0.0000       3.200061        87.0781 
 115   0.0000       3.347693        91.0953 
 116   0.0000       3.347702        91.0956 
 117   0.0000       3.376737        91.8857 
 118   0.0000       3.376737        91.8857 
 119   0.0000       3.378893        91.9443 
 120   0.0000       3.378899        91.9445 
 121   0.0000       3.380151        91.9786 
 122   0.0000       3.380157        91.9788 
 123   0.0000       3.381310        92.0101 
 124   0.0000       3.381310        92.0101 
 125   0.0000       3.381310        92.0101 
 126   0.0000       3.381310        92.0101 
 127   0.0000       3.382559        92.0441 
 128   0.0000       3.382559        92.0441 
 129   0.0000       3.429389        93.3184 
 130   0.0000       3.429398        93.3187 
 131   0.0000       3.431543        93.3770 
 132   0.0000       3.431543        93.3770 
 133   0.0000       3.437304        93.5338 
 134   0.0000       3.437304        93.5338 
 135   0.0000       3.459713        94.1436 
 136   0.0000       3.586367        97.5900 
 137   0.0000       3.675275       100.0093 
 138   0.0000       3.675315       100.0104 
 139   0.0000       3.690409       100.4211 
 140   0.0000       3.690448       100.4222 
 141   0.0000       3.728576       101.4597 
 142   0.0000       3.728576       101.4597 
 143   0.0000       3.740533       101.7851 
 144   0.0000       3.760575       102.3304 
 145   0.0000       3.760621       102.3317 
 146   0.0000       3.784936       102.9933 
 147   0.0000       3.784936       102.9933 
 148   0.0000       3.901860       106.1750 
 149   0.0000       3.901860       106.1750 
 150   0.0000       4.012439       109.1840 
 151   0.0000       4.072563       110.8201 
 152   0.0000       4.433384       120.6385 
 153   0.0000      13.093789       356.3001 
 154   0.0000      13.093789       356.3001 
 155   0.0000      13.094143       356.3097 
 156   0.0000      13.094184       356.3109 
 157   0.0000      13.094418       356.3172 
 158   0.0000      13.094418       356.3172 
 159   0.0000      13.094585       356.3218 
 160   0.0000      13.094626       356.3229 
 161   0.0000      13.094897       356.3303 
 162   0.0000      13.095297       356.3412 
 163   0.0000      13.095297       356.3412 
 164   0.0000      13.095307       356.3414 
 165   0.0000      13.095307       356.3414 
 166   0.0000      13.095407       356.3441 
 167   0.0000      13.096160       356.3646 
 168   0.0000      13.096160       356.3646 
 169   0.0000      13.096253       356.3672 
 170   0.0000      13.096253       356.3672 
 171   0.0000      13.137034       357.4769 
 172   0.0000      13.137034       357.4769 
 173   0.0000      13.137925       357.5011 
 174   0.0000      13.138624       357.5201 
 175   0.0000      13.139875       357.5542 
 176   0.0000      13.141166       357.5893 
 177   0.0000      13.141166       357.5893 
 178   0.0000      13.144577       357.6821 
 179   0.0000      13.144705       357.6856 
 180   0.0000      13.303041       361.9942 
 181   0.0000      13.303128       361.9965 
 182   0.0000      13.303898       362.0175 
 183   0.0000      13.303985       362.0198 
 184   0.0000      13.304011       362.0206 
 185   0.0000      13.304011       362.0206 
 186   0.0000      13.304012       362.0206 
 187   0.0000      13.304012       362.0206 
 188   0.0000      13.304224       362.0263 
 189   0.0000      13.304224       362.0263 
 190   0.0000      13.316042       362.3479 
 191   0.0000      13.316042       362.3479 
 192   0.0000      13.318595       362.4174 
 193   0.0000      13.343650       363.0992 
 194   0.0000      13.343766       363.1023 
 195   0.0000      13.345875       363.1597 
 196   0.0000      13.345875       363.1597 
 197   0.0000      13.355056       363.4096 
 198   0.0000      13.355056       363.4096 
 199   0.0000      13.382974       364.1692 
 200   0.0000      13.435374       365.5951 

                    ********************************
                    * MULLIKEN POPULATION ANALYSIS *
                    ********************************

-----------------------
MULLIKEN ATOMIC CHARGES
-----------------------
   0 Cu:   -0.259639
   1 Cu:    0.629825
   2 Cu:    0.629814
Sum of atomic charges:    1.0000000

--------------------------------
MULLIKEN REDUCED ORBITAL CHARGES
--------------------------------
  0 Cus       :     7.293834  s :     7.293834
      pz      :     3.992150  p :    12.007533
      px      :     4.007692
      py      :     4.007692
      dz2     :     1.985003  d :     9.958100
      dxz     :     1.986599
      dyz     :     1.986599
      dx2y2   :     1.999950
      dxy     :     1.999950
      f0      :     0.000069  f :     0.000171
      f+1     :     0.000046
      f-1     :     0.000046
      f+2     :     0.000005
      f-2     :     0.000005
      f+3     :     0.000000
      f-3     :     0.000000
      g0      :     0.000000  g :     0.000001
      g+1     :     0.000000
      g-1     :     0.000000
      g+2     :     0.000000
      g-2     :     0.000000
      g+3     :     0.000000
      g-3     :     0.000000
      g+4     :     0.000000
      g-4     :     0.000000
  1 Cus       :     6.357798  s :     6.357798
      pz      :     4.020440  p :    12.032450
      px      :     4.006005
      py      :     4.006005
      dz2     :     1.986188  d :     9.979815
      dxz     :     1.996797
      dyz     :     1.996797
      dx2y2   :     2.000017
      dxy     :     2.000017
      f0      :     0.000041  f :     0.000112
      f+1     :     0.000030
      f-1     :     0.000030
      f+2     :     0.000005
      f-2     :     0.000005
      f+3     :     0.000000
      f-3     :     0.000000
      g0      :     0.000000  g :     0.000000
      g+1     :     0.000000
      g-1     :     0.000000
      g+2     :     0.000000
      g-2     :     0.000000
      g+3     :     0.000000
      g-3     :     0.000000
      g+4     :     0.000000
      g-4     :     0.000000
  2 Cus       :     6.357806  s :     6.357806
      pz      :     4.020443  p :    12.032452
      px      :     4.006005
      py      :     4.006005
      dz2     :     1.986188  d :     9.979815
      dxz     :     1.996797
      dyz     :     1.996797
      dx2y2   :     2.000017
      dxy     :     2.000017
      f0      :     0.000041  f :     0.000112
      f+1     :     0.000030
      f-1     :     0.000030
      f+2     :     0.000005
      f-2     :     0.000005
      f+3     :     0.000000
      f-3     :     0.000000
      g0      :     0.000000  g :     0.000000
      g+1     :     0.000000
      g-1     :     0.000000
      g+2     :     0.000000
      g-2     :     0.000000
      g+3     :     0.000000
      g-3     :     0.000000
      g+4     :     0.000000
      g-4     :     0.000000


                     *******************************
                     * LOEWDIN POPULATION ANALYSIS *
                     *******************************

----------------------
LOEWDIN ATOMIC CHARGES
----------------------
   0 Cu:    0.154601
   1 Cu:    0.422700
   2 Cu:    0.422699

-------------------------------
LOEWDIN REDUCED ORBITAL CHARGES
-------------------------------
  0 Cus       :     6.758689  s :     6.758689
      pz      :     4.031662  p :    12.046679
      px      :     4.007509
      py      :     4.007509
      dz2     :     2.066373  d :    10.039572
      dxz     :     1.986958
      dyz     :     1.986958
      dx2y2   :     1.999642
      dxy     :     1.999642
      f0      :     0.000230  f :     0.000457
      f+1     :     0.000107
      f-1     :     0.000107
      f+2     :     0.000006
      f-2     :     0.000006
      f+3     :     0.000000
      f-3     :     0.000000
      g0      :     0.000001  g :     0.000002
      g+1     :     0.000001
      g-1     :     0.000001
      g+2     :     0.000000
      g-2     :     0.000000
      g+3     :     0.000000
      g-3     :     0.000000
      g+4     :     0.000000
      g-4     :     0.000000
  1 Cus       :     6.390190  s :     6.390190
      pz      :     4.149664  p :    12.162056
      px      :     4.006196
      py      :     4.006196
      dz2     :     2.031533  d :    10.024774
      dxz     :     1.996451
      dyz     :     1.996451
      dx2y2   :     2.000169
      dxy     :     2.000169
      f0      :     0.000135  f :     0.000280
      f+1     :     0.000066
      f-1     :     0.000066
      f+2     :     0.000007
      f-2     :     0.000006
      f+3     :     0.000000
      f-3     :     0.000000
      g0      :     0.000000  g :     0.000001
      g+1     :     0.000000
      g-1     :     0.000000
      g+2     :     0.000000
      g-2     :     0.000000
      g+3     :     0.000000
      g-3     :     0.000000
      g+4     :     0.000000
      g-4     :     0.000000
  2 Cus       :     6.390190  s :     6.390190
      pz      :     4.149664  p :    12.162056
      px      :     4.006196
      py      :     4.006196
      dz2     :     2.031533  d :    10.024774
      dxz     :     1.996451
      dyz     :     1.996451
      dx2y2   :     2.000169
      dxy     :     2.000169
      f0      :     0.000135  f :     0.000280
      f+1     :     0.000066
      f-1     :     0.000066
      f+2     :     0.000007
      f-2     :     0.000006
      f+3     :     0.000000
      f-3     :     0.000000
      g0      :     0.000000  g :     0.000001
      g+1     :     0.000000
      g-1     :     0.000000
      g+2     :     0.000000
      g-2     :     0.000000
      g+3     :     0.000000
      g-3     :     0.000000
      g+4     :     0.000000
      g-4     :     0.000000


                      *****************************
                      * MAYER POPULATION ANALYSIS *
                      *****************************

  NA   - Mulliken gross atomic population
  ZA   - Total nuclear charge
  QA   - Mulliken gross atomic charge
  VA   - Mayer's total valence
  BVA  - Mayer's bonded valence
  FA   - Mayer's free valence

  ATOM       NA         ZA         QA         VA         BVA        FA
  0 Cu    29.2596    29.0000    -0.2596     0.9791     0.9791    -0.0000
  1 Cu    28.3702    29.0000     0.6298     0.6535     0.6535     0.0000
  2 Cu    28.3702    29.0000     0.6298     0.6535     0.6535    -0.0000

  Mayer bond orders larger than 0.100000
B(  0-Cu,  1-Cu) :   0.4895 B(  0-Cu,  2-Cu) :   0.4896 B(  1-Cu,  2-Cu) :   0.1639 


-------
TIMINGS
-------

Total SCF time: 0 days 0 hours 0 min 6 sec 

Total time                  ....       6.653 sec
Sum of individual times     ....       6.505 sec  ( 97.8%)

Fock matrix formation       ....       5.906 sec  ( 88.8%)
  XC integration            ....       0.504 sec  (  8.5% of F)
    Basis function eval.    ....       0.064 sec  ( 12.7% of XC)
    Density eval.           ....       0.041 sec  (  8.1% of XC)
    XC-Functional eval.     ....       0.016 sec  (  3.2% of XC)
    XC-Potential eval.      ....       0.066 sec  ( 13.0% of XC)
Diagonalization             ....       0.100 sec  (  1.5%)
Density matrix formation    ....       0.014 sec  (  0.2%)
Population analysis         ....       0.006 sec  (  0.1%)
Initial guess               ....       0.125 sec  (  1.9%)
Orbital Transformation      ....       0.000 sec  (  0.0%)
Orbital Orthonormalization  ....       0.000 sec  (  0.0%)
DIIS solution               ....       0.049 sec  (  0.7%)
Grid generation             ....       0.304 sec  (  4.6%)


           ************************************************************
           *        Program running with 24 parallel MPI-processes    *
           *              working on a common directory               *
           ************************************************************

------------------------------------------------------------------------------
                                ORCA  MP2 
------------------------------------------------------------------------------

Freezing NCore=30 chemical core electrons

----------------------
RI-MP2 ENERGY+GRADIENT
----------------------
Dimension of the basis                    ...  201
Memory devoted to MP2                     ... 5000 MB   
Data format for buffers                   ... DOUBLE
Compression type for matrix containers    ... UNCOMPRESSED
Overall scaling of the MP2 energy         ...   2.700e-01
Calculating two index integrals           ... done (    0.015 sec)
Cholesky decomposition of the V-matrix    ... done
Cholesky decomposition of V**-1           ... done (    0.028 sec)

-----------------
RI-TRANSFORMATION (AUX index driven)
-----------------

Dimension of the orbital-basis         ... 201
Dimension of the aux-basis             ... 675
Transformation of internal MOs         ...    0-  42
Transformation of internal/external MOs...    0-  42 to   43- 200
Number Format for Storage              ... Double (8 Byte)
Integral mode                          ... Direct

First Phase: integral generation and transformation of MO indices
  Aux angular momentum 0               ... done (    0.002 sec)
  Aux angular momentum 1               ... done (    0.004 sec)
  Aux angular momentum 2               ... done (    0.006 sec)
  Aux angular momentum 3               ... done (    0.005 sec)
  Aux angular momentum 4               ... done (    0.006 sec)
  Aux angular momentum 5               ... done (    0.010 sec)
  Aux angular momentum 6               ... done (    0.014 sec)
Closing buffer VIJ ( 0.00 GB; CompressionRatio= 1.00)
Closing buffer VIA ( 0.03 GB; CompressionRatio= 1.00)
  Phase 1 completed in     0.138 sec
Second Phase: sorting and transformation of aux index

IJ-Transformation
Memory available                       ... 4989 MB 
Max. # MO pairs treated in a batch     ... 2    
# of internal orbitals                 ... 43
# batches for internal orbitals        ... 1
Closing buffer IJV ( 0.00 GB; CompressionRatio= 1.00)
(ij|v) transformation done in     0.006 sec

IA-Transformation
Memory available                       ... 4989 MB 
Max. # MO pairs treated in a batch     ... 2    
# of internal orbitals                 ... 43
# batches for internal orbitals        ... 1
Closing buffer IAV ( 0.00 GB; CompressionRatio= 1.00)
(ia|v) transformation done in     0.021 sec

  Phase 2 completed in     0.073 sec
RI-Integral transformation completed in     0.213 sec
Opening buffers                              ... done
Frozen core precalculation                   ... done

Starting loop over batches of integrals:

Operator 0  - window                       ... ( 15- 42)x( 43-200)
Operator 0  - Memory available             ...  5000 MB
Operator 0  - Memory needed per MO         ...   1.6 MB
Operator 0  - Number of orbitals per batch ... 2
Operator 0  - Number of batches            ... 1

OPERATOR  0   PASS   0:  MOs    15 ...   16 +   17 ...   18 +   19 ...   20 +   21 ...   22
                            +   23 ...   24 +   25 ...   26 +   27 ...   28 +   29 ...   30
                            +   31 ...   32 +   33 ...   34 +   35 ...   36 +   37 ...   38
                            +   39 ...   40 +   41 ...   42
  Reading integrals       ... ok
Closing buffer GIPV ( 0.00 GB; CompressionRatio= 1.00)
Time spent in pair loops =     0.607 sec
Deleting buffer (Ka|jb)[aa] ...done

-----------------------------------------------
 RI-MP2 CORRELATION ENERGY:     -0.801741544 Eh
-----------------------------------------------


---------------------
MP2 DENSITY FORMATION
---------------------

Completing the external part of the density      ... done
Storing the unrelaxed density                    ... done

Calculating the xc-kernel                        ... done
Calculating G(D)                                 ... done
Completing the Lagrangian                        ... done
Solving the Z-vector equations                   ... 

------------------------------------------------------------------------------
                           ORCA CP-SCF CALCULATION
------------------------------------------------------------------------------

Input orbitals are from        ... Cu03C1_LIN.gbw
Input Perturbation             ... Cu03C1_LIN.pin.tmp
Wavefunction output            ... Cu03C1_LIN.pout.tmp
Perturbation mode              ... Real perturbation (singlet)
Solver                         ... POPLE
Max. number of iterations      ... 128
Convergence tolerance          ... 1.000e-08
Integral handling              ... Direct
Number of perturbations        ... 1
Number of operators            ... 1
Orbital ranges used for CP-SCF:
 Operator 0:  Orbitals   0... 42  to  43...200
DFT calculation                         ... on
Exchange functional (SCF)               ... B88
Exchange functional (CP-SCF)            ... B88
   X-Alpha parameter    XAlpha (SCF)    ...  0.666667
   X-Alpha parameter    XAlpha (CP-SCF) ...  0.666667
   Becke's b parameter  XBeta (SCF)     ...  0.004200
   Becke's b parameter  XBeta (CP-SCF)  ...  0.004200
Correlation functional (SCF)            ... LYP
Correlation functional (CP-SCF)         ... LYP
 LDA part of GGA corr.  LDAOpt (SCF)    ... VWN-3
 LDA part of GGA corr.  LDAOpt (CP-SCF) ... VWN-3
Hybrid DFT                              ... on
   Exchange mixing (SCF)                ...  0.530
   Exchange mixing (CP-SCF)             ...  0.530
   GGA exch. scaling(SCF)               ...  0.470
   GGA exch. scaling (CP-SCF)           ...  0.470
   GGA corr. scaling (SCF)              ...  0.730
   GGA corr. scaling (CP-SCF)           ...  0.730
Variables per vector in CP-SCF ... 6794
Number of vectors sought       ... 1
Recalculating density on grid  ... done
Calculating the xc-kernel      ... done
     CP-SCF ITERATION   0: 
     CP-SCF ITERATION   1:      0.001896158479
     CP-SCF ITERATION   2:      0.000524351292
     CP-SCF ITERATION   3:      0.000046435944
     CP-SCF ITERATION   4:      0.000003153881
     CP-SCF ITERATION   5:      0.000000168101
     CP-SCF ITERATION   6:      0.000000015058
     CP-SCF ITERATION   7:      0.000000001368
done
Finalizing the relaxed density                   ... done
Transforming P to the AO basis                   ... done
Storing the relaxed density                      ... done

------------------------------------
ENERGY WEIGHTED DENSITY FINALIZATION
------------------------------------

Gathering the parts of the W-matrix              ... done
Forming the Z-density                            ... done
Transforming Z to the AO basis                   ... done
Calculating G(Z)                                 ... done
Finalizing the W-matrix                          ... done
Transforming W to the AO basis and storing       ... done
Entering the RIJONX and RIJCOSX sections
Starting the three-index derivative integrals:
Operator 0  - Memory available             ...  5000 MB
Operator 0  - Memory needed per MO         ...   2.1 MB
Operator 0  - Number of orbitals per batch ... 2
Operator 0  - Number of batches            ... 1

OPERATOR  0   PASS   0:  MOs    15 ...   16 +   17 ...   18 +   19 ...   20 +   21 ...   22
                            +   23 ...   24 +   25 ...   26 +   27 ...   28 +   29 ...   30
                            +   31 ...   32 +   33 ...   34 +   35 ...   36 +   37 ...   38
                            +   39 ...   40 +   41 ...   42

----------------------------------
MP2 DERIVATIVE INTEGRAL GENERATION
----------------------------------


Input Correlated Electron Density   ... Cu03C1_LIN.pmp2re
Input Energy Weighted Density       ... Cu03C1_LIN.wmp2.tmp
Input SCF Electron Density          ... Cu03C1_LIN.scfp

One-Electron Terms    ...
                        ... One-Electron Terms done
Prescreening matrices              ... done
Exchange-correlation gradient    ... done
Dispersion correction            ... done

                *********************************************
                * UNRELAXED MP2 DENSITY POPULATION ANALYSIS *
                *********************************************

------------------------------------------------------------------------------
                           ORCA POPULATION ANALYSIS
------------------------------------------------------------------------------
Input electron density              ... Cu03C1_LIN.pmp2ur
BaseName (.gbw .S,...)              ... Cu03C1_LIN

                    ********************************
                    * MULLIKEN POPULATION ANALYSIS *
                    ********************************

-----------------------
MULLIKEN ATOMIC CHARGES
-----------------------
   0 Cu:   -0.231492
   1 Cu:    0.615752
   2 Cu:    0.615741
Sum of atomic charges:    1.0000000

--------------------------------
MULLIKEN REDUCED ORBITAL CHARGES
--------------------------------
  0 Cus       :     7.260782  s :     7.260782
      pz      :     3.995220  p :    12.022289
      px      :     4.013535
      py      :     4.013535
      dz2     :     1.977640  d :     9.936354
      dxz     :     1.982511
      dyz     :     1.982511
      dx2y2   :     1.996846
      dxy     :     1.996846
      f0      :     0.001685  f :     0.011222
      f+1     :     0.001649
      f-1     :     0.001649
      f+2     :     0.001575
      f-2     :     0.001575
      f+3     :     0.001544
      f-3     :     0.001544
      g0      :     0.000094  g :     0.000846
      g+1     :     0.000094
      g-1     :     0.000094
      g+2     :     0.000094
      g-2     :     0.000094
      g+3     :     0.000094
      g-3     :     0.000094
      g+4     :     0.000094
      g-4     :     0.000094
  1 Cus       :     6.370080  s :     6.370080
      pz      :     4.022278  p :    12.039107
      px      :     4.008414
      py      :     4.008414
      dz2     :     1.981763  d :     9.963785
      dxz     :     1.993788
      dyz     :     1.993788
      dx2y2   :     1.997223
      dxy     :     1.997223
      f0      :     0.001525  f :     0.010436
      f+1     :     0.001512
      f-1     :     0.001512
      f+2     :     0.001478
      f-2     :     0.001478
      f+3     :     0.001465
      f-3     :     0.001465
      g0      :     0.000094  g :     0.000841
      g+1     :     0.000094
      g-1     :     0.000094
      g+2     :     0.000093
      g-2     :     0.000093
      g+3     :     0.000093
      g-3     :     0.000093
      g+4     :     0.000093
      g-4     :     0.000093
  2 Cus       :     6.370088  s :     6.370088
      pz      :     4.022281  p :    12.039109
      px      :     4.008414
      py      :     4.008414
      dz2     :     1.981763  d :     9.963785
      dxz     :     1.993788
      dyz     :     1.993788
      dx2y2   :     1.997223
      dxy     :     1.997223
      f0      :     0.001525  f :     0.010436
      f+1     :     0.001512
      f-1     :     0.001512
      f+2     :     0.001478
      f-2     :     0.001478
      f+3     :     0.001465
      f-3     :     0.001465
      g0      :     0.000094  g :     0.000841
      g+1     :     0.000094
      g-1     :     0.000094
      g+2     :     0.000093
      g-2     :     0.000093
      g+3     :     0.000093
      g-3     :     0.000093
      g+4     :     0.000093
      g-4     :     0.000093


                     *******************************
                     * LOEWDIN POPULATION ANALYSIS *
                     *******************************

----------------------
LOEWDIN ATOMIC CHARGES
----------------------
   0 Cu:    0.153251
   1 Cu:    0.423375
   2 Cu:    0.423375

-------------------------------
LOEWDIN REDUCED ORBITAL CHARGES
-------------------------------
  0 Cus       :     6.737626  s :     6.737626
      pz      :     4.053168  p :    12.079401
      px      :     4.013116
      py      :     4.013116
      dz2     :     2.059884  d :    10.017308
      dxz     :     1.982228
      dyz     :     1.982228
      dx2y2   :     1.996484
      dxy     :     1.996484
      f0      :     0.001896  f :     0.011568
      f+1     :     0.001715
      f-1     :     0.001715
      f+2     :     0.001576
      f-2     :     0.001576
      f+3     :     0.001544
      f-3     :     0.001544
      g0      :     0.000095  g :     0.000847
      g+1     :     0.000095
      g-1     :     0.000095
      g+2     :     0.000094
      g-2     :     0.000094
      g+3     :     0.000094
      g-3     :     0.000094
      g+4     :     0.000094
      g-4     :     0.000094
  1 Cus       :     6.389510  s :     6.389510
      pz      :     4.148672  p :    12.166374
      px      :     4.008851
      py      :     4.008851
      dz2     :     2.027206  d :    10.009267
      dxz     :     1.993629
      dyz     :     1.993629
      dx2y2   :     1.997402
      dxy     :     1.997402
      f0      :     0.001641  f :     0.010633
      f+1     :     0.001552
      f-1     :     0.001552
      f+2     :     0.001479
      f-2     :     0.001479
      f+3     :     0.001465
      f-3     :     0.001465
      g0      :     0.000094  g :     0.000841
      g+1     :     0.000094
      g-1     :     0.000094
      g+2     :     0.000093
      g-2     :     0.000093
      g+3     :     0.000093
      g-3     :     0.000093
      g+4     :     0.000093
      g-4     :     0.000093
  2 Cus       :     6.389510  s :     6.389510
      pz      :     4.148672  p :    12.166374
      px      :     4.008851
      py      :     4.008851
      dz2     :     2.027206  d :    10.009267
      dxz     :     1.993629
      dyz     :     1.993629
      dx2y2   :     1.997402
      dxy     :     1.997402
      f0      :     0.001641  f :     0.010633
      f+1     :     0.001552
      f-1     :     0.001552
      f+2     :     0.001479
      f-2     :     0.001479
      f+3     :     0.001465
      f-3     :     0.001465
      g0      :     0.000094  g :     0.000841
      g+1     :     0.000094
      g-1     :     0.000094
      g+2     :     0.000093
      g-2     :     0.000093
      g+3     :     0.000093
      g-3     :     0.000093
      g+4     :     0.000093
      g-4     :     0.000093


                      *****************************
                      * MAYER POPULATION ANALYSIS *
                      *****************************

  NA   - Mulliken gross atomic population
  ZA   - Total nuclear charge
  QA   - Mulliken gross atomic charge
  VA   - Mayer's total valence
  BVA  - Mayer's bonded valence
  FA   - Mayer's free valence

  ATOM       NA         ZA         QA         VA         BVA        FA
  0 Cu    29.2315    29.0000    -0.2315     1.4191     0.9075     0.5116
  1 Cu    28.3842    29.0000     0.6158     1.0303     0.5931     0.4371
  2 Cu    28.3843    29.0000     0.6157     1.0303     0.5931     0.4371

  Mayer bond orders larger than 0.100000
B(  0-Cu,  1-Cu) :   0.4537 B(  0-Cu,  2-Cu) :   0.4538 B(  1-Cu,  2-Cu) :   0.1394 



                *******************************************
                * RELAXED MP2 DENSITY POPULATION ANALYSIS *
                *******************************************

------------------------------------------------------------------------------
                           ORCA POPULATION ANALYSIS
------------------------------------------------------------------------------
Input electron density              ... Cu03C1_LIN.pmp2re
BaseName (.gbw .S,...)              ... Cu03C1_LIN

                    ********************************
                    * MULLIKEN POPULATION ANALYSIS *
                    ********************************

-----------------------
MULLIKEN ATOMIC CHARGES
-----------------------
   0 Cu:   -0.320707
   1 Cu:    0.660359
   2 Cu:    0.660349
Sum of atomic charges:    1.0000000

--------------------------------
MULLIKEN REDUCED ORBITAL CHARGES
--------------------------------
  0 Cus       :     7.355694  s :     7.355694
      pz      :     3.994579  p :    12.027830
      px      :     4.016626
      py      :     4.016626
      dz2     :     1.975620  d :     9.925084
      dxz     :     1.977958
      dyz     :     1.977958
      dx2y2   :     1.996774
      dxy     :     1.996775
      f0      :     0.001697  f :     0.011254
      f+1     :     0.001658
      f-1     :     0.001658
      f+2     :     0.001576
      f-2     :     0.001576
      f+3     :     0.001544
      f-3     :     0.001544
      g0      :     0.000094  g :     0.000846
      g+1     :     0.000094
      g-1     :     0.000094
      g+2     :     0.000094
      g-2     :     0.000094
      g+3     :     0.000094
      g-3     :     0.000094
      g+4     :     0.000094
      g-4     :     0.000094
  1 Cus       :     6.349611  s :     6.349611
      pz      :     4.004687  p :    12.026585
      px      :     4.010949
      py      :     4.010949
      dz2     :     1.973689  d :     9.952154
      dxz     :     1.991975
      dyz     :     1.991975
      dx2y2   :     1.997257
      dxy     :     1.997257
      f0      :     0.001529  f :     0.010450
      f+1     :     0.001517
      f-1     :     0.001517
      f+2     :     0.001479
      f-2     :     0.001479
      f+3     :     0.001465
      f-3     :     0.001465
      g0      :     0.000094  g :     0.000841
      g+1     :     0.000094
      g-1     :     0.000094
      g+2     :     0.000093
      g-2     :     0.000093
      g+3     :     0.000093
      g-3     :     0.000093
      g+4     :     0.000093
      g-4     :     0.000093
  2 Cus       :     6.349619  s :     6.349619
      pz      :     4.004689  p :    12.026587
      px      :     4.010949
      py      :     4.010949
      dz2     :     1.973689  d :     9.952154
      dxz     :     1.991975
      dyz     :     1.991975
      dx2y2   :     1.997257
      dxy     :     1.997257
      f0      :     0.001529  f :     0.010450
      f+1     :     0.001517
      f-1     :     0.001517
      f+2     :     0.001479
      f-2     :     0.001479
      f+3     :     0.001465
      f-3     :     0.001465
      g0      :     0.000094  g :     0.000841
      g+1     :     0.000094
      g-1     :     0.000094
      g+2     :     0.000093
      g-2     :     0.000093
      g+3     :     0.000093
      g-3     :     0.000093
      g+4     :     0.000093
      g-4     :     0.000093


                     *******************************
                     * LOEWDIN POPULATION ANALYSIS *
                     *******************************

----------------------
LOEWDIN ATOMIC CHARGES
----------------------
   0 Cu:    0.145492
   1 Cu:    0.427254
   2 Cu:    0.427254

-------------------------------
LOEWDIN REDUCED ORBITAL CHARGES
-------------------------------
  0 Cus       :     6.733275  s :     6.733275
      pz      :     4.060125  p :    12.093364
      px      :     4.016619
      py      :     4.016619
      dz2     :     2.070115  d :    10.015404
      dxz     :     1.976312
      dyz     :     1.976312
      dx2y2   :     1.996333
      dxy     :     1.996333
      f0      :     0.001920  f :     0.011618
      f+1     :     0.001727
      f-1     :     0.001727
      f+2     :     0.001578
      f-2     :     0.001578
      f+3     :     0.001544
      f-3     :     0.001544
      g0      :     0.000095  g :     0.000847
      g+1     :     0.000095
      g-1     :     0.000095
      g+2     :     0.000094
      g-2     :     0.000094
      g+3     :     0.000094
      g-3     :     0.000094
      g+4     :     0.000094
      g-4     :     0.000094
  1 Cus       :     6.389379  s :     6.389379
      pz      :     4.145024  p :    12.168895
      px      :     4.011936
      py      :     4.011936
      dz2     :     2.024554  d :    10.002983
      dxz     :     1.991739
      dyz     :     1.991739
      dx2y2   :     1.997476
      dxy     :     1.997476
      f0      :     0.001641  f :     0.010647
      f+1     :     0.001558
      f-1     :     0.001558
      f+2     :     0.001480
      f-2     :     0.001480
      f+3     :     0.001465
      f-3     :     0.001465
      g0      :     0.000094  g :     0.000841
      g+1     :     0.000094
      g-1     :     0.000094
      g+2     :     0.000093
      g-2     :     0.000093
      g+3     :     0.000093
      g-3     :     0.000093
      g+4     :     0.000093
      g-4     :     0.000093
  2 Cus       :     6.389379  s :     6.389379
      pz      :     4.145024  p :    12.168895
      px      :     4.011936
      py      :     4.011936
      dz2     :     2.024554  d :    10.002983
      dxz     :     1.991739
      dyz     :     1.991739
      dx2y2   :     1.997476
      dxy     :     1.997476
      f0      :     0.001641  f :     0.010647
      f+1     :     0.001558
      f-1     :     0.001558
      f+2     :     0.001480
      f-2     :     0.001480
      f+3     :     0.001465
      f-3     :     0.001465
      g0      :     0.000094  g :     0.000841
      g+1     :     0.000094
      g-1     :     0.000094
      g+2     :     0.000093
      g-2     :     0.000093
      g+3     :     0.000093
      g-3     :     0.000093
      g+4     :     0.000093
      g-4     :     0.000093


                      *****************************
                      * MAYER POPULATION ANALYSIS *
                      *****************************

  NA   - Mulliken gross atomic population
  ZA   - Total nuclear charge
  QA   - Mulliken gross atomic charge
  VA   - Mayer's total valence
  BVA  - Mayer's bonded valence
  FA   - Mayer's free valence

  ATOM       NA         ZA         QA         VA         BVA        FA
  0 Cu    29.3207    29.0000    -0.3207     1.3710     0.8753     0.4957
  1 Cu    28.3396    29.0000     0.6604     0.9934     0.5742     0.4192
  2 Cu    28.3397    29.0000     0.6603     0.9935     0.5742     0.4192

  Mayer bond orders larger than 0.100000
B(  0-Cu,  1-Cu) :   0.4377 B(  0-Cu,  2-Cu) :   0.4377 B(  1-Cu,  2-Cu) :   0.1366 



-------
TIMINGS
-------

Total time                :   17.440 sec
Integral trafo            :    0.221 sec (  1.3%)
FC preparation            :    0.034 sec (  0.2%)
I/O of integrals          :    0.004 sec (  0.0%)
K(i,j) Operators          :    0.038 sec (  0.2%)
T(i,j) pair energies      :    0.007 sec (  0.0%)
V-calculation             :    0.015 sec (  0.1%)
V**(-1/2)                 :    0.028 sec (  0.2%)
Gamma(ia|P)               :    0.027 sec (  0.2%)
Gamma-Trafo               :    0.013 sec (  0.1%)
D(virtual)                :    0.001 sec (  0.0%)
D(internal)               :    0.068 sec (  0.4%)
W(virtual)                :    0.001 sec (  0.0%)
W(internal)               :    0.055 sec (  0.3%)
L(virtual)                :    0.317 sec (  1.8%)
L(internal)               :    0.004 sec (  0.0%)
G(D)                      :    1.453 sec (  8.3%)
G(Z)                      :    1.364 sec (  7.8%)
Z-Vector Solution         :    7.725 sec ( 44.3%)
Z-Vector Solution         :    7.725 sec ( 44.3%)
3-Index Derivative 
+ Separable RIJ part      :    1.923 sec ( 11.0%)
2-Index Derivative 
+ Separable RIJ part      :    0.011 sec (  0.1%)
Separable Gradient (X)    :    3.517 sec ( 20.2%)


---------------------------------------
MP2 TOTAL ENERGY:    -4920.788037257 Eh
---------------------------------------

-----------------------------------
NORM OF THE MP2 GRADIENT:  0.020715
-----------------------------------


-------------------------------------------------------------------------------
                          DFT DISPERSION CORRECTION                            
                                                                               
                              DFTD3 V3.1  Rev 1                                
                          USING Becke-Johnson damping                          
-------------------------------------------------------------------------------
The B2PLYP functional is recognized
Active option DFTDOPT                   ...         4   

molecular C6(AA) [au] = 1599.926199 


            DFT-D V3
 parameters
 s6 scaling factor         :     0.6400 
 a1 scaling factor         :     0.3065 
 s8 scaling factor         :     0.9147 
 a2 scaling factor         :     5.0570 
 ad hoc parameters k1-k3   :    16.0000     1.3333    -4.0000 

 Edisp/kcal,au: -2.029039354200  -0.003233479687 
 E6   /kcal   :  -0.699276833 
 E8   /kcal   :  -1.329762521 
 % E8         :  65.536556419 

-------------------------   ----------------
Dispersion correction           -0.003233480
-------------------------   ----------------


-------------------------   --------------------
FINAL SINGLE POINT ENERGY     -4920.791270736682
-------------------------   --------------------

------------------------------------------------------------------------------
                         ORCA GEOMETRY RELAXATION STEP
------------------------------------------------------------------------------

Reading the OPT-File                    .... done
Getting information on internals        .... done
Copying old internal coords+grads       .... done
Making the new internal coordinates     .... (new redundants).... done
Validating the new internal coordinates .... (new redundants).... done
Calculating the B-matrix                .... done
Calculating the G,G- and P matrices     .... done
Transforming gradient to internals      .... done
Projecting the internal gradient        .... done
Number of atoms                         ....   3
Number of internal coordinates          ....   4
Current Energy                          .... -4920.791270737 Eh
Current gradient norm                   ....     0.020715224 Eh/bohr
Maximum allowed component of the step   ....  0.300
Current trust radius                    ....  0.300
Evaluating the initial hessian          ....  (Almloef) done
Projecting the Hessian                  .... done
Forming the augmented Hessian           .... done
Diagonalizing the augmented Hessian     .... done
Last element of RFO vector              ....  0.999944827
Lowest eigenvalues of augmented Hessian:
 -0.000217613  1.051601113  1.051601113  1.971727228
Length of the computed step             ....  0.010504971
The final length of the internal step   ....  0.010504971
Converting the step to cartesian space:
 Initial RMS(Int)=    0.0052524857
Transforming coordinates:
 Iter   0:  RMS(Cart)=    0.0035016571 RMS(Int)=    0.0052524857
 Iter   1:  RMS(Cart)=    0.0000000031 RMS(Int)=    0.0000000365
done
Storing new coordinates                 .... done

                                .--------------------.
          ----------------------|Geometry convergence|-------------------------
          Item                value                   Tolerance       Converged
          ---------------------------------------------------------------------
          RMS gradient        0.0103576121            0.0001000000      NO
          MAX gradient        0.0146478762            0.0003000000      NO
          RMS step            0.0052524857            0.0020000000      NO
          MAX step            0.0074281369            0.0040000000      NO
          ........................................................
          Max(Bonds)      0.0039      Max(Angles)    0.00
          Max(Dihed)        0.00      Max(Improp)    0.00
          ---------------------------------------------------------------------

The optimization has not yet converged - more geometry cycles are needed


    ---------------------------------------------------------------------------
                         Redundant Internal Coordinates
                            (Angstroem and degrees)

        Definition                    Value    dE/dq     Step     New-Value
    ----------------------------------------------------------------------------
     1. B(Cu  1,Cu  0)                2.3372 -0.014648  0.0039    2.3411   
     2. B(Cu  2,Cu  0)                2.3372 -0.014648  0.0039    2.3411   
     3. L(Cu  1,Cu  0,Cu  2, 2)       180.00 -0.000000    0.00    180.00   
     4. L(Cu  1,Cu  0,Cu  2, 1)       180.00  0.000000   -0.00    180.00   
    ----------------------------------------------------------------------------

         *************************************************************
         *                GEOMETRY OPTIMIZATION CYCLE   2            *
         *************************************************************
---------------------------------
CARTESIAN COORDINATES (ANGSTROEM)
---------------------------------
  Cu     0.000000    0.000000    0.000000
  Cu    -0.000000   -0.000000    2.341096
  Cu    -0.000000   -0.000000   -2.341096

----------------------------
CARTESIAN COORDINATES (A.U.)
----------------------------
  NO LB      ZA    FRAG     MASS         X           Y           Z
   0 Cu   29.0000    0    63.550    0.000000    0.000000    0.000000
   1 Cu   29.0000    0    63.550   -0.000000   -0.000000    4.424030
   2 Cu   29.0000    0    63.550   -0.000000   -0.000000   -4.424030

--------------------------------
INTERNAL COORDINATES (ANGSTROEM)
--------------------------------
 Cu     0   0   0     0.000000000000     0.00000000     0.00000000
 Cu     1   0   0     2.341095800375     0.00000000     0.00000000
 Cu     1   2   0     2.341095800747   179.99999852     0.00000000

---------------------------
INTERNAL COORDINATES (A.U.)
---------------------------
 Cu     0   0   0     0.000000000000     0.00000000     0.00000000
 Cu     1   0   0     4.424029915982     0.00000000     0.00000000
 Cu     1   2   0     4.424029916686   179.99999852     0.00000000



           ************************************************************
           *        Program running with 24 parallel MPI-processes    *
           *              working on a common directory               *
           ************************************************************
 One Electron integrals                  ... done
 Pre-screening matrix                    ... done


           ************************************************************
           *        Program running with 24 parallel MPI-processes    *
           *              working on a common directory               *
           ************************************************************

Diagonalization of the overlap matrix:
Smallest eigenvalue                        ... 3.572e-04
Time for diagonalization                   ...    0.009 sec
Threshold for overlap eigenvalues          ... 1.000e-08
Number of eigenvalues below threshold      ... 0
Time for construction of square roots      ...    0.005 sec
Total time needed                          ...    0.015 sec

-------------------
DFT GRID GENERATION
-------------------

General Integration Accuracy     IntAcc      ...  4.670
Radial Grid Type                 RadialGrid  ... Gauss-Chebyshev
Angular Grid (max. acc.)         AngularGrid ... Lebedev-302
Angular grid pruning method      GridPruning ... 3 (G Style)
Weight generation scheme         WeightScheme... Becke
Basis function cutoff            BFCut       ...    1.0000e-11
Integration weight cutoff        WCut        ...    1.0000e-14
Grids for H and He will be reduced by one unit

# of grid points (after initial pruning)     ...  28668 (   0.0 sec)
# of grid points (after weights+screening)   ...  28508 (   0.0 sec)
nearest neighbour list constructed           ...    0.0 sec
Grid point re-assignment to atoms done       ...    0.0 sec
Grid point division into batches done        ...    0.2 sec
Reduced shell lists constructed in    0.2 sec

Total number of grid points                  ...    28508
Total number of batches                      ...      447
Average number of points per batch           ...       63
Average number of grid points per atom       ...     9503
Average number of shells per batch           ...    19.10 (33.51%)
Average number of basis functions per batch  ...    56.10 (27.91%)
Average number of large shells per batch     ...    16.15 (84.55%)
Average number of large basis fcns per batch ...    46.85 (83.51%)
Average number of aux-shells per batch       ...    19.10 (10.98%)
Average number of aux functions per batch    ...    56.10 ( 7.08%)
Maximum spatial batch extension              ...  26.18, 26.18,  4.40 au
Average spatial batch extension              ...   0.42,  0.42,  0.18 au

Time for grid setup =    0.291 sec

--------------
SCF ITERATIONS
--------------
ITER       Energy         Delta-E        Max-DP      RMS-DP      [F,P]     Damp
  0  -4919.9864346034   0.000000000000 0.00026172  0.00000489  0.0026070 0.7000
  1  -4919.9866454490  -0.000210845657 0.00029280  0.00000490  0.0018268 0.7000
                               ***Turning on DIIS***
  2  -4919.9865600880   0.000085361062 0.00080310  0.00001289  0.0012788 0.0000
  3  -4919.9864354100   0.000124677971 0.00029202  0.00000275  0.0000568 0.0000
  4  -4919.9864354222  -0.000000012160 0.00007388  0.00000080  0.0000550 0.0000
  5  -4919.9864354271  -0.000000004939 0.00000951  0.00000024  0.0000385 0.0000
  6  -4919.9864354295  -0.000000002430 0.00002269  0.00000025  0.0000041 0.0000
  7  -4919.9864354296  -0.000000000075 0.00000363  0.00000005  0.0000053 0.0000
  8  -4919.9864354296  -0.000000000045 0.00000582  0.00000009  0.0000022 0.0000
                 **** Energy Check signals convergence ****

               *****************************************************
               *                     SUCCESS                       *
               *           SCF CONVERGED AFTER   9 CYCLES          *
               *****************************************************

Total Energy       :        -4919.98643543 Eh         -133879.63722 eV
  Last Energy change         ...    2.1828e-11  Tolerance :   1.0000e-08
  Last MAX-Density change    ...    6.7033e-06  Tolerance :   1.0000e-07
             **** THE GBW FILE WAS UPDATED (Cu03C1_LIN.gbw) ****
             **** DENSITY FILE WAS UPDATED (Cu03C1_LIN.scfp) ****
             **** ENERGY FILE WAS UPDATED (Cu03C1_LIN.en.tmp) ****
             **** THE GBW FILE WAS UPDATED (Cu03C1_LIN.gbw) ****
             **** DENSITY FILE WAS UPDATED (Cu03C1_LIN.scfp) ****
Total SCF time: 0 days 0 hours 0 min 4 sec 


           ************************************************************
           *        Program running with 24 parallel MPI-processes    *
           *              working on a common directory               *
           ************************************************************

------------------------------------------------------------------------------
                                ORCA  MP2 
------------------------------------------------------------------------------

Freezing NCore=30 chemical core electrons

----------------------
RI-MP2 ENERGY+GRADIENT
----------------------
Dimension of the basis                    ...  201
Memory devoted to MP2                     ... 5000 MB   
Data format for buffers                   ... DOUBLE
Compression type for matrix containers    ... UNCOMPRESSED
Overall scaling of the MP2 energy         ...   2.700e-01
Calculating two index integrals           ... done (    0.014 sec)
Cholesky decomposition of the V-matrix    ... done
Cholesky decomposition of V**-1           ... done (    0.018 sec)

-----------------
RI-TRANSFORMATION (AUX index driven)
-----------------

Dimension of the orbital-basis         ... 201
Dimension of the aux-basis             ... 675
Transformation of internal MOs         ...    0-  42
Transformation of internal/external MOs...    0-  42 to   43- 200
Number Format for Storage              ... Double (8 Byte)
Integral mode                          ... Direct

First Phase: integral generation and transformation of MO indices
  Aux angular momentum 0               ... done (    0.002 sec)
  Aux angular momentum 1               ... done (    0.004 sec)
  Aux angular momentum 2               ... done (    0.006 sec)
  Aux angular momentum 3               ... done (    0.005 sec)
  Aux angular momentum 4               ... done (    0.006 sec)
  Aux angular momentum 5               ... done (    0.010 sec)
  Aux angular momentum 6               ... done (    0.014 sec)
Closing buffer VIJ ( 0.00 GB; CompressionRatio= 1.00)
Closing buffer VIA ( 0.03 GB; CompressionRatio= 1.00)
  Phase 1 completed in     0.120 sec
Second Phase: sorting and transformation of aux index

IJ-Transformation
Memory available                       ... 4989 MB 
Max. # MO pairs treated in a batch     ... 2    
# of internal orbitals                 ... 43
# batches for internal orbitals        ... 1
Closing buffer IJV ( 0.00 GB; CompressionRatio= 1.00)
(ij|v) transformation done in     0.007 sec

IA-Transformation
Memory available                       ... 4989 MB 
Max. # MO pairs treated in a batch     ... 2    
# of internal orbitals                 ... 43
# batches for internal orbitals        ... 1
Closing buffer IAV ( 0.00 GB; CompressionRatio= 1.00)
(ia|v) transformation done in     0.021 sec

  Phase 2 completed in     0.080 sec
RI-Integral transformation completed in     0.202 sec
Opening buffers                              ... done
Frozen core precalculation                   ... done

Starting loop over batches of integrals:

Operator 0  - window                       ... ( 15- 42)x( 43-200)
Operator 0  - Memory available             ...  5000 MB
Operator 0  - Memory needed per MO         ...   1.6 MB
Operator 0  - Number of orbitals per batch ... 2
Operator 0  - Number of batches            ... 1

OPERATOR  0   PASS   0:  MOs    15 ...   16 +   17 ...   18 +   19 ...   20 +   21 ...   22
                            +   23 ...   24 +   25 ...   26 +   27 ...   28 +   29 ...   30
                            +   31 ...   32 +   33 ...   34 +   35 ...   36 +   37 ...   38
[...]
      f0      :     0.001496  f :     0.010333
      f+1     :     0.001491
      f-1     :     0.001491
      f+2     :     0.001469
      f-2     :     0.001469
      f+3     :     0.001459
      f-3     :     0.001459
      g0      :     0.000093  g :     0.000840
      g+1     :     0.000093
      g-1     :     0.000093
      g+2     :     0.000093
      g-2     :     0.000093
      g+3     :     0.000093
      g-3     :     0.000093
      g+4     :     0.000093
      g-4     :     0.000093
  2 Cus       :     6.394622  s :     6.394622
      pz      :     4.017975  p :    12.033554
      px      :     4.007789
      py      :     4.007789
      dz2     :     1.976695  d :     9.959299
      dxz     :     1.994000
      dyz     :     1.994000
      dx2y2   :     1.997302
      dxy     :     1.997302
      f0      :     0.001496  f :     0.010333
      f+1     :     0.001491
      f-1     :     0.001491
      f+2     :     0.001469
      f-2     :     0.001469
      f+3     :     0.001459
      f-3     :     0.001459
      g0      :     0.000093  g :     0.000840
      g+1     :     0.000093
      g-1     :     0.000093
      g+2     :     0.000093
      g-2     :     0.000093
      g+3     :     0.000093
      g-3     :     0.000093
      g+4     :     0.000093
      g-4     :     0.000093


                     *******************************
                     * LOEWDIN POPULATION ANALYSIS *
                     *******************************

----------------------
LOEWDIN ATOMIC CHARGES
----------------------
   0 Cu:    0.134724
   1 Cu:    0.432638
   2 Cu:    0.432638

-------------------------------
LOEWDIN REDUCED ORBITAL CHARGES
-------------------------------
  0 Cus       :     6.751689  s :     6.751689
      pz      :     4.051182  p :    12.075467
      px      :     4.012143
      py      :     4.012143
      dz2     :     2.068613  d :    10.026132
      dxz     :     1.982274
      dyz     :     1.982274
      dx2y2   :     1.996485
      dxy     :     1.996485
      f0      :     0.001729  f :     0.011144
      f+1     :     0.001624
      f-1     :     0.001624
      f+2     :     0.001553
      f-2     :     0.001553
      f+3     :     0.001530
      f-3     :     0.001530
      g0      :     0.000094  g :     0.000844
      g+1     :     0.000094
      g-1     :     0.000094
      g+2     :     0.000094
      g-2     :     0.000094
      g+3     :     0.000094
      g-3     :     0.000094
      g+4     :     0.000094
      g-4     :     0.000094
  1 Cus       :     6.400256  s :     6.400256
      pz      :     4.130623  p :    12.148040
      px      :     4.008709
      py      :     4.008709
      dz2     :     2.024653  d :    10.007800
      dxz     :     1.994131
      dyz     :     1.994131
      dx2y2   :     1.997443
      dxy     :     1.997443
      f0      :     0.001558  f :     0.010425
      f+1     :     0.001506
      f-1     :     0.001506
      f+2     :     0.001469
      f-2     :     0.001469
      f+3     :     0.001459
      f-3     :     0.001459
      g0      :     0.000094  g :     0.000840
      g+1     :     0.000093
      g-1     :     0.000093
      g+2     :     0.000093
      g-2     :     0.000093
      g+3     :     0.000093
      g-3     :     0.000093
      g+4     :     0.000093
      g-4     :     0.000093
  2 Cus       :     6.400256  s :     6.400256
      pz      :     4.130623  p :    12.148040
      px      :     4.008709
      py      :     4.008709
      dz2     :     2.024653  d :    10.007800
      dxz     :     1.994131
      dyz     :     1.994131
      dx2y2   :     1.997443
      dxy     :     1.997443
      f0      :     0.001558  f :     0.010425
      f+1     :     0.001506
      f-1     :     0.001506
      f+2     :     0.001469
      f-2     :     0.001469
      f+3     :     0.001459
      f-3     :     0.001459
      g0      :     0.000094  g :     0.000840
      g+1     :     0.000093
      g-1     :     0.000093
      g+2     :     0.000093
      g-2     :     0.000093
      g+3     :     0.000093
      g-3     :     0.000093
      g+4     :     0.000093
      g-4     :     0.000093


                      *****************************
                      * MAYER POPULATION ANALYSIS *
                      *****************************

  NA   - Mulliken gross atomic population
  ZA   - Total nuclear charge
  QA   - Mulliken gross atomic charge
  VA   - Mayer's total valence
  BVA  - Mayer's bonded valence
  FA   - Mayer's free valence

  ATOM       NA         ZA         QA         VA         BVA        FA
  0 Cu    29.2027    29.0000    -0.2027     1.4319     0.9262     0.5057
  1 Cu    28.3986    29.0000     0.6014     1.0468     0.6257     0.4211
  2 Cu    28.3986    29.0000     0.6014     1.0468     0.6257     0.4211

  Mayer bond orders larger than 0.100000
B(  0-Cu,  1-Cu) :   0.4631 B(  0-Cu,  2-Cu) :   0.4631 B(  1-Cu,  2-Cu) :   0.1626 



-------
TIMINGS
-------

Total time                :   15.923 sec
Integral trafo            :    0.207 sec (  1.3%)
FC preparation            :    0.034 sec (  0.2%)
I/O of integrals          :    0.004 sec (  0.0%)
K(i,j) Operators          :    0.038 sec (  0.2%)
T(i,j) pair energies      :    0.007 sec (  0.0%)
V-calculation             :    0.010 sec (  0.1%)
V**(-1/2)                 :    0.018 sec (  0.1%)
Gamma(ia|P)               :    0.027 sec (  0.2%)
Gamma-Trafo               :    0.013 sec (  0.1%)
D(virtual)                :    0.001 sec (  0.0%)
D(internal)               :    0.064 sec (  0.4%)
W(virtual)                :    0.001 sec (  0.0%)
W(internal)               :    0.055 sec (  0.3%)
L(virtual)                :    0.316 sec (  2.0%)
L(internal)               :    0.004 sec (  0.0%)
G(D)                      :    1.479 sec (  9.3%)
G(Z)                      :    1.409 sec (  8.9%)
Z-Vector Solution         :    6.524 sec ( 41.0%)
Z-Vector Solution         :    6.524 sec ( 41.0%)
3-Index Derivative 
+ Separable RIJ part      :    1.855 sec ( 11.7%)
2-Index Derivative 
+ Separable RIJ part      :    0.012 sec (  0.1%)
Separable Gradient (X)    :    3.174 sec ( 19.9%)


---------------------------------------
MP2 TOTAL ENERGY:    -4920.785601365 Eh
---------------------------------------

-----------------------------------
NORM OF THE MP2 GRADIENT:  0.000000
-----------------------------------


-------------------------------------------------------------------------------
                          DFT DISPERSION CORRECTION                            
                                                                               
                              DFTD3 V3.1  Rev 1                                
                          USING Becke-Johnson damping                          
-------------------------------------------------------------------------------
The B2PLYP functional is recognized
Active option DFTDOPT                   ...         4   

molecular C6(AA) [au] = 1663.094846 


            DFT-D V3
 parameters
 s6 scaling factor         :     0.6400 
 a1 scaling factor         :     0.3065 
 s8 scaling factor         :     0.9147 
 a2 scaling factor         :     5.0570 
 ad hoc parameters k1-k3   :    16.0000     1.3333    -4.0000 

 Edisp/kcal,au: -1.978233806657  -0.003152515902 
 E6   /kcal   :  -0.681234242 
 E8   /kcal   :  -1.296999564 
 % E8         :  65.563512256 

-------------------------   ----------------
Dispersion correction           -0.003152516
-------------------------   ----------------


-------------------------   --------------------
FINAL SINGLE POINT ENERGY     -4920.788753880476
-------------------------   --------------------

                                *** OPTIMIZATION RUN DONE ***

                            ***************************************
                            *     ORCA property calculations      *
                            ***************************************

                                    ---------------------
                                    Active property flags
                                    ---------------------
   (+) Dipole Moment


------------------------------------------------------------------------------
                       ORCA ELECTRIC PROPERTIES CALCULATION
------------------------------------------------------------------------------

Dipole Moment Calculation                       ... on
Quadrupole Moment Calculation                   ... off
Polarizability Calculation                      ... off
GBWName                                         ... Cu03C1_LIN.gbw
Electron density file                           ... Cu03C1_LIN.scfp
The origin for moment calculation is the CENTER OF MASS  = ( 0.000000, -0.000000 -0.000000)

-------------
DIPOLE MOMENT
-------------
                                X             Y             Z
Electronic contribution:     -0.00000      -0.00000      -0.00000
Nuclear contribution   :      0.00000       0.00000       0.00000
                        -----------------------------------------
Total Dipole Moment    :     -0.00000      -0.00000      -0.00000
                        -----------------------------------------
Magnitude (a.u.)       :      0.00000
Magnitude (Debye)      :      0.00000



--------------------
Rotational spectrum 
--------------------
 
Rotational constants in cm-1:     0.000000     0.020833     0.020833 
Rotational constants in MHz :     0.000000   624.571403   624.571403 

 Dipole components along the rotational axes: 
x,y,z [a.u.] :    -0.000000    -0.000000     0.000000 
x,y,z [Debye]:    -0.000000    -0.000001     0.000000 

 

                         *** MP2 UNRELAXED DENSITY ***

------------------------------------------------------------------------------
                       ORCA ELECTRIC PROPERTIES CALCULATION
------------------------------------------------------------------------------

Dipole Moment Calculation                       ... on
Quadrupole Moment Calculation                   ... off
Polarizability Calculation                      ... off
GBWName                                         ... Cu03C1_LIN.gbw
Electron density file                           ... Cu03C1_LIN.pmp2ur
The origin for moment calculation is the CENTER OF MASS  = ( 0.000000, -0.000000 -0.000000)

-------------
DIPOLE MOMENT
-------------
                                X             Y             Z
Electronic contribution:     -0.00000      -0.00000      -0.00000
Nuclear contribution   :      0.00000       0.00000       0.00000
                        -----------------------------------------
Total Dipole Moment    :     -0.00000      -0.00000      -0.00000
                        -----------------------------------------
Magnitude (a.u.)       :      0.00000
Magnitude (Debye)      :      0.00000



--------------------
Rotational spectrum 
--------------------
 
Rotational constants in cm-1:     0.000000     0.020833     0.020833 
Rotational constants in MHz :     0.000000   624.571403   624.571403 

 Dipole components along the rotational axes: 
x,y,z [a.u.] :    -0.000000    -0.000000     0.000000 
x,y,z [Debye]:    -0.000000    -0.000001     0.000000 

 

                           *** MP2 RELAXED DENSITY ***

------------------------------------------------------------------------------
                       ORCA ELECTRIC PROPERTIES CALCULATION
------------------------------------------------------------------------------

Dipole Moment Calculation                       ... on
Quadrupole Moment Calculation                   ... off
Polarizability Calculation                      ... off
GBWName                                         ... Cu03C1_LIN.gbw
Electron density file                           ... Cu03C1_LIN.pmp2re
The origin for moment calculation is the CENTER OF MASS  = ( 0.000000, -0.000000 -0.000000)

-------------
DIPOLE MOMENT
-------------
                                X             Y             Z
Electronic contribution:     -0.00000      -0.00000      -0.00000
Nuclear contribution   :      0.00000       0.00000       0.00000
                        -----------------------------------------
Total Dipole Moment    :     -0.00000      -0.00000      -0.00000
                        -----------------------------------------
Magnitude (a.u.)       :      0.00000
Magnitude (Debye)      :      0.00000



--------------------
Rotational spectrum 
--------------------
 
Rotational constants in cm-1:     0.000000     0.020833     0.020833 
Rotational constants in MHz :     0.000000   624.571403   624.571403 

 Dipole components along the rotational axes: 
x,y,z [a.u.] :    -0.000000    -0.000000     0.000000 
x,y,z [Debye]:    -0.000000    -0.000001     0.000000 

 

----------------------------------------------------------------------------
                           ORCA NUMERICAL FREQUENCIES
                              (24-process run)
----------------------------------------------------------------------------

Number of atoms                ... 3
Central differences            ... used
Number of displacements        ... 18
Numerical increment            ... 5.000e-03 bohr
IR-spectrum generation         ... on
Raman-spectrum generation      ... off
Surface Crossing Hessian       ... off

 WARNING: There are more processes than displacements to do
  ====> : Reducing number of processes to   9

The output will be reduced. Please look at the following files:
SCF program output             ... >Cu03C1_LIN.lastscf
Integral program output        ... >Cu03C1_LIN.lastint
Gradient program output        ... >Cu03C1_LIN.lastgrad
Dipole moment program output   ... >Cu03C1_LIN.lastmom
AutoCI program output          ... >Cu03C1_LIN.lastautoci


         <<< Energy and Gradient at the input geometry >>>

        <<< Energy and Gradient at displaced geometries >>>
             <<<Displacing   1/coordinate 1 (+)>>>
             <<<Displacing   1/coordinate 3 (+)>>>
             <<<Displacing   1/coordinate 2 (+)>>>
             <<<Displacing   2/coordinate 3 (+)>>>
             <<<Displacing   3/coordinate 2 (+)>>>
             <<<Displacing   2/coordinate 2 (+)>>>
             <<<Displacing   3/coordinate 3 (+)>>>
             <<<Displacing   3/coordinate 1 (+)>>>
             <<<Displacing   2/coordinate 1 (+)>>>
             <<<Displacing   1/coordinate 2 (-)>>>
             <<<Displacing   3/coordinate 2 (-)>>>
             <<<Displacing   3/coordinate 1 (-)>>>
             <<<Displacing   2/coordinate 2 (-)>>>
             <<<Displacing   2/coordinate 1 (-)>>>
             <<<Displacing   1/coordinate 1 (-)>>>
             <<<Displacing   3/coordinate 3 (-)>>>
             <<<Displacing   2/coordinate 3 (-)>>>
             <<<Displacing   1/coordinate 3 (-)>>>

-----------------------
VIBRATIONAL FREQUENCIES
-----------------------

Scaling factor for frequencies =  1.000000000 (already applied!)

   0:         0.00 cm**-1
   1:         0.00 cm**-1
   2:         0.00 cm**-1
   3:         0.00 cm**-1
   4:         0.00 cm**-1
   5:         0.00 cm**-1
   6:      -155.15 cm**-1 ***imaginary mode***
   7:       112.21 cm**-1
   8:       185.09 cm**-1


------------
NORMAL MODES
------------

These modes are the cartesian displacements weighted by the diagonal matrix
M(i,i)=1/sqrt(m[i]) where m[i] is the mass of the displaced atom
Thus, these vectors are normalized but *not* orthogonal

                  0          1          2          3          4          5    
      0       0.000000   0.000000   0.000000   0.000000   0.000000   0.000000
      1       0.000000   0.000000   0.000000   0.000000   0.000000   0.000000
      2       0.000000   0.000000   0.000000   0.000000   0.000000   0.000000
      3       0.000000   0.000000   0.000000   0.000000   0.000000   0.000000
      4       0.000000   0.000000   0.000000   0.000000   0.000000   0.000000
      5       0.000000   0.000000   0.000000   0.000000   0.000000   0.000000
      6       0.000000   0.000000   0.000000   0.000000   0.000000   0.000000
      7       0.000000   0.000000   0.000000   0.000000   0.000000   0.000000
      8       0.000000   0.000000   0.000000   0.000000   0.000000   0.000000
                   6          7          8    
      0      -0.627891  -0.000006  -0.000002
      1      -0.521939  -0.000005  -0.000001
      2       0.000002  -0.000003  -0.816497
      3       0.313945   0.000003   0.000001
      4       0.260969   0.000002   0.000001
      5      -0.000008   0.707108   0.408245
      6       0.313945   0.000003   0.000001
      7       0.260969   0.000002   0.000001
      8       0.000006  -0.707105   0.408251


-----------
IR SPECTRUM  
-----------

 Mode    freq (cm**-1)   T**2         TX         TY         TZ
-------------------------------------------------------------------
   7:       112.21    0.000000  (  0.000008   0.000016  -0.000002)
   8:       185.09   35.430587  (  0.000006   0.000010   5.952360)

The first frequency considered to be a vibration is 7
The total number of vibrations considered is 2


--------------------------
THERMOCHEMISTRY AT 298.15K
--------------------------

Temperature         ... 298.15 K
Pressure            ... 1.00 atm
Total Mass          ... 190.65 AMU
The molecule is recognized as being linear

Throughout the following assumptions are being made:
  (1) The electronic state is orbitally nondegenerate
  (2) There are no thermally accessible electronically excited states
  (3) Hindered rotations indicated by low frequency modes are not
      treated as such but are treated as vibrations and this may
      cause some error
  (4) All equations used are the standard statistical mechanics
      equations for an ideal gas
  (5) All vibrations are strictly harmonic

freq.     112.21  E(vib)   ...       0.45 
freq.     185.09  E(vib)   ...       0.37 

------------
INNER ENERGY
------------

The inner energy is: U= E(el) + E(ZPE) + E(vib) + E(rot) + E(trans)
    E(el)   - is the total energy from the electronic structure calculation
              = E(kin-el) + E(nuc-el) + E(el-el) + E(nuc-nuc)
    E(ZPE)  - the the zero temperature vibrational energy from the frequency calculation
    E(vib)  - the the finite temperature correction to E(ZPE) due to population
              of excited vibrational states
    E(rot)  - is the rotational thermal energy
    E(trans)- is the translational thermal energy

Summary of contributions to the inner energy U:
Electronic energy                ...  -4920.78875371 Eh
Zero point energy                ...      0.00067729 Eh       0.43 kcal/mol
Thermal vibrational correction   ...      0.00129603 Eh       0.81 kcal/mol
Thermal rotational correction    ...      0.00094418 Eh       0.59 kcal/mol
Thermal translational correction ...      0.00141627 Eh       0.89 kcal/mol
-----------------------------------------------------------------------
Total thermal energy                  -4920.78441993 Eh


Summary of corrections to the electronic energy:
(perhaps to be used in another calculation)
Total thermal correction                  0.00365649 Eh       2.29 kcal/mol
Non-thermal (ZPE) correction              0.00067729 Eh       0.43 kcal/mol
-----------------------------------------------------------------------
Total correction                          0.00433378 Eh       2.72 kcal/mol


--------
ENTHALPY
--------

The enthalpy is H = U + kB*T
                kB is Boltzmann's constant
Total free energy                 ...  -4920.78441993 Eh 
Thermal Enthalpy correction       ...      0.00094421 Eh       0.59 kcal/mol
-----------------------------------------------------------------------
Total Enthalpy                    ...  -4920.78347572 Eh

[file orca_tools/Tool-Symmetry/symmain.cpp, line 3070]: Error (ORCA_SYM): TMoleculeSymmetry::CleanUp molecule is linear but not aligned to z axis!

[file orca_tools/Tool-Symmetry/symmain.cpp, line 3070]: Error (ORCA_SYM): TMoleculeSymmetry::CleanUp molecule is linear but not aligned to z axis!

