
                                 *****************
                                 * O   R   C   A *
                                 *****************

           --- An Ab Initio, DFT and Semiempirical electronic structure package ---

                  #######################################################
                  #                        -***-                        #
                  #          Department of theory and spectroscopy      #
                  #               Directorship: Frank Neese             #
                  #        Max Planck Institute fuer Kohlenforschung    #
                  #                Kaiser Wilhelm Platz 1               #
                  #                 D-45470 Muelheim/Ruhr               #
                  #                      Germany                        #
                  #                                                     #
                  #                  All rights reserved                #
                  #                        -***-                        #
                  #######################################################


                         Program Version 4.2.0 -  RELEASE  -


 With contributions from (in alphabetic order):
   Daniel Aravena         : Magnetic Suceptibility
   Michael Atanasov       : Ab Initio Ligand Field Theory (pilot matlab implementation)
   Alexander A. Auer      : GIAO ZORA, VPT2
   Ute Becker             : Parallelization
   Giovanni Bistoni       : ED, misc. LED, open-shell LED, HFLED
   Martin Brehm           : Molecular dynamics
   Dmytro Bykov           : SCF Hessian
   Vijay G. Chilkuri      : MRCI spin determinant printing, contributions to CSF-ICE
   Dipayan Datta          : RHF DLPNO-CCSD density
   Achintya Kumar Dutta   : EOM-CC, STEOM-CC
   Dmitry Ganyushin       : Spin-Orbit,Spin-Spin,Magnetic field MRCI
   Miquel Garcia          : C-PCM Hessian, Gaussian charge scheme
   Yang Guo               : DLPNO-NEVPT2, CIM, IAO-localization
   Andreas Hansen         : Spin unrestricted coupled pair/coupled cluster methods
   Benjamin Helmich-Paris : CASSCF linear response (MC-RPA)
   Lee Huntington         : MR-EOM, pCC
   Robert Izsak           : Overlap fitted RIJCOSX, COSX-SCS-MP3, EOM
   Christian Kollmar      : KDIIS, OOCD, Brueckner-CCSD(T), CCSD density
   Simone Kossmann        : Meta GGA functionals, TD-DFT gradient, OOMP2, MP2 Hessian
   Martin Krupicka        : AUTO-CI
   Lucas Lang             : DCDCAS
   Dagmar Lenk            : GEPOL surface, SMD
   Dimitrios Liakos       : Extrapolation schemes; Compound Job, initial MDCI parallelization
   Dimitrios Manganas     : Further ROCIS development; embedding schemes
   Dimitrios Pantazis     : SARC Basis sets
   Taras Petrenko         : DFT Hessian,TD-DFT gradient, ASA, ECA, R-Raman, ABS, FL, XAS/XES, NRVS
   Peter Pinski           : DLPNO-MP2, DLPNO-MP2 Gradient
   Christoph Reimann      : Effective Core Potentials
   Marius Retegan         : Local ZFS, SOC
   Christoph Riplinger    : Optimizer, TS searches, QM/MM, DLPNO-CCSD(T), (RO)-DLPNO pert. Triples
   Tobias Risthaus        : Range-separated hybrids, TD-DFT gradient, RPA, STAB
   Michael Roemelt        : Original ROCIS implementation
   Masaaki Saitow         : Open-shell DLPNO-CCSD energy and density
   Barbara Sandhoefer     : DKH picture change effects
   Avijit Sen             : IP-ROCIS
   Kantharuban Sivalingam : CASSCF convergence, NEVPT2, FIC-MRCI
   Bernardo de Souza      : ESD, SOC TD-DFT
   Georgi Stoychev        : AutoAux, RI-MP2 NMR
   Willem Van den Heuvel  : Paramagnetic NMR
   Boris Wezisla          : Elementary symmetry handling
   Frank Wennmohs         : Technical directorship


 We gratefully acknowledge several colleagues who have allowed us to
 interface, adapt or use parts of their codes:
   Stefan Grimme, W. Hujo, H. Kruse,             : VdW corrections, initial TS optimization,
                  C. Bannwarth                     DFT functionals, gCP, sTDA/sTD-DF
   Ed Valeev, F. Pavosevic, A. Kumar             : LibInt (2-el integral package), F12 methods
   Garnet Chan, S. Sharma, J. Yang, R. Olivares  : DMRG
   Ulf Ekstrom                                   : XCFun DFT Library
   Mihaly Kallay                                 : mrcc  (arbitrary order and MRCC methods)
   Andreas Klamt, Michael Diedenhofen            : otool_cosmo (COSMO solvation model)
   Jiri Pittner, Ondrej Demel                    : Mk-CCSD
   Frank Weinhold                                : gennbo (NPA and NBO analysis)
   Christopher J. Cramer and Donald G. Truhlar   : smd solvation model
   Lars Goerigk                                  : TD-DFT with DH, B97 family of functionals
   V. Asgeirsson, H. Jonsson                     : NEB implementation
   FAccTs GmbH                                   : IRC, NEB, NEB-TS, Multilevel, MM, QM/MM, CI optimization
   S Lehtola, MJT Oliveira, MAL Marques          : LibXC Library


 Your calculation uses the libint2 library for the computation of 2-el integrals
 For citations please refer to: http://libint.valeyev.net

 Your ORCA version has been built with support for libXC version: 4.2.3
 For citations please refer to: https://tddft.org/programs/libxc/

 This ORCA versions uses:
   CBLAS   interface :  Fast vector & matrix operations
   LAPACKE interface :  Fast linear algebra routines
   SCALAPACK package :  Parallel linear algebra routines


Your calculation utilizes the atom-pairwise dispersion correction
with the Becke-Johnson damping scheme (D3BJ)
Cite in your paper:
S.Grimme, S.Ehrlich, L.Goerigk, J Comput Chem, (2011), 32, 1456–1465 
S.Grimme, J.Antony, S.Ehrlich and H.Krieg, J.Chem.Phys., 132, (2010), 154104 
   

----- Orbital basis set information -----
Your calculation utilizes the basis: def2-TZVPPD
   F. Weigend and R. Ahlrichs, Phys. Chem. Chem. Phys. 7, 3297 (2005).
   D. Rappoport and F. Furche, J. Chem. Phys. 133 134105 (2010).

----- AuxC basis set information -----
Your calculation utilizes the auxiliary basis: def2-TZVPPD/C
   A. Hellweg, C. Hattig, S. Hofener and W. Klopper, Theor. Chem. Acc. 117, 587 (2007).

----- AuxJK basis set information -----
Your calculation utilizes the auxiliary basis: def2/JK
   H-Ba, Hf-Rn: F. Weigend, J. Comput. Chem. 29, 167 (2008).

================================================================================
                                        WARNINGS
                       Please study these warnings very carefully!
================================================================================


WARNING: your system is open-shell and RHF/RKS was chosen
  ===> : WILL SWITCH to UHF/UKS


WARNING: The frozen-core approximation for MP2-gradient calculations is turned on by default.

WARNING: Geometry Optimization
  ===> : Switching off AutoStart
         For restart on a previous wavefunction, please use MOREAD

WARNING: The frozen-core approximation is turned on by default for 
         the MP2 part of double-hybrid DFT.

INFO   : the flag for use of LIBINT has been found!

================================================================================
                                       INPUT FILE
================================================================================
NAME = Cu03N0_D3H.in
|  1> #
|  2> # Cu03N0_D3H ri-B2PLYP-D3BJ/Def2-TZVPPD
|  3> #
|  4> ! rijk ri-b2plyp d3bj def2-tzvppd def2/jk def2-tzvppd/c grid4 nofinalgrid opt xyzfile numfreq
|  5> 
|  6> *xyz 0 2
|  7> Cu       0.000000    1.346828   -0.000000 
|  8> Cu       1.166387   -0.673414   -0.000000 
|  9> Cu      -1.166387   -0.673414   -0.000000 
| 10> *
| 11> 
| 12> %maxcore 5000
| 13> 
| 14> %pal
| 15> nprocs = 24
| 16> end
| 17> 
| 18> 
| 19>                          ****END OF INPUT****
================================================================================

                       *****************************
                       * Geometry Optimization Run *
                       *****************************

Geometry optimization settings:
Update method            Update   .... BFGS
Choice of coordinates    CoordSys .... Z-matrix Internals
Initial Hessian          InHess   .... Almoef's Model

Convergence Tolerances:
Energy Change            TolE     ....  5.0000e-06 Eh
Max. Gradient            TolMAXG  ....  3.0000e-04 Eh/bohr
RMS Gradient             TolRMSG  ....  1.0000e-04 Eh/bohr
Max. Displacement        TolMAXD  ....  4.0000e-03 bohr
RMS Displacement         TolRMSD  ....  2.0000e-03 bohr
Strict Convergence                ....  False
------------------------------------------------------------------------------
                        ORCA OPTIMIZATION COORDINATE SETUP
------------------------------------------------------------------------------

The optimization will be done in new redundant internal coordinates
Making redundant internal coordinates   ...  (new redundants) done
Evaluating the initial hessian          ...  (Almloef) done
Evaluating the coordinates              ...  done
Calculating the B-matrix                .... done
Calculating the G-matrix                .... done
Diagonalizing the G-matrix              .... done
The first mode is                       ....    3
The number of degrees of freedom        ....    3

    -----------------------------------------------------------------
                    Redundant Internal Coordinates


    -----------------------------------------------------------------
         Definition                    Initial Value    Approx d2E/dq
    -----------------------------------------------------------------
      1. B(Cu  1,Cu  0)                  2.3328         2.003788   
      2. B(Cu  2,Cu  1)                  2.3328         2.003791   
      3. B(Cu  2,Cu  0)                  2.3328         2.003788   
      4. A(Cu  1,Cu  0,Cu  2)           60.0000         1.058655   
      5. A(Cu  0,Cu  1,Cu  2)           60.0000         1.058655   
      6. A(Cu  0,Cu  2,Cu  1)           60.0000         1.058655   
    -----------------------------------------------------------------

Number of atoms                         .... 3
Number of degrees of freedom            .... 6

         *************************************************************
         *                GEOMETRY OPTIMIZATION CYCLE   1            *
         *************************************************************
---------------------------------
CARTESIAN COORDINATES (ANGSTROEM)
---------------------------------
  Cu     0.000000    1.346828   -0.000000
  Cu     1.166387   -0.673414   -0.000000
  Cu    -1.166387   -0.673414   -0.000000

----------------------------
CARTESIAN COORDINATES (A.U.)
----------------------------
  NO LB      ZA    FRAG     MASS         X           Y           Z
   0 Cu   29.0000    0    63.550    0.000000    2.545136   -0.000000
   1 Cu   29.0000    0    63.550    2.204152   -1.272568   -0.000000
   2 Cu   29.0000    0    63.550   -2.204152   -1.272568   -0.000000

--------------------------------
INTERNAL COORDINATES (ANGSTROEM)
--------------------------------
 Cu     0   0   0     0.000000000000     0.00000000     0.00000000
 Cu     1   0   0     2.332774393792     0.00000000     0.00000000
 Cu     2   1   0     2.332774000000    60.00000558     0.00000000

---------------------------
INTERNAL COORDINATES (A.U.)
---------------------------
 Cu     0   0   0     0.000000000000     0.00000000     0.00000000
 Cu     1   0   0     4.408304736492     0.00000000     0.00000000
 Cu     2   1   0     4.408303992332    60.00000558     0.00000000

---------------------
BASIS SET INFORMATION
---------------------
There are 1 groups of distinct atoms

 Group   1 Type Cu  : 17s13p7d2f1g contracted to 6s6p4d2f1g pattern {842111/631111/4111/11/1}

Atom   0Cu   basis set group =>   1
Atom   1Cu   basis set group =>   1
Atom   2Cu   basis set group =>   1
---------------------------------
AUXILIARY/C BASIS SET INFORMATION
---------------------------------
There are 1 groups of distinct atoms

 Group   1 Type Cu  : 10s10p9d7f5g3h1i contracted to 10s10p9d7f5g3h1i pattern {1111111111/1111111111/111111111/1111111/11111/111/1}

Atom   0Cu   basis set group =>   1
Atom   1Cu   basis set group =>   1
Atom   2Cu   basis set group =>   1
----------------------------------
AUXILIARY/JK BASIS SET INFORMATION
----------------------------------
There are 1 groups of distinct atoms

 Group   1 Type Cu  : 19s14p12d10f7g3h1i contracted to 16s13p11d9f5g3h1i pattern {4111111111111111/2111111111111/21111111111/211111111/31111/111/1}

Atom   0Cu   basis set group =>   1
Atom   1Cu   basis set group =>   1
Atom   2Cu   basis set group =>   1


           ************************************************************
           *        Program running with 24 parallel MPI-processes    *
           *              working on a common directory               *
           ************************************************************
------------------------------------------------------------------------------
                           ORCA GTO INTEGRAL CALCULATION
                           -- RI-GTO INTEGRALS CHOSEN --
------------------------------------------------------------------------------

                         BASIS SET STATISTICS AND STARTUP INFO

Gaussian basis set:
 # of primitive gaussian shells          ...  120
 # of primitive gaussian functions       ...  342
 # of contracted shells                  ...   57
 # of contracted basis functions         ...  201
 Highest angular momentum                ...    4
 Maximum contraction depth               ...    8
Auxiliary gaussian basis set:
 # of primitive gaussian shells          ...  198
 # of primitive gaussian functions       ...  900
 # of contracted shells                  ...  174
 # of contracted aux-basis functions     ...  792
 Highest angular momentum                ...    6
 Maximum contraction depth               ...    4
Ratio of auxiliary to basis functions    ...  3.94
Integral package used                  ... LIBINT
 One Electron integrals                  ... done
 Ordering auxiliary basis shells         ... done
 Integral threshhold             Thresh  ...  2.500e-11
 Primitive cut-off               TCut    ...  2.500e-12
 Pre-screening matrix                    ... done
 Shell pair data                         ... 
 Ordering of the shell pairs             ... done (   0.000 sec) 1533 of 1653 pairs
 Determination of significant pairs      ... done (   0.000 sec)
 Creation of shell pair data             ... done (   0.000 sec)
 Storage of shell pair data              ... done (   0.035 sec)
 Shell pair data done in (   0.036 sec)
 Computing two index integrals           ... done
 Cholesky decomposition of the V-matrix  ... done


Timings:
 Total evaluation time                   ...   0.397 sec (  0.007 min)
 One electron matrix time                ...   0.021 sec (  0.000 min) =  5.3%
 Schwartz matrix evaluation time         ...   0.184 sec (  0.003 min) = 46.3%
 Two index repulsion integral time       ...   0.112 sec (  0.002 min) = 28.3%
 Cholesky decomposition of V             ...   0.010 sec (  0.000 min) =  2.5%
 Three index repulsion integral time     ...   0.000 sec (  0.000 min) =  0.0%



           ************************************************************
           *        Program running with 24 parallel MPI-processes    *
           *              working on a common directory               *
           ************************************************************
-------------------------------------------------------------------------------
                                 ORCA SCF
-------------------------------------------------------------------------------

------------
SCF SETTINGS
------------
Hamiltonian:
 Density Functional     Method          .... DFT(GTOs)
 Exchange Functional    Exchange        .... B88
   X-Alpha parameter    XAlpha          ....  0.666667
   Becke's b parameter  XBeta           ....  0.004200
 Correlation Functional Correlation     .... LYP
 LDA part of GGA corr.  LDAOpt          .... VWN-3
 Gradients option       PostSCFGGA      .... off
 Hybrid DFT is turned on
   Fraction HF Exchange ScalHFX         ....  0.530000
   Scaling of DF-GGA-X  ScalDFX         ....  0.470000
   Scaling of DF-GGA-C  ScalDFC         ....  0.730000
   Scaling of DF-LDA-C  ScalLDAC        ....  0.730000
   Perturbative correction              ....  0.270000
   Density functional embedding theory  .... OFF
 RI-approximation to the Coulomb term is turned on
   Number of auxiliary basis functions  .... 792
   RI-JK (J+K treated both via RI)      .... on


General Settings:
 Integral files         IntName         .... Cu03N0_D3H
 Hartree-Fock type      HFTyp           .... UHF
 Total Charge           Charge          ....    0
 Multiplicity           Mult            ....    2
 Number of Electrons    NEL             ....   87
 Basis Dimension        Dim             ....  201
 Nuclear Repulsion      ENuc            ....    572.3288866767 Eh

Convergence Acceleration:
 DIIS                   CNVDIIS         .... on
   Start iteration      DIISMaxIt       ....    12
   Startup error        DIISStart       ....  0.200000
   # of expansion vecs  DIISMaxEq       ....     5
   Bias factor          DIISBfac        ....   1.050
   Max. coefficient     DIISMaxC        ....  10.000
 Newton-Raphson         CNVNR           .... off
 SOSCF                  CNVSOSCF        .... off
 Level Shifting         CNVShift        .... on
   Level shift para.    LevelShift      ....    0.2500
   Turn off err/grad.   ShiftErr        ....    0.0010
 Zerner damping         CNVZerner       .... off
 Static damping         CNVDamp         .... on
   Fraction old density DampFac         ....    0.7000
   Max. Damping (<1)    DampMax         ....    0.9800
   Min. Damping (>=0)   DampMin         ....    0.0000
   Turn off err/grad.   DampErr         ....    0.1000
 Fernandez-Rico         CNVRico         .... off

SCF Procedure:
 Maximum # iterations   MaxIter         ....   125
 SCF integral mode      SCFMode         .... Direct
   Integral package                     .... LIBINT
 Reset frequency        DirectResetFreq ....    20
 Integral Threshold     Thresh          ....  2.500e-11 Eh
 Primitive CutOff       TCut            ....  2.500e-12 Eh

Convergence Tolerance:
 Convergence Check Mode ConvCheckMode   .... Total+1el-Energy
 Convergence forced     ConvForced      .... 0
 Energy Change          TolE            ....  1.000e-08 Eh
 1-El. energy change                    ....  1.000e-05 Eh
 DIIS Error             TolErr          ....  5.000e-07


Diagonalization of the overlap matrix:
Smallest eigenvalue                        ... 7.631e-04
Time for diagonalization                   ...    0.008 sec
Threshold for overlap eigenvalues          ... 1.000e-08
Number of eigenvalues below threshold      ... 0
Time for construction of square roots      ...    0.005 sec
Total time needed                          ...    0.013 sec

-------------------
DFT GRID GENERATION
-------------------

General Integration Accuracy     IntAcc      ...  4.670
Radial Grid Type                 RadialGrid  ... Gauss-Chebyshev
Angular Grid (max. acc.)         AngularGrid ... Lebedev-302
Angular grid pruning method      GridPruning ... 3 (G Style)
Weight generation scheme         WeightScheme... Becke
Basis function cutoff            BFCut       ...    1.0000e-11
Integration weight cutoff        WCut        ...    1.0000e-14
Grids for H and He will be reduced by one unit

# of grid points (after initial pruning)     ...  28668 (   0.0 sec)
# of grid points (after weights+screening)   ...  28566 (   0.0 sec)
nearest neighbour list constructed           ...    0.0 sec
Grid point re-assignment to atoms done       ...    0.0 sec
Grid point division into batches done        ...    0.2 sec
Reduced shell lists constructed in    0.2 sec

Total number of grid points                  ...    28566
Total number of batches                      ...      448
Average number of points per batch           ...       63
Average number of grid points per atom       ...     9522
Average number of shells per batch           ...    13.75 (24.12%)
Average number of basis functions per batch  ...    38.75 (19.28%)
Average number of large shells per batch     ...    10.10 (73.45%)
Average number of large basis fcns per batch ...    27.90 (72.00%)
Average number of aux-shells per batch       ...    13.75 ( 7.90%)
Average number of aux functions per batch    ...    38.75 ( 4.89%)
Maximum spatial batch extension              ...  20.08, 17.16, 22.17 au
Average spatial batch extension              ...   0.56,  0.48,  0.54 au

Time for grid setup =    0.282 sec

------------------------------
INITIAL GUESS: MODEL POTENTIAL
------------------------------
Loading Hartree-Fock densities                     ... done
Calculating cut-offs                               ... done
Setting up the integral package                    ... done
Initializing the effective Hamiltonian             ... done
Starting the Coulomb interaction                   ... done (   0.0 sec)
Reading the grid                                   ... done
Mapping shells                                     ... done
Starting the XC term evaluation                    ... done (   0.0 sec)
  promolecular density results
     # of electrons  =     87.000079887
     EX              =   -197.430471989
     EC              =     -1.574882308
     EX+EC           =   -199.005354297
Transforming the Hamiltonian                       ... done (   0.0 sec)
Diagonalizing the Hamiltonian                      ... done (   0.0 sec)
Back transforming the eigenvectors                 ... done (   0.0 sec)
Now organizing SCF variables                       ... done
                      ------------------
                      INITIAL GUESS DONE (   0.4 sec)
                      ------------------
--------------
SCF ITERATIONS
--------------
ITER       Energy         Delta-E        Max-DP      RMS-DP      [F,P]     Damp
  0  -4920.1360548975   0.000000000000 0.13529316  0.00096264  0.1032326 0.7000
  1  -4919.9375832193   0.198471678169 0.13321392  0.00090920  0.0602124 0.7000
                               ***Turning on DIIS***
  2  -4920.0663143168  -0.128731097467 0.33761911  0.00227473  0.0391508 0.0000
  3  -4920.2139136802  -0.147599363433 0.01505163  0.00027411  0.0363514 0.0000
  4  -4920.2223948473  -0.008481167120 0.01917453  0.00016359  0.0142318 0.0000
  5  -4920.2236074897  -0.001212642366 0.01455634  0.00010686  0.0095524 0.0000
  6  -4920.2241283766  -0.000520886849 0.01361997  0.00010105  0.0036165 0.0000
  7  -4920.2242554186  -0.000127042049 0.01027205  0.00007419  0.0018916 0.0000
  8  -4920.2242937440  -0.000038325440 0.00714955  0.00004967  0.0010780 0.0000
  9  -4920.2243077187  -0.000013974638 0.01344645  0.00009026  0.0007753 0.0000
 10  -4920.2243187258  -0.000011007160 0.00344742  0.00002478  0.0001718 0.0000
 11  -4920.2243205175  -0.000001791640 0.00065801  0.00000611  0.0001224 0.0000
 12  -4920.2243208732  -0.000000355761 0.00016588  0.00000159  0.0001332 0.0000
 13  -4920.2243209887  -0.000000115414 0.00020508  0.00000197  0.0000249 0.0000
 14  -4920.2243210324  -0.000000043722 0.00002308  0.00000037  0.0000157 0.0000
 15  -4920.2243210369  -0.000000004552 0.00004515  0.00000042  0.0000159 0.0000
 16  -4920.2243210394  -0.000000002431 0.00002257  0.00000027  0.0000055 0.0000
 17  -4920.2243210401  -0.000000000782 0.00000595  0.00000010  0.0000019 0.0000
 18  -4920.2243210403  -0.000000000140 0.00000156  0.00000003  0.0000020 0.0000
 19  -4920.2243210403   0.000000000016 0.00000611  0.00000006  0.0000011 0.0000
                 **** Energy Check signals convergence ****

               *****************************************************
               *                     SUCCESS                       *
               *           SCF CONVERGED AFTER  20 CYCLES          *
               *****************************************************


----------------
TOTAL SCF ENERGY
----------------

Total Energy       :        -4920.22432104 Eh         -133886.11041 eV

Components:
Nuclear Repulsion  :          572.32888668 Eh           15573.86077 eV
Electronic Energy  :        -5492.55320772 Eh         -149459.97118 eV
One Electron Energy:        -8009.74505993 Eh         -217956.24376 eV
Two Electron Energy:         2517.19185221 Eh           68496.27258 eV

Virial components:
Potential Energy   :        -9835.47453475 Eh         -267636.86849 eV
Kinetic Energy     :         4915.25021371 Eh          133750.75807 eV
Virial Ratio       :            2.00101197


DFT components:
N(Alpha)           :       44.000000640964 electrons
N(Beta)            :       43.000000248016 electrons
N(Total)           :       87.000000888979 electrons
E(X)               :      -93.036036508670 Eh       
E(C)               :       -3.033171510421 Eh       
E(XC)              :      -96.069208019090 Eh       
DFET-embed. en.    :        0.000000000000 Eh       

---------------
SCF CONVERGENCE
---------------

  Last Energy change         ...    0.0000e+00  Tolerance :   1.0000e-08
  Last MAX-Density change    ...    1.4565e-06  Tolerance :   1.0000e-07
  Last RMS-Density change    ...    2.2830e-08  Tolerance :   5.0000e-09
  Last DIIS Error            ...    2.0900e-07  Tolerance :   5.0000e-07

             **** THE GBW FILE WAS UPDATED (Cu03N0_D3H.gbw) ****
             **** DENSITY FILE WAS UPDATED (Cu03N0_D3H.scfp) ****
             **** ENERGY FILE WAS UPDATED (Cu03N0_D3H.en.tmp) ****
----------------------
UHF SPIN CONTAMINATION
----------------------

Warning: in a DFT calculation there is little theoretical justification to 
         calculate <S**2> as in Hartree-Fock theory. We will do it anyways
         but you should keep in mind that the values have only limited relevance

Expectation value of <S**2>     :     0.768045
Ideal value S*(S+1) for S=0.5   :     0.750000
Deviation                       :     0.018045

             **** THE GBW FILE WAS UPDATED (Cu03N0_D3H.gbw) ****
             **** DENSITY FILE WAS UPDATED (Cu03N0_D3H.scfp) ****
----------------
ORBITAL ENERGIES
----------------
                 SPIN UP ORBITALS
  NO   OCC          E(Eh)            E(eV) 
   0   1.0000    -325.431148     -8855.4317 
   1   1.0000    -325.431142     -8855.4316 
   2   1.0000    -325.413922     -8854.9630 
   3   1.0000     -39.641059     -1078.6881 
   4   1.0000     -39.641037     -1078.6875 
   5   1.0000     -39.625969     -1078.2774 
   6   1.0000     -34.676747      -943.6023 
   7   1.0000     -34.676741      -943.6021 
   8   1.0000     -34.676426      -943.5935 
   9   1.0000     -34.676416      -943.5932 
  10   1.0000     -34.676242      -943.5885 
  11   1.0000     -34.676236      -943.5884 
  12   1.0000     -34.661264      -943.1810 
  13   1.0000     -34.661088      -943.1761 
  14   1.0000     -34.659866      -943.1429 
  15   1.0000      -4.590825      -124.9227 
  16   1.0000      -4.590412      -124.9115 
  17   1.0000      -4.574112      -124.4679 
  18   1.0000      -3.012228       -81.9669 
  19   1.0000      -3.008610       -81.8685 
  20   1.0000      -3.008377       -81.8621 
  21   1.0000      -3.007593       -81.8408 
  22   1.0000      -3.007185       -81.8297 
  23   1.0000      -3.006873       -81.8212 
  24   1.0000      -2.991406       -81.4003 
  25   1.0000      -2.991043       -81.3904 
  26   1.0000      -2.988256       -81.3146 
  27   1.0000      -0.404382       -11.0038 
  28   1.0000      -0.389025       -10.5859 
  29   1.0000      -0.386182       -10.5085 
  30   1.0000      -0.381318       -10.3762 
  31   1.0000      -0.373496       -10.1633 
  32   1.0000      -0.372228       -10.1288 
  33   1.0000      -0.366868        -9.9830 
  34   1.0000      -0.354419        -9.6442 
  35   1.0000      -0.351090        -9.5537 
  36   1.0000      -0.348149        -9.4736 
  37   1.0000      -0.341576        -9.2947 
  38   1.0000      -0.340250        -9.2587 
  39   1.0000      -0.336536        -9.1576 
  40   1.0000      -0.336342        -9.1523 
  41   1.0000      -0.323261        -8.7964 
  42   1.0000      -0.282698        -7.6926 
  43   1.0000      -0.153096        -4.1660 
  44   0.0000      -0.062512        -1.7010 
  45   0.0000      -0.013541        -0.3685 
  46   0.0000       0.006789         0.1847 
  47   0.0000       0.028325         0.7708 
  48   0.0000       0.028696         0.7809 
  49   0.0000       0.056441         1.5358 
  50   0.0000       0.057415         1.5624 
  51   0.0000       0.059461         1.6180 
  52   0.0000       0.059725         1.6252 
  53   0.0000       0.096629         2.6294 
  54   0.0000       0.127758         3.4765 
  55   0.0000       0.135350         3.6831 
  56   0.0000       0.149345         4.0639 
  57   0.0000       0.154316         4.1991 
  58   0.0000       0.155182         4.2227 
  59   0.0000       0.197315         5.3692 
  60   0.0000       0.198392         5.3985 
  61   0.0000       0.217865         5.9284 
  62   0.0000       0.219968         5.9856 
  63   0.0000       0.221072         6.0157 
  64   0.0000       0.240843         6.5537 
  65   0.0000       0.242178         6.5900 
  66   0.0000       0.242286         6.5929 
  67   0.0000       0.252678         6.8757 
  68   0.0000       0.255448         6.9511 
  69   0.0000       0.268739         7.3128 
  70   0.0000       0.316057         8.6003 
  71   0.0000       0.316525         8.6131 
  72   0.0000       0.335110         9.1188 
  73   0.0000       0.353130         9.6092 
  74   0.0000       0.372530        10.1371 
  75   0.0000       0.373209        10.1555 
  76   0.0000       0.373660        10.1678 
  77   0.0000       0.378401        10.2968 
  78   0.0000       0.488389        13.2897 
  79   0.0000       0.540417        14.7055 
  80   0.0000       0.542432        14.7603 
  81   0.0000       0.695308        18.9203 
  82   0.0000       0.699342        19.0301 
  83   0.0000       0.750387        20.4191 
  84   0.0000       0.750893        20.4328 
  85   0.0000       0.799802        21.7637 
  86   0.0000       0.808039        21.9879 
  87   0.0000       0.862454        23.4686 
  88   0.0000       0.866057        23.5666 
  89   0.0000       0.873446        23.7677 
  90   0.0000       0.892690        24.2913 
  91   0.0000       0.923530        25.1305 
  92   0.0000       0.927530        25.2394 
  93   0.0000       0.989687        26.9307 
  94   0.0000       1.008251        27.4359 
  95   0.0000       1.035142        28.1676 
  96   0.0000       1.035313        28.1723 
  97   0.0000       1.112634        30.2763 
  98   0.0000       1.132944        30.8290 
  99   0.0000       1.137471        30.9522 
 100   0.0000       1.172921        31.9168 
 101   0.0000       1.179861        32.1057 
 102   0.0000       1.360707        37.0267 
 103   0.0000       1.364469        37.1291 
 104   0.0000       1.377524        37.4843 
 105   0.0000       3.153944        85.8232 
 106   0.0000       3.225708        87.7760 
 107   0.0000       3.236182        88.0610 
 108   0.0000       3.239921        88.1627 
 109   0.0000       3.256892        88.6245 
 110   0.0000       3.269126        88.9574 
 111   0.0000       3.269900        88.9785 
 112   0.0000       3.272318        89.0443 
 113   0.0000       3.301735        89.8448 
 114   0.0000       3.395162        92.3870 
 115   0.0000       3.550999        96.6276 
 116   0.0000       3.569908        97.1421 
 117   0.0000       3.578510        97.3762 
 118   0.0000       3.581439        97.4559 
 119   0.0000       3.587600        97.6236 
 120   0.0000       3.588940        97.6600 
 121   0.0000       3.589898        97.6861 
 122   0.0000       3.592621        97.7602 
 123   0.0000       3.593210        97.7762 
 124   0.0000       3.596791        97.8737 
 125   0.0000       3.599789        97.9552 
 126   0.0000       3.604595        98.0860 
 127   0.0000       3.611180        98.2652 
 128   0.0000       3.611400        98.2712 
 129   0.0000       3.611414        98.2716 
 130   0.0000       3.615836        98.3919 
 131   0.0000       3.618832        98.4734 
 132   0.0000       3.628731        98.7428 
 133   0.0000       3.630182        98.7823 
 134   0.0000       3.642737        99.1239 
 135   0.0000       3.736017       101.6622 
 136   0.0000       3.799365       103.3860 
 137   0.0000       3.807917       103.6187 
 138   0.0000       3.903653       106.2238 
 139   0.0000       3.906695       106.3066 
 140   0.0000       3.911691       106.4425 
 141   0.0000       3.939848       107.2087 
 142   0.0000       3.957619       107.6923 
 143   0.0000       3.968941       108.0004 
 144   0.0000       3.981877       108.3524 
 145   0.0000       4.022808       109.4662 
 146   0.0000       4.034552       109.7857 
 147   0.0000       4.166118       113.3658 
 148   0.0000       4.169925       113.4694 
 149   0.0000       4.196846       114.2020 
 150   0.0000       4.198582       114.2492 
 151   0.0000       4.439816       120.8135 
 152   0.0000       4.445771       120.9756 
 153   0.0000      13.297994       361.8568 
 154   0.0000      13.298197       361.8623 
 155   0.0000      13.298240       361.8635 
 156   0.0000      13.298247       361.8637 
 157   0.0000      13.298843       361.8799 
 158   0.0000      13.298905       361.8816 
 159   0.0000      13.299041       361.8853 
 160   0.0000      13.299080       361.8864 
 161   0.0000      13.299889       361.9084 
 162   0.0000      13.300092       361.9139 
 163   0.0000      13.300147       361.9154 
 164   0.0000      13.300288       361.9192 
 165   0.0000      13.300337       361.9206 
 166   0.0000      13.300904       361.9360 
 167   0.0000      13.301673       361.9569 
 168   0.0000      13.301679       361.9571 
 169   0.0000      13.301769       361.9595 
 170   0.0000      13.301782       361.9599 
 171   0.0000      13.316482       362.3599 
 172   0.0000      13.317457       362.3864 
 173   0.0000      13.317830       362.3966 
 174   0.0000      13.318488       362.4145 
 175   0.0000      13.319612       362.4451 
 176   0.0000      13.319858       362.4518 
 177   0.0000      13.320086       362.4580 
 178   0.0000      13.320511       362.4695 
 179   0.0000      13.320700       362.4747 
 180   0.0000      13.503044       367.4365 
 181   0.0000      13.504240       367.4690 
 182   0.0000      13.504379       367.4728 
 183   0.0000      13.504589       367.4785 
 184   0.0000      13.504904       367.4871 
 185   0.0000      13.506016       367.5174 
 186   0.0000      13.506255       367.5239 
 187   0.0000      13.507638       367.5615 
 188   0.0000      13.508497       367.5849 
 189   0.0000      13.511988       367.6799 
 190   0.0000      13.516800       367.8108 
 191   0.0000      13.518133       367.8471 
 192   0.0000      13.521363       367.9350 
 193   0.0000      13.523269       367.9868 
 194   0.0000      13.524103       368.0096 
 195   0.0000      13.531844       368.2202 
 196   0.0000      13.532906       368.2491 
 197   0.0000      13.533671       368.2699 
 198   0.0000      13.602102       370.1320 
 199   0.0000      13.611140       370.3779 
 200   0.0000      13.615339       370.4922 

                 SPIN DOWN ORBITALS
  NO   OCC          E(Eh)            E(eV) 
   0   1.0000    -325.430906     -8855.4252 
   1   1.0000    -325.430901     -8855.4250 
   2   1.0000    -325.413109     -8854.9409 
   3   1.0000     -39.641052     -1078.6879 
   4   1.0000     -39.641029     -1078.6872 
   5   1.0000     -39.625425     -1078.2626 
   6   1.0000     -34.676655      -943.5998 
   7   1.0000     -34.676645      -943.5995 
   8   1.0000     -34.676420      -943.5934 
   9   1.0000     -34.676413      -943.5932 
  10   1.0000     -34.676407      -943.5930 
  11   1.0000     -34.676402      -943.5929 
  12   1.0000     -34.661182      -943.1787 
  13   1.0000     -34.660913      -943.1714 
  14   1.0000     -34.660154      -943.1507 
  15   1.0000      -4.590546      -124.9151 
  16   1.0000      -4.590136      -124.9040 
  17   1.0000      -4.572131      -124.4140 
  18   1.0000      -3.012281       -81.9683 
  19   1.0000      -3.009279       -81.8866 
  20   1.0000      -3.008049       -81.8532 
  21   1.0000      -3.007325       -81.8335 
  22   1.0000      -3.007023       -81.8253 
  23   1.0000      -3.006713       -81.8168 
  24   1.0000      -2.991550       -81.4042 
  25   1.0000      -2.989940       -81.3604 
  26   1.0000      -2.987853       -81.3036 
  27   1.0000      -0.403988       -10.9931 
  28   1.0000      -0.387524       -10.5451 
  29   1.0000      -0.386547       -10.5185 
  30   1.0000      -0.379115       -10.3163 
  31   1.0000      -0.372173       -10.1273 
  32   1.0000      -0.371735       -10.1154 
  33   1.0000      -0.366865        -9.9829 
  34   1.0000      -0.354236        -9.6393 
  35   1.0000      -0.351253        -9.5581 
  36   1.0000      -0.348772        -9.4906 
  37   1.0000      -0.340554        -9.2669 
  38   1.0000      -0.339390        -9.2353 
  39   1.0000      -0.335191        -9.1210 
  40   1.0000      -0.333899        -9.0859 
  41   1.0000      -0.319764        -8.7012 
  42   1.0000      -0.267656        -7.2833 
  43   0.0000      -0.056158        -1.5281 
  44   0.0000      -0.034960        -0.9513 
  45   0.0000      -0.008810        -0.2397 
  46   0.0000       0.015215         0.4140 
  47   0.0000       0.040717         1.1080 
  48   0.0000       0.042838         1.1657 
  49   0.0000       0.056706         1.5431 
  50   0.0000       0.060593         1.6488 
  51   0.0000       0.064177         1.7463 
  52   0.0000       0.067134         1.8268 
  53   0.0000       0.098234         2.6731 
  54   0.0000       0.127971         3.4823 
  55   0.0000       0.136238         3.7072 
  56   0.0000       0.153286         4.1711 
  57   0.0000       0.164144         4.4666 
  58   0.0000       0.169592         4.6148 
  59   0.0000       0.198224         5.3939 
  60   0.0000       0.210887         5.7385 
  61   0.0000       0.218631         5.9493 
  62   0.0000       0.227435         6.1888 
  63   0.0000       0.229205         6.2370 
  64   0.0000       0.244469         6.6523 
  65   0.0000       0.246568         6.7094 
  66   0.0000       0.247587         6.7372 
  67   0.0000       0.256744         6.9864 
  68   0.0000       0.263867         7.1802 
  69   0.0000       0.272478         7.4145 
  70   0.0000       0.320617         8.7244 
  71   0.0000       0.321899         8.7593 
  72   0.0000       0.337943         9.1959 
  73   0.0000       0.354576         9.6485 
  74   0.0000       0.373111        10.1529 
  75   0.0000       0.376360        10.2413 
  76   0.0000       0.380292        10.3483 
  77   0.0000       0.382810        10.4168 
  78   0.0000       0.494249        13.4492 
  79   0.0000       0.541587        14.7373 
  80   0.0000       0.549568        14.9545 
  81   0.0000       0.697244        18.9730 
  82   0.0000       0.699867        19.0444 
  83   0.0000       0.755782        20.5659 
  84   0.0000       0.755972        20.5710 
  85   0.0000       0.800671        21.7874 
  86   0.0000       0.814272        22.1575 
  87   0.0000       0.865240        23.5444 
  88   0.0000       0.870499        23.6875 
  89   0.0000       0.884617        24.0716 
  90   0.0000       0.896039        24.3825 
  91   0.0000       0.928295        25.2602 
  92   0.0000       0.931887        25.3579 
  93   0.0000       0.995018        27.0758 
  94   0.0000       1.011487        27.5240 
  95   0.0000       1.041093        28.3296 
  96   0.0000       1.041427        28.3387 
  97   0.0000       1.117978        30.4217 
  98   0.0000       1.137663        30.9574 
  99   0.0000       1.145477        31.1700 
 100   0.0000       1.175286        31.9812 
 101   0.0000       1.185995        32.2726 
 102   0.0000       1.362570        37.0774 
 103   0.0000       1.369095        37.2550 
 104   0.0000       1.384674        37.6789 
 105   0.0000       3.155167        85.8565 
 106   0.0000       3.226992        87.8109 
 107   0.0000       3.240828        88.1874 
 108   0.0000       3.241912        88.2169 
 109   0.0000       3.257411        88.6387 
 110   0.0000       3.271248        89.0152 
 111   0.0000       3.272158        89.0400 
 112   0.0000       3.275276        89.1248 
 113   0.0000       3.302895        89.8763 
 114   0.0000       3.397781        92.4583 
 115   0.0000       3.553263        96.6892 
 116   0.0000       3.569928        97.1427 
 117   0.0000       3.581108        97.4469 
 118   0.0000       3.583928        97.5236 
 119   0.0000       3.588748        97.6548 
 120   0.0000       3.590190        97.6940 
 121   0.0000       3.591324        97.7249 
 122   0.0000       3.593801        97.7923 
 123   0.0000       3.594012        97.7980 
 124   0.0000       3.598234        97.9129 
 125   0.0000       3.600447        97.9731 
 126   0.0000       3.604957        98.0959 
 127   0.0000       3.613525        98.3290 
 128   0.0000       3.613729        98.3346 
 129   0.0000       3.613870        98.3384 
 130   0.0000       3.617802        98.4454 
 131   0.0000       3.620628        98.5223 
 132   0.0000       3.631859        98.8279 
 133   0.0000       3.633602        98.8753 
 134   0.0000       3.646016        99.2131 
 135   0.0000       3.736935       101.6872 
 136   0.0000       3.800225       103.4094 
 137   0.0000       3.809811       103.6702 
 138   0.0000       3.904364       106.2432 
 139   0.0000       3.907574       106.3305 
 140   0.0000       3.912719       106.4705 
 141   0.0000       3.940189       107.2180 
 142   0.0000       3.958809       107.7247 
 143   0.0000       3.971508       108.0702 
 144   0.0000       3.983606       108.3994 
 145   0.0000       4.023485       109.4846 
 146   0.0000       4.037225       109.8585 
 147   0.0000       4.168252       113.4239 
 148   0.0000       4.172064       113.5276 
 149   0.0000       4.198771       114.2544 
 150   0.0000       4.199996       114.2877 
 151   0.0000       4.439801       120.8131 
 152   0.0000       4.447536       121.0236 
 153   0.0000      13.297927       361.8550 
 154   0.0000      13.297991       361.8567 
 155   0.0000      13.297991       361.8567 
 156   0.0000      13.298144       361.8609 
 157   0.0000      13.298588       361.8730 
 158   0.0000      13.298901       361.8815 
 159   0.0000      13.298916       361.8819 
 160   0.0000      13.298927       361.8822 
 161   0.0000      13.299801       361.9060 
 162   0.0000      13.299930       361.9095 
 163   0.0000      13.300071       361.9133 
 164   0.0000      13.300292       361.9193 
 165   0.0000      13.300329       361.9204 
 166   0.0000      13.301048       361.9399 
 167   0.0000      13.301399       361.9495 
 168   0.0000      13.301411       361.9498 
 169   0.0000      13.301502       361.9523 
 170   0.0000      13.301536       361.9532 
 171   0.0000      13.316637       362.3641 
 172   0.0000      13.317611       362.3906 
 173   0.0000      13.317712       362.3934 
 174   0.0000      13.318421       362.4127 
 175   0.0000      13.319379       362.4387 
 176   0.0000      13.319739       362.4485 
 177   0.0000      13.319903       362.4530 
 178   0.0000      13.320232       362.4619 
 179   0.0000      13.320489       362.4689 
 180   0.0000      13.503058       367.4369 
 181   0.0000      13.504366       367.4725 
 182   0.0000      13.504479       367.4756 
 183   0.0000      13.504755       367.4831 
 184   0.0000      13.504855       367.4858 
 185   0.0000      13.505591       367.5058 
 186   0.0000      13.506525       367.5312 
 187   0.0000      13.507605       367.5606 
 188   0.0000      13.508121       367.5747 
 189   0.0000      13.511470       367.6658 
 190   0.0000      13.517086       367.8186 
 191   0.0000      13.518462       367.8560 
 192   0.0000      13.521941       367.9507 
 193   0.0000      13.522905       367.9769 
 194   0.0000      13.524720       368.0263 
 195   0.0000      13.531951       368.2231 
 196   0.0000      13.533191       368.2569 
 197   0.0000      13.533402       368.2626 
 198   0.0000      13.602256       370.1362 
 199   0.0000      13.610934       370.3723 
 200   0.0000      13.615357       370.4927 

                    ********************************
                    * MULLIKEN POPULATION ANALYSIS *
                    ********************************

--------------------------------------------
MULLIKEN ATOMIC CHARGES AND SPIN POPULATIONS
--------------------------------------------
   0 Cu:   -0.116248    0.574654
   1 Cu:    0.058129    0.212669
   2 Cu:    0.058119    0.212677
Sum of atomic charges         :   -0.0000000
Sum of atomic spin populations:    1.0000000

-----------------------------------------------------
MULLIKEN REDUCED ORBITAL CHARGES AND SPIN POPULATIONS
-----------------------------------------------------
CHARGE
  0 Cus       :     7.057681  s :     7.057681
      pz      :     4.008157  p :    12.136510
      px      :     4.005057
      py      :     4.123296
      dz2     :     1.989994  d :     9.921873
      dxz     :     1.996905
      dyz     :     1.990961
      dx2y2   :     1.985547
      dxy     :     1.958466
      f0      :     0.000019  f :     0.000183
      f+1     :     0.000010
      f-1     :     0.000028
      f+2     :     0.000012
      f-2     :     0.000023
      f+3     :     0.000044
      f-3     :     0.000047
      g0      :     0.000000  g :     0.000001
      g+1     :     0.000000
      g-1     :     0.000000
      g+2     :     0.000000
      g-2     :     0.000000
      g+3     :     0.000000
      g-3     :     0.000000
      g+4     :     0.000000
      g-4     :     0.000000
  1 Cus       :     6.780639  s :     6.780639
      pz      :     4.009419  p :    12.209314
      px      :     4.040682
      py      :     4.159213
      dz2     :     1.993252  d :     9.951688
      dxz     :     1.995225
      dyz     :     1.997245
      dx2y2   :     1.979683
      dxy     :     1.986283
      f0      :     0.000022  f :     0.000230
      f+1     :     0.000031
      f-1     :     0.000016
      f+2     :     0.000027
      f-2     :     0.000023
      f+3     :     0.000055
      f-3     :     0.000055
      g0      :     0.000000  g :     0.000001
      g+1     :     0.000000
      g-1     :     0.000000
      g+2     :     0.000000
      g-2     :     0.000000
      g+3     :     0.000000
      g-3     :     0.000000
      g+4     :     0.000000
      g-4     :     0.000000
  2 Cus       :     6.780648  s :     6.780648
      pz      :     4.009419  p :    12.209315
      px      :     4.040683
      py      :     4.159213
      dz2     :     1.993252  d :     9.951687
      dxz     :     1.995225
      dyz     :     1.997245
      dx2y2   :     1.979682
      dxy     :     1.986283
      f0      :     0.000022  f :     0.000230
      f+1     :     0.000031
      f-1     :     0.000016
      f+2     :     0.000027
      f-2     :     0.000023
      f+3     :     0.000055
      f-3     :     0.000055
      g0      :     0.000000  g :     0.000001
      g+1     :     0.000000
      g-1     :     0.000000
      g+2     :     0.000000
      g-2     :     0.000000
      g+3     :     0.000000
      g-3     :     0.000000
      g+4     :     0.000000
      g-4     :     0.000000

SPIN
  0 Cus       :     0.515037  s :     0.515037
      pz      :    -0.000123  p :     0.049546
      px      :     0.000365
      py      :     0.049303
      dz2     :     0.000259  d :     0.010075
      dxz     :     0.000398
      dyz     :     0.000946
      dx2y2   :     0.002221
      dxy     :     0.006251
      f0      :    -0.000000  f :    -0.000003
      f+1     :    -0.000000
      f-1     :    -0.000001
      f+2     :    -0.000000
      f-2     :    -0.000000
      f+3     :    -0.000002
      f-3     :     0.000001
      g0      :     0.000000  g :     0.000000
      g+1     :     0.000000
      g-1     :     0.000000
      g+2     :     0.000000
      g-2     :     0.000000
      g+3     :    -0.000000
      g-3     :    -0.000000
      g+4     :    -0.000000
      g-4     :    -0.000000
  1 Cus       :     0.087771  s :     0.087771
      pz      :    -0.000293  p :     0.125322
      px      :     0.002785
      py      :     0.122831
      dz2     :     0.000398  d :    -0.000425
      dxz     :    -0.000168
      dyz     :    -0.000149
      dx2y2   :    -0.001093
      dxy     :     0.000586
      f0      :    -0.000000  f :    -0.000000
      f+1     :    -0.000000
      f-1     :     0.000000
      f+2     :    -0.000000
      f-2     :    -0.000000
      f+3     :     0.000001
      f-3     :    -0.000001
      g0      :    -0.000000  g :     0.000000
      g+1     :     0.000000
      g-1     :     0.000000
      g+2     :     0.000000
      g-2     :     0.000000
      g+3     :     0.000000
      g-3     :    -0.000000
      g+4     :    -0.000000
      g-4     :    -0.000000
  2 Cus       :     0.087779  s :     0.087779
      pz      :    -0.000293  p :     0.125322
      px      :     0.002785
      py      :     0.122830
      dz2     :     0.000398  d :    -0.000425
      dxz     :    -0.000168
      dyz     :    -0.000149
      dx2y2   :    -0.001093
      dxy     :     0.000587
      f0      :    -0.000000  f :    -0.000000
      f+1     :    -0.000000
      f-1     :     0.000000
      f+2     :    -0.000000
      f-2     :    -0.000000
      f+3     :     0.000001
      f-3     :    -0.000001
      g0      :    -0.000000  g :     0.000000
      g+1     :     0.000000
      g-1     :     0.000000
      g+2     :     0.000000
      g-2     :     0.000000
      g+3     :     0.000000
      g-3     :    -0.000000
      g+4     :    -0.000000
      g-4     :    -0.000000


                     *******************************
                     * LOEWDIN POPULATION ANALYSIS *
                     *******************************

-------------------------------------------
LOEWDIN ATOMIC CHARGES AND SPIN POPULATIONS
-------------------------------------------
   0 Cu:   -0.028702    0.390965
   1 Cu:    0.014351    0.304517
   2 Cu:    0.014351    0.304518

----------------------------------------------------
LOEWDIN REDUCED ORBITAL CHARGES AND SPIN POPULATIONS
----------------------------------------------------
CHARGE
  0 Cus       :     6.653257  s :     6.653257
      pz      :     4.009153  p :    12.383996
      px      :     4.020409
      py      :     4.354434
      dz2     :     2.014202  d :     9.990960
      dxz     :     1.996913
      dyz     :     1.989870
      dx2y2   :     2.005083
      dxy     :     1.984892
      f0      :     0.000042  f :     0.000487
      f+1     :     0.000030
      f-1     :     0.000078
      f+2     :     0.000022
      f-2     :     0.000056
      f+3     :     0.000159
      f-3     :     0.000100
      g0      :     0.000000  g :     0.000002
      g+1     :     0.000000
      g-1     :     0.000000
      g+2     :     0.000000
      g-2     :     0.000000
      g+3     :     0.000000
      g-3     :     0.000000
      g+4     :     0.000000
      g-4     :     0.000000
  1 Cus       :     6.535700  s :     6.535700
      pz      :     4.010611  p :    12.419725
      px      :     4.120784
      py      :     4.288329
      dz2     :     2.012455  d :    10.029653
      dxz     :     1.994481
      dyz     :     1.996734
      dx2y2   :     2.012506
      dxy     :     2.013476
      f0      :     0.000048  f :     0.000570
      f+1     :     0.000072
      f-1     :     0.000047
      f+2     :     0.000056
      f-2     :     0.000041
      f+3     :     0.000195
      f-3     :     0.000112
      g0      :     0.000000  g :     0.000002
      g+1     :     0.000000
      g-1     :     0.000000
      g+2     :     0.000000
      g-2     :     0.000000
      g+3     :     0.000000
      g-3     :     0.000000
      g+4     :     0.000000
      g-4     :     0.000000
  2 Cus       :     6.535701  s :     6.535701
      pz      :     4.010611  p :    12.419724
      px      :     4.120784
      py      :     4.288329
      dz2     :     2.012455  d :    10.029652
      dxz     :     1.994481
      dyz     :     1.996734
      dx2y2   :     2.012505
      dxy     :     2.013476
      f0      :     0.000048  f :     0.000570
      f+1     :     0.000072
      f-1     :     0.000047
      f+2     :     0.000056
      f-2     :     0.000041
      f+3     :     0.000195
      f-3     :     0.000112
      g0      :     0.000000  g :     0.000002
      g+1     :     0.000000
      g-1     :     0.000000
      g+2     :     0.000000
      g-2     :     0.000000
      g+3     :     0.000000
      g-3     :     0.000000
      g+4     :     0.000000
      g-4     :     0.000000

SPIN
  0 Cus       :     0.208648  s :     0.208648
      pz      :     0.000126  p :     0.162748
      px      :    -0.000324
      py      :     0.162945
      dz2     :     0.003714  d :     0.019562
      dxz     :    -0.000113
      dyz     :     0.000703
      dx2y2   :     0.010873
      dxy     :     0.004385
      f0      :    -0.000000  f :     0.000008
      f+1     :     0.000000
      f-1     :     0.000006
      f+2     :     0.000000
      f-2     :    -0.000000
      f+3     :     0.000002
      f-3     :    -0.000000
      g0      :     0.000000  g :     0.000000
      g+1     :     0.000000
      g-1     :     0.000000
      g+2     :     0.000000
      g-2     :     0.000000
      g+3     :    -0.000000
      g-3     :     0.000000
      g+4     :    -0.000000
      g-4     :     0.000000
  1 Cus       :     0.047621  s :     0.047621
      pz      :    -0.000077  p :     0.228387
      px      :     0.003102
      py      :     0.225363
      dz2     :     0.003134  d :     0.028487
      dxz     :    -0.000252
      dyz     :    -0.000029
      dx2y2   :     0.011662
      dxy     :     0.013972
      f0      :     0.000000  f :     0.000022
      f+1     :    -0.000000
      f-1     :     0.000006
      f+2     :     0.000000
      f-2     :     0.000000
      f+3     :     0.000017
      f-3     :    -0.000001
      g0      :     0.000000  g :     0.000000
      g+1     :     0.000000
      g-1     :     0.000000
      g+2     :     0.000000
      g-2     :     0.000000
      g+3     :     0.000000
      g-3     :    -0.000000
      g+4     :     0.000000
      g-4     :     0.000000
  2 Cus       :     0.047623  s :     0.047623
      pz      :    -0.000077  p :     0.228386
      px      :     0.003101
      py      :     0.225362
      dz2     :     0.003134  d :     0.028486
      dxz     :    -0.000252
      dyz     :    -0.000029
      dx2y2   :     0.011661
      dxy     :     0.013972
      f0      :     0.000000  f :     0.000022
      f+1     :    -0.000000
      f-1     :     0.000006
      f+2     :     0.000000
      f-2     :     0.000000
      f+3     :     0.000017
      f-3     :    -0.000001
      g0      :     0.000000  g :     0.000000
      g+1     :     0.000000
      g-1     :     0.000000
      g+2     :     0.000000
      g-2     :     0.000000
      g+3     :     0.000000
      g-3     :    -0.000000
      g+4     :     0.000000
      g-4     :     0.000000


                      *****************************
                      * MAYER POPULATION ANALYSIS *
                      *****************************

  NA   - Mulliken gross atomic population
  ZA   - Total nuclear charge
  QA   - Mulliken gross atomic charge
  VA   - Mayer's total valence
  BVA  - Mayer's bonded valence
  FA   - Mayer's free valence

  ATOM       NA         ZA         QA         VA         BVA        FA
  0 Cu    29.1162    29.0000    -0.1162     1.2971     0.9235     0.3737
  1 Cu    28.9419    29.0000     0.0581     1.3147     1.2185     0.0962
  2 Cu    28.9419    29.0000     0.0581     1.3147     1.2185     0.0962

  Mayer bond orders larger than 0.100000
B(  0-Cu,  1-Cu) :   0.4617 B(  0-Cu,  2-Cu) :   0.4617 B(  1-Cu,  2-Cu) :   0.7568 


-------
TIMINGS
-------

Total SCF time: 0 days 0 hours 0 min 12 sec 

Total time                  ....      12.343 sec
Sum of individual times     ....      12.143 sec  ( 98.4%)

Fock matrix formation       ....      11.384 sec  ( 92.2%)
  XC integration            ....       1.040 sec  (  9.1% of F)
    Basis function eval.    ....       0.081 sec  (  7.8% of XC)
    Density eval.           ....       0.099 sec  (  9.6% of XC)
    XC-Functional eval.     ....       0.026 sec  (  2.5% of XC)
    XC-Potential eval.      ....       0.185 sec  ( 17.8% of XC)
Diagonalization             ....       0.245 sec  (  2.0%)
Density matrix formation    ....       0.029 sec  (  0.2%)
Population analysis         ....       0.014 sec  (  0.1%)
Initial guess               ....       0.101 sec  (  0.8%)
Orbital Transformation      ....       0.000 sec  (  0.0%)
Orbital Orthonormalization  ....       0.000 sec  (  0.0%)
DIIS solution               ....       0.088 sec  (  0.7%)
Grid generation             ....       0.282 sec  (  2.3%)


           ************************************************************
           *        Program running with 24 parallel MPI-processes    *
           *              working on a common directory               *
           ************************************************************

------------------------------------------------------------------------------
                                ORCA  MP2 
------------------------------------------------------------------------------

Freezing NCore=30 chemical core electrons

----------------------
RI-MP2 ENERGY+GRADIENT
----------------------
Dimension of the basis                    ...  201
Memory devoted to MP2                     ... 5000 MB   
Data format for buffers                   ... DOUBLE
Compression type for matrix containers    ... UNCOMPRESSED
Overall scaling of the MP2 energy         ...   2.700e-01
Calculating two index integrals           ... done (    0.018 sec)
Cholesky decomposition of the V-matrix    ... done
Cholesky decomposition of V**-1           ... done (    0.019 sec)

-----------------
RI-TRANSFORMATION (AUX index driven)
-----------------

Dimension of the orbital-basis         ... 201
Dimension of the aux-basis             ... 675
Transformation of internal MOs         ...    0-  43
Transformation of internal/external MOs...    0-  43 to   44- 200
Number Format for Storage              ... Double (8 Byte)
Integral mode                          ... Direct

First Phase: integral generation and transformation of MO indices
  Aux angular momentum 0               ... done (    0.002 sec)
  Aux angular momentum 1               ... done (    0.004 sec)
  Aux angular momentum 2               ... done (    0.007 sec)
  Aux angular momentum 3               ... done (    0.005 sec)
  Aux angular momentum 4               ... done (    0.007 sec)
  Aux angular momentum 5               ... done (    0.011 sec)
  Aux angular momentum 6               ... done (    0.016 sec)
Closing buffer VIJ ( 0.00 GB; CompressionRatio= 1.00)
Closing buffer VIA ( 0.03 GB; CompressionRatio= 1.00)
  Phase 1 completed in     0.125 sec
Second Phase: sorting and transformation of aux index

IJ-Transformation
Memory available                       ... 4987 MB 
Max. # MO pairs treated in a batch     ... 2    
# of internal orbitals                 ... 44
# batches for internal orbitals        ... 1
Closing buffer IJV ( 0.00 GB; CompressionRatio= 1.00)
(ij|v) transformation done in     0.007 sec

IA-Transformation
Memory available                       ... 4987 MB 
Max. # MO pairs treated in a batch     ... 2    
# of internal orbitals                 ... 44
# batches for internal orbitals        ... 1
Closing buffer IAV ( 0.00 GB; CompressionRatio= 1.00)
(ia|v) transformation done in     0.021 sec

  Phase 2 completed in     0.085 sec
RI-Integral transformation completed in     0.212 sec

-----------------
RI-TRANSFORMATION (AUX index driven)
-----------------

Dimension of the orbital-basis         ... 201
Dimension of the aux-basis             ... 675
Transformation of internal MOs         ...    0-  42
Transformation of internal/external MOs...    0-  42 to   43- 200
Number Format for Storage              ... Double (8 Byte)
Integral mode                          ... Direct

First Phase: integral generation and transformation of MO indices
  Aux angular momentum 0               ... done (    0.005 sec)
  Aux angular momentum 1               ... done (    0.009 sec)
  Aux angular momentum 2               ... done (    0.010 sec)
  Aux angular momentum 3               ... done (    0.006 sec)
  Aux angular momentum 4               ... done (    0.008 sec)
  Aux angular momentum 5               ... done (    0.011 sec)
  Aux angular momentum 6               ... done (    0.015 sec)
Closing buffer VIJ ( 0.00 GB; CompressionRatio= 1.00)
Closing buffer VIA ( 0.03 GB; CompressionRatio= 1.00)
  Phase 1 completed in     0.153 sec
Second Phase: sorting and transformation of aux index

IJ-Transformation
Memory available                       ... 4987 MB 
Max. # MO pairs treated in a batch     ... 2    
# of internal orbitals                 ... 43
# batches for internal orbitals        ... 1
Closing buffer IJV ( 0.00 GB; CompressionRatio= 1.00)
(ij|v) transformation done in     0.007 sec

IA-Transformation
Memory available                       ... 4987 MB 
Max. # MO pairs treated in a batch     ... 2    
# of internal orbitals                 ... 43
# batches for internal orbitals        ... 1
Closing buffer IAV ( 0.00 GB; CompressionRatio= 1.00)
(ia|v) transformation done in     0.021 sec

  Phase 2 completed in     0.075 sec
RI-Integral transformation completed in     0.230 sec
Opening buffers                              ... done
Frozen core precalculation                   ... done

Starting loop over batches of integrals:

Operator 0  - window                       ... ( 15- 43)x( 44-200)
Operator 0  - Memory available             ...  5000 MB
Operator 0  - Memory needed per MO         ...   1.6 MB
Operator 0  - Number of orbitals per batch ... 2
Operator 0  - Number of batches            ... 1

OPERATOR  0   PASS   0:  MOs    15 ...   16 +   17 ...   18 +   19 ...   20 +   21 ...   22
                            +   23 ...   24 +   25 ...   26 +   27 ...   28 +   29 ...   30
                            +   31 ...   32 +   33 ...   34 +   35 ...   36 +   37 ...   38
                            +   39 ...   40 +   41 ...   42 +   43 ...   43
  Reading integrals       ... ok
Closing buffer GIPV ( 0.00 GB; CompressionRatio= 1.00)

Operator 1  - window                       ... ( 15- 42)x( 43-200)
Operator 1  - Memory available             ...  5000 MB
Operator 1  - Memory needed per MO         ...   1.6 MB
Operator 1  - Number of orbitals per batch ... 2
Operator 1  - Number of batches            ... 1

OPERATOR  1   PASS   0:  MOs    15 ...   16 +   17 ...   18 +   19 ...   20 +   21 ...   22
                            +   23 ...   24 +   25 ...   26 +   27 ...   28 +   29 ...   30
                            +   31 ...   32 +   33 ...   34 +   35 ...   36 +   37 ...   38
                            +   39 ...   40 +   41 ...   42
  Reading integrals       ... ok
Closing buffer GIPV ( 0.00 GB; CompressionRatio= 1.00)
Time spent in pair loops =     1.596 sec
Deleting buffer (Ka|jb)[aa] ...done
Deleting buffer (Ka|jb)[ab] ...done
Deleting buffer (Ka|jb)[ba] ...done
Deleting buffer (Ka|jb)[bb] ...done

Correlation energy components}
 E2 and T2 for alpha/alpha pairs :     -0.146184024 Eh      0.000000000
 E2 and T2 for beta/beta   pairs :     -0.141703565 Eh      0.000000000
 E2 and T2 for alpha/beta  pairs :     -0.538887035 Eh      0.000000000


-----------------------------------------------
 RI-MP2 CORRELATION ENERGY:     -0.826774623 Eh
-----------------------------------------------


---------------------
MP2 DENSITY FORMATION
---------------------

Completing the external part of the density      ... done
Storing the unrelaxed density                    ... done

Calculating the xc-kernel                        ... done
Calculating G(D)                                 ... done
Completing the Lagrangian                        ... done
Solving the Z-vector equations                   ... 

------------------------------------------------------------------------------
                           ORCA CP-SCF CALCULATION
------------------------------------------------------------------------------

Input orbitals are from        ... Cu03N0_D3H.gbw
Input Perturbation             ... Cu03N0_D3H.pin.tmp
Wavefunction output            ... Cu03N0_D3H.pout.tmp
Perturbation mode              ... Real perturbation (singlet)
Solver                         ... POPLE
Max. number of iterations      ... 128
Convergence tolerance          ... 1.000e-08
Integral handling              ... Direct
Number of perturbations        ... 1
Number of operators            ... 2
Orbital ranges used for CP-SCF:
 Operator 0:  Orbitals   0... 43  to  44...200
 Operator 1:  Orbitals   0... 42  to  43...200
DFT calculation                         ... on
Exchange functional (SCF)               ... B88
Exchange functional (CP-SCF)            ... B88
   X-Alpha parameter    XAlpha (SCF)    ...  0.666667
   X-Alpha parameter    XAlpha (CP-SCF) ...  0.666667
   Becke's b parameter  XBeta (SCF)     ...  0.004200
   Becke's b parameter  XBeta (CP-SCF)  ...  0.004200
Correlation functional (SCF)            ... LYP
Correlation functional (CP-SCF)         ... LYP
 LDA part of GGA corr.  LDAOpt (SCF)    ... VWN-3
 LDA part of GGA corr.  LDAOpt (CP-SCF) ... VWN-3
Hybrid DFT                              ... on
   Exchange mixing (SCF)                ...  0.530
   Exchange mixing (CP-SCF)             ...  0.530
   GGA exch. scaling(SCF)               ...  0.470
   GGA exch. scaling (CP-SCF)           ...  0.470
   GGA corr. scaling (SCF)              ...  0.730
   GGA corr. scaling (CP-SCF)           ...  0.730
Variables per vector in CP-SCF ... 13702
Number of vectors sought       ... 1
Recalculating density on grid  ... done
Calculating the xc-kernel      ... done
     CP-SCF ITERATION   0: 
     CP-SCF ITERATION   1:      0.001364545263
     CP-SCF ITERATION   2:      0.000301678676
     CP-SCF ITERATION   3:      0.000098453958
     CP-SCF ITERATION   4:      0.000006449440
     CP-SCF ITERATION   5:      0.000001066417
     CP-SCF ITERATION   6:      0.000000167922
     CP-SCF ITERATION   7:      0.000000026863
     CP-SCF ITERATION   8:      0.000000002743
done
Finalizing the relaxed density                   ... done
Transforming P to the AO basis                   ... done
Storing the relaxed density                      ... done

------------------------------------
ENERGY WEIGHTED DENSITY FINALIZATION
------------------------------------

Gathering the parts of the W-matrix              ... done
Forming the Z-density                            ... done
Transforming Z to the AO basis                   ... done
Calculating G(Z)                                 ... done
Finalizing the W-matrix                          ... done
Transforming W to the AO basis and storing       ... done
Entering the RIJONX and RIJCOSX sections
Starting the three-index derivative integrals:
Operator 0  - Memory available             ...  5000 MB
Operator 0  - Memory needed per MO         ...   2.1 MB
Operator 0  - Number of orbitals per batch ... 2
Operator 0  - Number of batches            ... 1

OPERATOR  0   PASS   0:  MOs    15 ...   16 +   17 ...   18 +   19 ...   20 +   21 ...   22
                            +   23 ...   24 +   25 ...   26 +   27 ...   28 +   29 ...   30
                            +   31 ...   32 +   33 ...   34 +   35 ...   36 +   37 ...   38
                            +   39 ...   40 +   41 ...   42 +   43 ...   43
Operator 1  - Memory available             ...  5000 MB
Operator 1  - Memory needed per MO         ...   2.1 MB
Operator 1  - Number of orbitals per batch ... 2
Operator 1  - Number of batches            ... 1

OPERATOR  1   PASS   0:  MOs    15 ...   16 +   17 ...   18 +   19 ...   20 +   21 ...   22
                            +   23 ...   24 +   25 ...   26 +   27 ...   28 +   29 ...   30
                            +   31 ...   32 +   33 ...   34 +   35 ...   36 +   37 ...   38
                            +   39 ...   40 +   41 ...   42

----------------------------------
MP2 DERIVATIVE INTEGRAL GENERATION
----------------------------------


Input Correlated Electron Density   ... Cu03N0_D3H.pmp2re
Input Energy Weighted Density       ... Cu03N0_D3H.wmp2.tmp
Input SCF Electron Density          ... Cu03N0_D3H.scfp

One-Electron Terms    ...
                        ... One-Electron Terms done
Prescreening matrices              ... done
Exchange-correlation gradient    ... done
Dispersion correction            ... done

                *********************************************
                * UNRELAXED MP2 DENSITY POPULATION ANALYSIS *
                *********************************************

------------------------------------------------------------------------------
                           ORCA POPULATION ANALYSIS
------------------------------------------------------------------------------
Input electron density              ... Cu03N0_D3H.pmp2ur
Input spin density                  ... Cu03N0_D3H.rmp2ur
BaseName (.gbw .S,...)              ... Cu03N0_D3H

                    ********************************
                    * MULLIKEN POPULATION ANALYSIS *
                    ********************************

------------------------------------------
MULLIKEN ATOMIC CHARGES AND SPIN DENSITIES
------------------------------------------
   0 Cu:   -0.112153    0.572687
   1 Cu:    0.056081    0.213653
   2 Cu:    0.056072    0.213661
Sum of atomic charges       :    0.0000000
Sum of atomic spin densities:    1.0000000

---------------------------------------------------
MULLIKEN REDUCED ORBITAL CHARGES AND SPIN DENSITIES
---------------------------------------------------
CHARGE
  0 Cus       :     7.051253  s :     7.051253
      pz      :     4.014335  p :    12.150943
      px      :     4.011116
      py      :     4.125492
      dz2     :     1.985860  d :     9.897992
      dxz     :     1.993345
      dyz     :     1.987006
      dx2y2   :     1.980860
      dxy     :     1.950921
      f0      :     0.001578  f :     0.011120
      f+1     :     0.001567
      f-1     :     0.001588
      f+2     :     0.001571
      f-2     :     0.001585
      f+3     :     0.001615
      f-3     :     0.001617
      g0      :     0.000094  g :     0.000845
      g+1     :     0.000094
      g-1     :     0.000094
      g+2     :     0.000094
      g-2     :     0.000094
      g+3     :     0.000094
      g-3     :     0.000094
      g+4     :     0.000094
      g-4     :     0.000094
  1 Cus       :     6.782170  s :     6.782170
      pz      :     4.014596  p :    12.217986
      px      :     4.040878
      py      :     4.162512
      dz2     :     1.989350  d :     9.931938
      dxz     :     1.991855
      dyz     :     1.994100
      dx2y2   :     1.974590
      dxy     :     1.982043
      f0      :     0.001555  f :     0.010981
      f+1     :     0.001565
      f-1     :     0.001547
      f+2     :     0.001562
      f-2     :     0.001556
      f+3     :     0.001598
      f-3     :     0.001599
      g0      :     0.000094  g :     0.000844
      g+1     :     0.000094
      g-1     :     0.000094
      g+2     :     0.000094
      g-2     :     0.000094
      g+3     :     0.000094
      g-3     :     0.000094
      g+4     :     0.000094
      g-4     :     0.000094
  2 Cus       :     6.782179  s :     6.782179
      pz      :     4.014596  p :    12.217987
      px      :     4.040878
      py      :     4.162512
      dz2     :     1.989350  d :     9.931938
      dxz     :     1.991855
      dyz     :     1.994100
      dx2y2   :     1.974590
      dxy     :     1.982043
      f0      :     0.001555  f :     0.010981
      f+1     :     0.001565
      f-1     :     0.001547
      f+2     :     0.001562
      f-2     :     0.001556
      f+3     :     0.001598
      f-3     :     0.001599
      g0      :     0.000094  g :     0.000844
      g+1     :     0.000094
      g-1     :     0.000094
      g+2     :     0.000094
      g-2     :     0.000094
      g+3     :     0.000094
      g-3     :     0.000094
      g+4     :     0.000094
      g-4     :     0.000094

SPIN
  0 Cus       :     0.506481  s :     0.506481
      pz      :     0.000472  p :     0.053954
      px      :     0.001565
      py      :     0.051918
      dz2     :     0.000627  d :     0.012297
      dxz     :     0.000655
      dyz     :     0.001225
      dx2y2   :     0.002823
      dxy     :     0.006967
      f0      :    -0.000007  f :    -0.000044
      f+1     :    -0.000007
      f-1     :    -0.000007
      f+2     :    -0.000006
      f-2     :    -0.000006
      f+3     :    -0.000007
      f-3     :    -0.000004
      g0      :    -0.000000  g :    -0.000002
      g+1     :    -0.000000
      g-1     :    -0.000000
      g+2     :    -0.000000
      g-2     :    -0.000000
      g+3     :    -0.000000
      g-3     :    -0.000000
      g+4     :    -0.000000
      g-4     :    -0.000000
  1 Cus       :     0.087162  s :     0.087162
      pz      :    -0.000253  p :     0.125912
      px      :     0.002727
      py      :     0.123438
      dz2     :     0.000476  d :     0.000590
      dxz     :    -0.000140
      dyz     :     0.000022
      dx2y2   :    -0.000859
      dxy     :     0.001090
      f0      :    -0.000001  f :    -0.000010
      f+1     :    -0.000002
      f-1     :    -0.000001
      f+2     :    -0.000002
      f-2     :    -0.000002
      f+3     :    -0.000000
      f-3     :    -0.000002
      g0      :    -0.000000  g :    -0.000001
      g+1     :    -0.000000
      g-1     :    -0.000000
      g+2     :    -0.000000
      g-2     :    -0.000000
      g+3     :    -0.000000
      g-3     :    -0.000000
      g+4     :    -0.000000
      g-4     :    -0.000000
  2 Cus       :     0.087170  s :     0.087170
      pz      :    -0.000253  p :     0.125912
      px      :     0.002727
      py      :     0.123438
      dz2     :     0.000476  d :     0.000590
      dxz     :    -0.000140
      dyz     :     0.000022
      dx2y2   :    -0.000859
      dxy     :     0.001090
      f0      :    -0.000001  f :    -0.000010
      f+1     :    -0.000002
      f-1     :    -0.000001
      f+2     :    -0.000002
      f-2     :    -0.000002
      f+3     :    -0.000000
      f-3     :    -0.000002
      g0      :    -0.000000  g :    -0.000001
      g+1     :    -0.000000
      g-1     :    -0.000000
      g+2     :    -0.000000
      g-2     :    -0.000000
      g+3     :    -0.000000
      g-3     :    -0.000000
      g+4     :    -0.000000
      g-4     :    -0.000000


                     *******************************
                     * LOEWDIN POPULATION ANALYSIS *
                     *******************************

-----------------------------------------
LOEWDIN ATOMIC CHARGES AND SPIN DENSITIES
-----------------------------------------
   0 Cu:   -0.027175    0.392442
   1 Cu:    0.013588    0.303778
   2 Cu:    0.013587    0.303780

--------------------------------------------------
LOEWDIN REDUCED ORBITAL CHARGES AND SPIN DENSITIES
--------------------------------------------------
CHARGE
  0 Cus       :     6.646680  s :     6.646680
      pz      :     4.014904  p :    12.398179
      px      :     4.028169
      py      :     4.355106
      dz2     :     2.010362  d :     9.969973
      dxz     :     1.993381
      dyz     :     1.986043
      dx2y2   :     2.000613
      dxy     :     1.979575
      f0      :     0.001605  f :     0.011498
      f+1     :     0.001594
      f-1     :     0.001656
      f+2     :     0.001582
      f-2     :     0.001622
      f+3     :     0.001764
      f-3     :     0.001675
      g0      :     0.000094  g :     0.000846
      g+1     :     0.000094
      g-1     :     0.000094
      g+2     :     0.000094
      g-2     :     0.000094
      g+3     :     0.000094
      g-3     :     0.000094
      g+4     :     0.000094
      g-4     :     0.000094
  1 Cus       :     6.531547  s :     6.531547
      pz      :     4.015668  p :    12.430262
      px      :     4.124021
      py      :     4.290573
      dz2     :     2.009078  d :    10.012369
      dxz     :     1.991176
      dyz     :     1.993768
      dx2y2   :     2.008651
      dxy     :     2.009696
      f0      :     0.001583  f :     0.011390
      f+1     :     0.001620
      f-1     :     0.001586
      f+2     :     0.001594
      f-2     :     0.001576
      f+3     :     0.001770
      f-3     :     0.001661
      g0      :     0.000094  g :     0.000845
      g+1     :     0.000094
      g-1     :     0.000094
      g+2     :     0.000094
      g-2     :     0.000094
      g+3     :     0.000094
      g-3     :     0.000094
      g+4     :     0.000094
      g-4     :     0.000094
  2 Cus       :     6.531548  s :     6.531548
      pz      :     4.015668  p :    12.430262
      px      :     4.124021
      py      :     4.290573
      dz2     :     2.009078  d :    10.012368
      dxz     :     1.991175
      dyz     :     1.993768
      dx2y2   :     2.008651
      dxy     :     2.009696
      f0      :     0.001583  f :     0.011390
      f+1     :     0.001620
      f-1     :     0.001586
      f+2     :     0.001594
      f-2     :     0.001576
      f+3     :     0.001770
      f-3     :     0.001661
      g0      :     0.000094  g :     0.000845
      g+1     :     0.000094
      g-1     :     0.000094
      g+2     :     0.000094
      g-2     :     0.000094
      g+3     :     0.000094
      g-3     :     0.000094
      g+4     :     0.000094
      g-4     :     0.000094

SPIN
  0 Cus       :     0.206817  s :     0.206817
      pz      :     0.000581  p :     0.164251
      px      :     0.000213
      py      :     0.163456
      dz2     :     0.003947  d :     0.021411
      dxz     :     0.000100
      dyz     :     0.001062
      dx2y2   :     0.011215
      dxy     :     0.005087
      f0      :    -0.000007  f :    -0.000034
      f+1     :    -0.000007
      f-1     :    -0.000001
      f+2     :    -0.000006
      f-2     :    -0.000006
      f+3     :    -0.000004
      f-3     :    -0.000005
      g0      :    -0.000000  g :    -0.000002
      g+1     :    -0.000000
      g-1     :    -0.000000
      g+2     :    -0.000000
      g-2     :    -0.000000
      g+3     :    -0.000000
      g-3     :    -0.000000
      g+4     :    -0.000000
      g-4     :    -0.000000
  1 Cus       :     0.048090  s :     0.048090
      pz      :    -0.000052  p :     0.226517
      px      :     0.003347
      py      :     0.223223
      dz2     :     0.003274  d :     0.029160
      dxz     :    -0.000244
      dyz     :     0.000228
      dx2y2   :     0.011737
      dxy     :     0.014165
      f0      :    -0.000001  f :     0.000012
      f+1     :    -0.000002
      f-1     :     0.000004
      f+2     :    -0.000002
      f-2     :    -0.000001
      f+3     :     0.000015
      f-3     :    -0.000002
      g0      :    -0.000000  g :    -0.000001
      g+1     :    -0.000000
      g-1     :    -0.000000
      g+2     :    -0.000000
      g-2     :    -0.000000
      g+3     :    -0.000000
      g-3     :    -0.000000
      g+4     :    -0.000000
      g-4     :    -0.000000
  2 Cus       :     0.048093  s :     0.048093
      pz      :    -0.000052  p :     0.226517
[...]
      f+2     :    -0.000002
      f-2     :    -0.000001
      f+3     :     0.000018
      f-3     :    -0.000001
      g0      :    -0.000000  g :    -0.000001
      g+1     :    -0.000000
      g-1     :    -0.000000
      g+2     :    -0.000000
      g-2     :    -0.000000
      g+3     :    -0.000000
      g-3     :    -0.000000
      g+4     :    -0.000000
      g-4     :    -0.000000
  2 Cus       :     0.050095  s :     0.050095
      pz      :     0.000072  p :     0.200959
      px      :     0.003349
      py      :     0.197538
      dz2     :     0.003208  d :     0.036280
      dxz     :    -0.000334
      dyz     :     0.000068
      dx2y2   :     0.017445
      dxy     :     0.015893
      f0      :    -0.000001  f :     0.000015
      f+1     :    -0.000002
      f-1     :     0.000005
      f+2     :    -0.000002
      f-2     :    -0.000001
      f+3     :     0.000018
      f-3     :    -0.000001
      g0      :    -0.000000  g :    -0.000001
      g+1     :    -0.000000
      g-1     :    -0.000000
      g+2     :    -0.000000
      g-2     :    -0.000000
      g+3     :    -0.000000
      g-3     :    -0.000000
      g+4     :    -0.000000
      g-4     :    -0.000000


                      *****************************
                      * MAYER POPULATION ANALYSIS *
                      *****************************

  NA   - Mulliken gross atomic population
  ZA   - Total nuclear charge
  QA   - Mulliken gross atomic charge
  VA   - Mayer's total valence
  BVA  - Mayer's bonded valence
  FA   - Mayer's free valence

  ATOM       NA         ZA         QA         VA         BVA        FA
  0 Cu    29.0970    29.0000    -0.0970     1.5860     0.7248     0.8612
  1 Cu    28.9515    29.0000     0.0485     1.6693     1.1524     0.5170
  2 Cu    28.9515    29.0000     0.0485     1.6693     1.1523     0.5170

  Mayer bond orders larger than 0.100000
B(  0-Cu,  1-Cu) :   0.3624 B(  0-Cu,  2-Cu) :   0.3624 B(  1-Cu,  2-Cu) :   0.7899 



-------
TIMINGS
-------

Total time                :   26.137 sec
Integral trafo            :    0.470 sec (  1.8%)
FC preparation            :    0.134 sec (  0.5%)
I/O of integrals          :    0.008 sec (  0.0%)
K(i,j) Operators          :    0.171 sec (  0.7%)
T(i,j) pair energies      :    0.021 sec (  0.1%)
V-calculation             :    0.017 sec (  0.1%)
V**(-1/2)                 :    0.018 sec (  0.1%)
Gamma(ia|P)               :    0.118 sec (  0.5%)
Gamma-Trafo               :    0.028 sec (  0.1%)
D(virtual)                :    0.015 sec (  0.1%)
D(internal)               :    0.216 sec (  0.8%)
W(virtual)                :    0.015 sec (  0.1%)
W(internal)               :    0.139 sec (  0.5%)
L(virtual)                :    0.725 sec (  2.8%)
L(internal)               :    0.007 sec (  0.0%)
G(D)                      :    2.228 sec (  8.5%)
G(Z)                      :    2.161 sec (  8.3%)
Z-Vector Solution         :   10.254 sec ( 39.2%)
Z-Vector Solution         :   10.254 sec ( 39.2%)
3-Index Derivative 
+ Separable RIJ part      :    4.150 sec ( 15.9%)
2-Index Derivative 
+ Separable RIJ part      :    0.012 sec (  0.0%)
Separable Gradient (X)    :    4.439 sec ( 17.0%)


---------------------------------------
MP2 TOTAL ENERGY:    -4921.053092112 Eh
---------------------------------------

-----------------------------------
NORM OF THE MP2 GRADIENT:  0.000021
-----------------------------------


-------------------------------------------------------------------------------
                          DFT DISPERSION CORRECTION                            
                                                                               
                              DFTD3 V3.1  Rev 1                                
                          USING Becke-Johnson damping                          
-------------------------------------------------------------------------------
The B2PLYP functional is recognized
Active option DFTDOPT                   ...         4   

molecular C6(AA) [au] = 1575.132022 


            DFT-D V3
 parameters
 s6 scaling factor         :     0.6400 
 a1 scaling factor         :     0.3065 
 s8 scaling factor         :     0.9147 
 a2 scaling factor         :     5.0570 
 ad hoc parameters k1-k3   :    16.0000     1.3333    -4.0000 

 Edisp/kcal,au: -2.596590772791  -0.004137930347 
 E6   /kcal   :  -0.876917544 
 E8   /kcal   :  -1.719673228 
 % E8         :  66.228119057 

-------------------------   ----------------
Dispersion correction           -0.004137930
-------------------------   ----------------


-------------------------   --------------------
FINAL SINGLE POINT ENERGY     -4921.057230042605
-------------------------   --------------------

                                *** OPTIMIZATION RUN DONE ***

                            ***************************************
                            *     ORCA property calculations      *
                            ***************************************

                                    ---------------------
                                    Active property flags
                                    ---------------------
   (+) Dipole Moment


------------------------------------------------------------------------------
                       ORCA ELECTRIC PROPERTIES CALCULATION
------------------------------------------------------------------------------

Dipole Moment Calculation                       ... on
Quadrupole Moment Calculation                   ... off
Polarizability Calculation                      ... off
GBWName                                         ... Cu03N0_D3H.gbw
Electron density file                           ... Cu03N0_D3H.scfp
The origin for moment calculation is the CENTER OF MASS  = (-0.000000,  0.000000  0.000000)

-------------
DIPOLE MOMENT
-------------
                                X             Y             Z
Electronic contribution:      0.00000      -0.38986       0.00000
Nuclear contribution   :      0.00000       0.00000       0.00000
                        -----------------------------------------
Total Dipole Moment    :      0.00000      -0.38986       0.00000
                        -----------------------------------------
Magnitude (a.u.)       :      0.38986
Magnitude (Debye)      :      0.99095



--------------------
Rotational spectrum 
--------------------
 
Rotational constants in cm-1:     0.097343     0.081781     0.044443 
Rotational constants in MHz :  2918.276504  2451.729529  1332.368090 

 Dipole components along the rotational axes: 
x,y,z [a.u.] :     0.389862    -0.000005     0.000000 
x,y,z [Debye]:     0.990950    -0.000013     0.000000 

 

                         *** MP2 UNRELAXED DENSITY ***

------------------------------------------------------------------------------
                       ORCA ELECTRIC PROPERTIES CALCULATION
------------------------------------------------------------------------------

Dipole Moment Calculation                       ... on
Quadrupole Moment Calculation                   ... off
Polarizability Calculation                      ... off
GBWName                                         ... Cu03N0_D3H.gbw
Electron density file                           ... Cu03N0_D3H.pmp2ur
The origin for moment calculation is the CENTER OF MASS  = (-0.000000,  0.000000  0.000000)

-------------
DIPOLE MOMENT
-------------
                                X             Y             Z
Electronic contribution:      0.00000      -0.38180       0.00000
Nuclear contribution   :      0.00000       0.00000       0.00000
                        -----------------------------------------
Total Dipole Moment    :      0.00000      -0.38180       0.00000
                        -----------------------------------------
Magnitude (a.u.)       :      0.38180
Magnitude (Debye)      :      0.97045



--------------------
Rotational spectrum 
--------------------
 
Rotational constants in cm-1:     0.097343     0.081781     0.044443 
Rotational constants in MHz :  2918.276504  2451.729529  1332.368090 

 Dipole components along the rotational axes: 
x,y,z [a.u.] :     0.381797    -0.000005     0.000000 
x,y,z [Debye]:     0.970451    -0.000013     0.000000 

 

                           *** MP2 RELAXED DENSITY ***

------------------------------------------------------------------------------
                       ORCA ELECTRIC PROPERTIES CALCULATION
------------------------------------------------------------------------------

Dipole Moment Calculation                       ... on
Quadrupole Moment Calculation                   ... off
Polarizability Calculation                      ... off
GBWName                                         ... Cu03N0_D3H.gbw
Electron density file                           ... Cu03N0_D3H.pmp2re
The origin for moment calculation is the CENTER OF MASS  = (-0.000000,  0.000000  0.000000)

-------------
DIPOLE MOMENT
-------------
                                X             Y             Z
Electronic contribution:      0.00000      -0.38487       0.00000
Nuclear contribution   :      0.00000       0.00000       0.00000
                        -----------------------------------------
Total Dipole Moment    :      0.00000      -0.38487       0.00000
                        -----------------------------------------
Magnitude (a.u.)       :      0.38487
Magnitude (Debye)      :      0.97826



--------------------
Rotational spectrum 
--------------------
 
Rotational constants in cm-1:     0.097343     0.081781     0.044443 
Rotational constants in MHz :  2918.276504  2451.729529  1332.368090 

 Dipole components along the rotational axes: 
x,y,z [a.u.] :     0.384868    -0.000006     0.000000 
x,y,z [Debye]:     0.978256    -0.000015     0.000000 

 

----------------------------------------------------------------------------
                           ORCA NUMERICAL FREQUENCIES
                              (24-process run)
----------------------------------------------------------------------------

Number of atoms                ... 3
Central differences            ... used
Number of displacements        ... 18
Numerical increment            ... 5.000e-03 bohr
IR-spectrum generation         ... on
Raman-spectrum generation      ... off
Surface Crossing Hessian       ... off

 WARNING: There are more processes than displacements to do
  ====> : Reducing number of processes to   9

The output will be reduced. Please look at the following files:
SCF program output             ... >Cu03N0_D3H.lastscf
Integral program output        ... >Cu03N0_D3H.lastint
Gradient program output        ... >Cu03N0_D3H.lastgrad
Dipole moment program output   ... >Cu03N0_D3H.lastmom
AutoCI program output          ... >Cu03N0_D3H.lastautoci


         <<< Energy and Gradient at the input geometry >>>

        <<< Energy and Gradient at displaced geometries >>>
             <<<Displacing   3/coordinate 1 (+)>>>
             <<<Displacing   2/coordinate 3 (+)>>>
             <<<Displacing   1/coordinate 3 (+)>>>
             <<<Displacing   3/coordinate 2 (+)>>>
             <<<Displacing   2/coordinate 1 (+)>>>
             <<<Displacing   3/coordinate 3 (+)>>>
             <<<Displacing   1/coordinate 1 (+)>>>
             <<<Displacing   2/coordinate 2 (+)>>>
             <<<Displacing   1/coordinate 2 (+)>>>
             <<<Displacing   3/coordinate 3 (-)>>>
             <<<Displacing   2/coordinate 3 (-)>>>
             <<<Displacing   1/coordinate 3 (-)>>>
             <<<Displacing   3/coordinate 1 (-)>>>
             <<<Displacing   1/coordinate 2 (-)>>>
             <<<Displacing   2/coordinate 1 (-)>>>
             <<<Displacing   1/coordinate 1 (-)>>>
             <<<Displacing   3/coordinate 2 (-)>>>
             <<<Displacing   2/coordinate 2 (-)>>>

-----------------------
VIBRATIONAL FREQUENCIES
-----------------------

Scaling factor for frequencies =  1.000000000 (already applied!)

   0:         0.00 cm**-1
   1:         0.00 cm**-1
   2:         0.00 cm**-1
   3:         0.00 cm**-1
   4:         0.00 cm**-1
   5:         0.00 cm**-1
   6:       -93.04 cm**-1 ***imaginary mode***
   7:       180.50 cm**-1
   8:       244.38 cm**-1


------------
NORMAL MODES
------------

These modes are the cartesian displacements weighted by the diagonal matrix
M(i,i)=1/sqrt(m[i]) where m[i] is the mass of the displaced atom
Thus, these vectors are normalized but *not* orthogonal

                  0          1          2          3          4          5    
      0       0.000000   0.000000   0.000000   0.000000   0.000000   0.000000
      1       0.000000   0.000000   0.000000   0.000000   0.000000   0.000000
      2       0.000000   0.000000   0.000000   0.000000   0.000000   0.000000
      3       0.000000   0.000000   0.000000   0.000000   0.000000   0.000000
      4       0.000000   0.000000   0.000000   0.000000   0.000000   0.000000
      5       0.000000   0.000000   0.000000   0.000000   0.000000   0.000000
      6       0.000000   0.000000   0.000000   0.000000   0.000000   0.000000
      7       0.000000   0.000000   0.000000   0.000000   0.000000   0.000000
      8       0.000000   0.000000   0.000000   0.000000   0.000000   0.000000
                   6          7          8    
      0       0.551700   0.000065   0.000039
      1      -0.000111   0.737873   0.349586
      2       0.000000   0.000000   0.000000
      3      -0.275861  -0.302783   0.638997
      4       0.521323  -0.368876  -0.174756
      5       0.000000   0.000000   0.000000
      6      -0.275840   0.302719  -0.639036
      7      -0.521212  -0.368997  -0.174831
      8       0.000000   0.000000   0.000000


-----------
IR SPECTRUM  
-----------

 Mode    freq (cm**-1)   T**2         TX         TY         TZ
-------------------------------------------------------------------
   7:       180.50    0.092040  ( -0.001973  -0.303375  -0.000012)
   8:       244.38    0.754150  ( -0.000917  -0.868417  -0.000002)

The first frequency considered to be a vibration is 7
The total number of vibrations considered is 2


--------------------------
THERMOCHEMISTRY AT 298.15K
--------------------------

Temperature         ... 298.15 K
Pressure            ... 1.00 atm
Total Mass          ... 190.65 AMU

Throughout the following assumptions are being made:
  (1) The electronic state is orbitally nondegenerate
      but the spin degeneracy is treated
  (2) There are no thermally accessible electronically excited states
  (3) Hindered rotations indicated by low frequency modes are not
      treated as such but are treated as vibrations and this may
      cause some error
  (4) All equations used are the standard statistical mechanics
      equations for an ideal gas
  (5) All vibrations are strictly harmonic

freq.     180.50  E(vib)   ...       0.37 
freq.     244.38  E(vib)   ...       0.31 

------------
INNER ENERGY
------------

The inner energy is: U= E(el) + E(ZPE) + E(vib) + E(rot) + E(trans)
    E(el)   - is the total energy from the electronic structure calculation
              = E(kin-el) + E(nuc-el) + E(el-el) + E(nuc-nuc)
    E(ZPE)  - the the zero temperature vibrational energy from the frequency calculation
    E(vib)  - the the finite temperature correction to E(ZPE) due to population
              of excited vibrational states
    E(rot)  - is the rotational thermal energy
    E(trans)- is the translational thermal energy

Summary of contributions to the inner energy U:
Electronic energy                ...  -4921.05723005 Eh
Zero point energy                ...      0.00096795 Eh       0.61 kcal/mol
Thermal vibrational correction   ...      0.00108639 Eh       0.68 kcal/mol
Thermal rotational correction    ...      0.00141627 Eh       0.89 kcal/mol
Thermal translational correction ...      0.00141627 Eh       0.89 kcal/mol
-----------------------------------------------------------------------
Total thermal energy                  -4921.05234316 Eh


Summary of corrections to the electronic energy:
(perhaps to be used in another calculation)
Total thermal correction                  0.00391894 Eh       2.46 kcal/mol
Non-thermal (ZPE) correction              0.00096795 Eh       0.61 kcal/mol
-----------------------------------------------------------------------
Total correction                          0.00488688 Eh       3.07 kcal/mol


--------
ENTHALPY
--------

The enthalpy is H = U + kB*T
                kB is Boltzmann's constant
Total free energy                 ...  -4921.05234316 Eh 
Thermal Enthalpy correction       ...      0.00094421 Eh       0.59 kcal/mol
-----------------------------------------------------------------------
Total Enthalpy                    ...  -4921.05139896 Eh


Note: Rotational entropy computed according to Herzberg 
Infrared and Raman Spectra, Chapter V,1, Van Nostrand Reinhold, 1945 
Point Group:  Cs, Symmetry Number:   1  
Rotational constants in cm-1:     0.097343     0.081781     0.044443 

Vibrational entropy computed according to the QRRHO of S. Grimme
Chem.Eur.J. 2012 18 9955


-------
ENTROPY
-------

The entropy contributions are T*S = T*(S(el)+S(vib)+S(rot)+S(trans))
     S(el)   - electronic entropy
     S(vib)  - vibrational entropy
     S(rot)  - rotational entropy
     S(trans)- translational entropy
The entropies will be listed as mutliplied by the temperature to get
units of energy

Electronic entropy                ...      0.00065446 Eh      0.41 kcal/mol
Vibrational entropy               ...      0.00194553 Eh      1.22 kcal/mol
Rotational entropy                ...      0.01326241 Eh      8.32 kcal/mol
Translational entropy             ...      0.01978512 Eh     12.42 kcal/mol
-----------------------------------------------------------------------
Final entropy term                ...      0.03564751 Eh     22.37 kcal/mol

In case the symmetry of your molecule has not been determined correctly
or in case you have a reason to use a different symmetry number we print 
out the resulting rotational entropy values for sn=1,12 :
 --------------------------------------------------------
|  sn= 1 | S(rot)=       0.01326241 Eh      8.32 kcal/mol|
|  sn= 2 | S(rot)=       0.01260795 Eh      7.91 kcal/mol|
|  sn= 3 | S(rot)=       0.01222512 Eh      7.67 kcal/mol|
|  sn= 4 | S(rot)=       0.01195349 Eh      7.50 kcal/mol|
|  sn= 5 | S(rot)=       0.01174280 Eh      7.37 kcal/mol|
|  sn= 6 | S(rot)=       0.01157066 Eh      7.26 kcal/mol|
|  sn= 7 | S(rot)=       0.01142511 Eh      7.17 kcal/mol|
|  sn= 8 | S(rot)=       0.01129904 Eh      7.09 kcal/mol|
|  sn= 9 | S(rot)=       0.01118783 Eh      7.02 kcal/mol|
|  sn=10 | S(rot)=       0.01108835 Eh      6.96 kcal/mol|
|  sn=11 | S(rot)=       0.01099836 Eh      6.90 kcal/mol|
|  sn=12 | S(rot)=       0.01091620 Eh      6.85 kcal/mol|
 --------------------------------------------------------


-------------------
GIBBS FREE ENERGY
-------------------

The Gibbs free energy is G = H - T*S

Total enthalpy                    ...  -4921.05139896 Eh 
Total entropy correction          ...     -0.03564751 Eh    -22.37 kcal/mol
-----------------------------------------------------------------------
Final Gibbs free energy         ...  -4921.08704647 Eh

For completeness - the Gibbs free energy minus the electronic energy
G-E(el)                           ...     -0.02981642 Eh    -18.71 kcal/mol


Total Time for Numerical Frequencies  :       485.495 sec

Timings for individual modules:

Sum of individual times         ...      243.883 sec (=   4.065 min)
GTO integral calculation        ...        5.412 sec (=   0.090 min)   2.2 %
SCF iterations                  ...       50.643 sec (=   0.844 min)  20.8 %
MP2 module                      ...      187.631 sec (=   3.127 min)  76.9 %
Geometry relaxation             ...        0.196 sec (=   0.003 min)   0.1 %
                             ****ORCA TERMINATED NORMALLY****
TOTAL RUN TIME: 0 days 0 hours 11 minutes 41 seconds 25 msec
