
                                 *****************
                                 * O   R   C   A *
                                 *****************

           --- An Ab Initio, DFT and Semiempirical electronic structure package ---

                  #######################################################
                  #                        -***-                        #
                  #          Department of theory and spectroscopy      #
                  #               Directorship: Frank Neese             #
                  #        Max Planck Institute fuer Kohlenforschung    #
                  #                Kaiser Wilhelm Platz 1               #
                  #                 D-45470 Muelheim/Ruhr               #
                  #                      Germany                        #
                  #                                                     #
                  #                  All rights reserved                #
                  #                        -***-                        #
                  #######################################################


                         Program Version 4.2.0 -  RELEASE  -


 With contributions from (in alphabetic order):
   Daniel Aravena         : Magnetic Suceptibility
   Michael Atanasov       : Ab Initio Ligand Field Theory (pilot matlab implementation)
   Alexander A. Auer      : GIAO ZORA, VPT2
   Ute Becker             : Parallelization
   Giovanni Bistoni       : ED, misc. LED, open-shell LED, HFLED
   Martin Brehm           : Molecular dynamics
   Dmytro Bykov           : SCF Hessian
   Vijay G. Chilkuri      : MRCI spin determinant printing, contributions to CSF-ICE
   Dipayan Datta          : RHF DLPNO-CCSD density
   Achintya Kumar Dutta   : EOM-CC, STEOM-CC
   Dmitry Ganyushin       : Spin-Orbit,Spin-Spin,Magnetic field MRCI
   Miquel Garcia          : C-PCM Hessian, Gaussian charge scheme
   Yang Guo               : DLPNO-NEVPT2, CIM, IAO-localization
   Andreas Hansen         : Spin unrestricted coupled pair/coupled cluster methods
   Benjamin Helmich-Paris : CASSCF linear response (MC-RPA)
   Lee Huntington         : MR-EOM, pCC
   Robert Izsak           : Overlap fitted RIJCOSX, COSX-SCS-MP3, EOM
   Christian Kollmar      : KDIIS, OOCD, Brueckner-CCSD(T), CCSD density
   Simone Kossmann        : Meta GGA functionals, TD-DFT gradient, OOMP2, MP2 Hessian
   Martin Krupicka        : AUTO-CI
   Lucas Lang             : DCDCAS
   Dagmar Lenk            : GEPOL surface, SMD
   Dimitrios Liakos       : Extrapolation schemes; Compound Job, initial MDCI parallelization
   Dimitrios Manganas     : Further ROCIS development; embedding schemes
   Dimitrios Pantazis     : SARC Basis sets
   Taras Petrenko         : DFT Hessian,TD-DFT gradient, ASA, ECA, R-Raman, ABS, FL, XAS/XES, NRVS
   Peter Pinski           : DLPNO-MP2, DLPNO-MP2 Gradient
   Christoph Reimann      : Effective Core Potentials
   Marius Retegan         : Local ZFS, SOC
   Christoph Riplinger    : Optimizer, TS searches, QM/MM, DLPNO-CCSD(T), (RO)-DLPNO pert. Triples
   Tobias Risthaus        : Range-separated hybrids, TD-DFT gradient, RPA, STAB
   Michael Roemelt        : Original ROCIS implementation
   Masaaki Saitow         : Open-shell DLPNO-CCSD energy and density
   Barbara Sandhoefer     : DKH picture change effects
   Avijit Sen             : IP-ROCIS
   Kantharuban Sivalingam : CASSCF convergence, NEVPT2, FIC-MRCI
   Bernardo de Souza      : ESD, SOC TD-DFT
   Georgi Stoychev        : AutoAux, RI-MP2 NMR
   Willem Van den Heuvel  : Paramagnetic NMR
   Boris Wezisla          : Elementary symmetry handling
   Frank Wennmohs         : Technical directorship


 We gratefully acknowledge several colleagues who have allowed us to
 interface, adapt or use parts of their codes:
   Stefan Grimme, W. Hujo, H. Kruse,             : VdW corrections, initial TS optimization,
                  C. Bannwarth                     DFT functionals, gCP, sTDA/sTD-DF
   Ed Valeev, F. Pavosevic, A. Kumar             : LibInt (2-el integral package), F12 methods
   Garnet Chan, S. Sharma, J. Yang, R. Olivares  : DMRG
   Ulf Ekstrom                                   : XCFun DFT Library
   Mihaly Kallay                                 : mrcc  (arbitrary order and MRCC methods)
   Andreas Klamt, Michael Diedenhofen            : otool_cosmo (COSMO solvation model)
   Jiri Pittner, Ondrej Demel                    : Mk-CCSD
   Frank Weinhold                                : gennbo (NPA and NBO analysis)
   Christopher J. Cramer and Donald G. Truhlar   : smd solvation model
   Lars Goerigk                                  : TD-DFT with DH, B97 family of functionals
   V. Asgeirsson, H. Jonsson                     : NEB implementation
   FAccTs GmbH                                   : IRC, NEB, NEB-TS, Multilevel, MM, QM/MM, CI optimization
   S Lehtola, MJT Oliveira, MAL Marques          : LibXC Library


 Your calculation uses the libint2 library for the computation of 2-el integrals
 For citations please refer to: http://libint.valeyev.net

 Your ORCA version has been built with support for libXC version: 4.2.3
 For citations please refer to: https://tddft.org/programs/libxc/

 This ORCA versions uses:
   CBLAS   interface :  Fast vector & matrix operations
   LAPACKE interface :  Fast linear algebra routines
   SCALAPACK package :  Parallel linear algebra routines


Your calculation utilizes the atom-pairwise dispersion correction
with the Becke-Johnson damping scheme (D3BJ)
Cite in your paper:
S.Grimme, S.Ehrlich, L.Goerigk, J Comput Chem, (2011), 32, 1456–1465 
S.Grimme, J.Antony, S.Ehrlich and H.Krieg, J.Chem.Phys., 132, (2010), 154104 
   

----- Orbital basis set information -----
Your calculation utilizes the basis: def2-TZVPPD
   F. Weigend and R. Ahlrichs, Phys. Chem. Chem. Phys. 7, 3297 (2005).
   D. Rappoport and F. Furche, J. Chem. Phys. 133 134105 (2010).

----- AuxC basis set information -----
Your calculation utilizes the auxiliary basis: def2-TZVPPD/C
   A. Hellweg, C. Hattig, S. Hofener and W. Klopper, Theor. Chem. Acc. 117, 587 (2007).

----- AuxJK basis set information -----
Your calculation utilizes the auxiliary basis: def2/JK
   H-Ba, Hf-Rn: F. Weigend, J. Comput. Chem. 29, 167 (2008).

================================================================================
                                        WARNINGS
                       Please study these warnings very carefully!
================================================================================


WARNING: your system is open-shell and RHF/RKS was chosen
  ===> : WILL SWITCH to UHF/UKS


WARNING: The frozen-core approximation for MP2-gradient calculations is turned on by default.

WARNING: Geometry Optimization
  ===> : Switching off AutoStart
         For restart on a previous wavefunction, please use MOREAD

WARNING: The frozen-core approximation is turned on by default for 
         the MP2 part of double-hybrid DFT.

INFO   : the flag for use of LIBINT has been found!

================================================================================
                                       INPUT FILE
================================================================================
NAME = Cu03N0_LIN.in
|  1> #
|  2> # Cu03N0_LIN ri-B2PLYP-D3BJ/Def2-TZVPPD
|  3> #
|  4> ! rijk ri-b2plyp d3bj def2-tzvppd def2/jk def2-tzvppd/c grid4 nofinalgrid opt xyzfile numfreq
|  5> 
|  6> *xyz 0 2
|  7> Cu       0.000000    0.000000    0.000000 
|  8> Cu       0.000000    0.000000    2.291099 
|  9> Cu       0.000000    0.000000   -2.291099 
| 10> *
| 11> 
| 12> %maxcore 5000
| 13> 
| 14> %pal
| 15> nprocs = 24
| 16> end
| 17> 
| 18> 
| 19>                          ****END OF INPUT****
================================================================================

                       *****************************
                       * Geometry Optimization Run *
                       *****************************

Geometry optimization settings:
Update method            Update   .... BFGS
Choice of coordinates    CoordSys .... Z-matrix Internals
Initial Hessian          InHess   .... Almoef's Model

Convergence Tolerances:
Energy Change            TolE     ....  5.0000e-06 Eh
Max. Gradient            TolMAXG  ....  3.0000e-04 Eh/bohr
RMS Gradient             TolRMSG  ....  1.0000e-04 Eh/bohr
Max. Displacement        TolMAXD  ....  4.0000e-03 bohr
RMS Displacement         TolRMSD  ....  2.0000e-03 bohr
Strict Convergence                ....  False
------------------------------------------------------------------------------
                        ORCA OPTIMIZATION COORDINATE SETUP
------------------------------------------------------------------------------

The optimization will be done in new redundant internal coordinates
Making redundant internal coordinates   ...  (new redundants) done
Evaluating the initial hessian          ...  (Almloef) done
Evaluating the coordinates              ...  done
Calculating the B-matrix                .... done
Calculating the G-matrix                .... done
Diagonalizing the G-matrix              .... done
The first mode is                       ....    0
The number of degrees of freedom        ....    4

    -----------------------------------------------------------------
                    Redundant Internal Coordinates


    -----------------------------------------------------------------
         Definition                    Initial Value    Approx d2E/dq
    -----------------------------------------------------------------
      1. B(Cu  1,Cu  0)                  2.2911         2.335297   
      2. B(Cu  2,Cu  0)                  2.2911         2.335297   
      3. L(Cu  1,Cu  0,Cu  2, 2)       180.0000         1.128240   
      4. L(Cu  1,Cu  0,Cu  2, 1)       180.0000         1.128240   
    -----------------------------------------------------------------

Number of atoms                         .... 3
Number of degrees of freedom            .... 4

         *************************************************************
         *                GEOMETRY OPTIMIZATION CYCLE   1            *
         *************************************************************
---------------------------------
CARTESIAN COORDINATES (ANGSTROEM)
---------------------------------
  Cu     0.000000    0.000000    0.000000
  Cu     0.000000    0.000000    2.291099
  Cu     0.000000    0.000000   -2.291099

----------------------------
CARTESIAN COORDINATES (A.U.)
----------------------------
  NO LB      ZA    FRAG     MASS         X           Y           Z
   0 Cu   29.0000    0    63.550    0.000000    0.000000    0.000000
   1 Cu   29.0000    0    63.550    0.000000    0.000000    4.329550
   2 Cu   29.0000    0    63.550    0.000000    0.000000   -4.329550

--------------------------------
INTERNAL COORDINATES (ANGSTROEM)
--------------------------------
 Cu     0   0   0     0.000000000000     0.00000000     0.00000000
 Cu     1   0   0     2.291099000000     0.00000000     0.00000000
 Cu     1   2   0     2.291099000000   180.00000000     0.00000000

---------------------------
INTERNAL COORDINATES (A.U.)
---------------------------
 Cu     0   0   0     0.000000000000     0.00000000     0.00000000
 Cu     1   0   0     4.329549655701     0.00000000     0.00000000
 Cu     1   2   0     4.329549655701   180.00000000     0.00000000

---------------------
BASIS SET INFORMATION
---------------------
There are 1 groups of distinct atoms

 Group   1 Type Cu  : 17s13p7d2f1g contracted to 6s6p4d2f1g pattern {842111/631111/4111/11/1}

Atom   0Cu   basis set group =>   1
Atom   1Cu   basis set group =>   1
Atom   2Cu   basis set group =>   1
---------------------------------
AUXILIARY/C BASIS SET INFORMATION
---------------------------------
There are 1 groups of distinct atoms

 Group   1 Type Cu  : 10s10p9d7f5g3h1i contracted to 10s10p9d7f5g3h1i pattern {1111111111/1111111111/111111111/1111111/11111/111/1}

Atom   0Cu   basis set group =>   1
Atom   1Cu   basis set group =>   1
Atom   2Cu   basis set group =>   1
----------------------------------
AUXILIARY/JK BASIS SET INFORMATION
----------------------------------
There are 1 groups of distinct atoms

 Group   1 Type Cu  : 19s14p12d10f7g3h1i contracted to 16s13p11d9f5g3h1i pattern {4111111111111111/2111111111111/21111111111/211111111/31111/111/1}

Atom   0Cu   basis set group =>   1
Atom   1Cu   basis set group =>   1
Atom   2Cu   basis set group =>   1


           ************************************************************
           *        Program running with 24 parallel MPI-processes    *
           *              working on a common directory               *
           ************************************************************
------------------------------------------------------------------------------
                           ORCA GTO INTEGRAL CALCULATION
                           -- RI-GTO INTEGRALS CHOSEN --
------------------------------------------------------------------------------

                         BASIS SET STATISTICS AND STARTUP INFO

Gaussian basis set:
 # of primitive gaussian shells          ...  120
 # of primitive gaussian functions       ...  342
 # of contracted shells                  ...   57
 # of contracted basis functions         ...  201
 Highest angular momentum                ...    4
 Maximum contraction depth               ...    8
Auxiliary gaussian basis set:
 # of primitive gaussian shells          ...  198
 # of primitive gaussian functions       ...  900
 # of contracted shells                  ...  174
 # of contracted aux-basis functions     ...  792
 Highest angular momentum                ...    6
 Maximum contraction depth               ...    4
Ratio of auxiliary to basis functions    ...  3.94
Integral package used                  ... LIBINT
 One Electron integrals                  ... done
 Ordering auxiliary basis shells         ... done
 Integral threshhold             Thresh  ...  2.500e-11
 Primitive cut-off               TCut    ...  2.500e-12
 Pre-screening matrix                    ... done
 Shell pair data                         ... 
 Ordering of the shell pairs             ... done (   0.000 sec) 1434 of 1653 pairs
 Determination of significant pairs      ... done (   0.000 sec)
 Creation of shell pair data             ... done (   0.000 sec)
 Storage of shell pair data              ... done (   0.031 sec)
 Shell pair data done in (   0.032 sec)
 Computing two index integrals           ... done
 Cholesky decomposition of the V-matrix  ... done


Timings:
 Total evaluation time                   ...   0.383 sec (  0.006 min)
 One electron matrix time                ...   0.021 sec (  0.000 min) =  5.4%
 Schwartz matrix evaluation time         ...   0.177 sec (  0.003 min) = 46.2%
 Two index repulsion integral time       ...   0.113 sec (  0.002 min) = 29.4%
 Cholesky decomposition of V             ...   0.010 sec (  0.000 min) =  2.6%
 Three index repulsion integral time     ...   0.000 sec (  0.000 min) =  0.0%



           ************************************************************
           *        Program running with 24 parallel MPI-processes    *
           *              working on a common directory               *
           ************************************************************
-------------------------------------------------------------------------------
                                 ORCA SCF
-------------------------------------------------------------------------------

------------
SCF SETTINGS
------------
Hamiltonian:
 Density Functional     Method          .... DFT(GTOs)
 Exchange Functional    Exchange        .... B88
   X-Alpha parameter    XAlpha          ....  0.666667
   Becke's b parameter  XBeta           ....  0.004200
 Correlation Functional Correlation     .... LYP
 LDA part of GGA corr.  LDAOpt          .... VWN-3
 Gradients option       PostSCFGGA      .... off
 Hybrid DFT is turned on
   Fraction HF Exchange ScalHFX         ....  0.530000
   Scaling of DF-GGA-X  ScalDFX         ....  0.470000
   Scaling of DF-GGA-C  ScalDFC         ....  0.730000
   Scaling of DF-LDA-C  ScalLDAC        ....  0.730000
   Perturbative correction              ....  0.270000
   Density functional embedding theory  .... OFF
 RI-approximation to the Coulomb term is turned on
   Number of auxiliary basis functions  .... 792
   RI-JK (J+K treated both via RI)      .... on


General Settings:
 Integral files         IntName         .... Cu03N0_LIN
 Hartree-Fock type      HFTyp           .... UHF
 Total Charge           Charge          ....    0
 Multiplicity           Mult            ....    2
 Number of Electrons    NEL             ....   87
 Basis Dimension        Dim             ....  201
 Nuclear Repulsion      ENuc            ....    485.6163266846 Eh

Convergence Acceleration:
 DIIS                   CNVDIIS         .... on
   Start iteration      DIISMaxIt       ....    12
   Startup error        DIISStart       ....  0.200000
   # of expansion vecs  DIISMaxEq       ....     5
   Bias factor          DIISBfac        ....   1.050
   Max. coefficient     DIISMaxC        ....  10.000
 Newton-Raphson         CNVNR           .... off
 SOSCF                  CNVSOSCF        .... off
 Level Shifting         CNVShift        .... on
   Level shift para.    LevelShift      ....    0.2500
   Turn off err/grad.   ShiftErr        ....    0.0010
 Zerner damping         CNVZerner       .... off
 Static damping         CNVDamp         .... on
   Fraction old density DampFac         ....    0.7000
   Max. Damping (<1)    DampMax         ....    0.9800
   Min. Damping (>=0)   DampMin         ....    0.0000
   Turn off err/grad.   DampErr         ....    0.1000
 Fernandez-Rico         CNVRico         .... off

SCF Procedure:
 Maximum # iterations   MaxIter         ....   125
 SCF integral mode      SCFMode         .... Direct
   Integral package                     .... LIBINT
 Reset frequency        DirectResetFreq ....    20
 Integral Threshold     Thresh          ....  2.500e-11 Eh
 Primitive CutOff       TCut            ....  2.500e-12 Eh

Convergence Tolerance:
 Convergence Check Mode ConvCheckMode   .... Total+1el-Energy
 Convergence forced     ConvForced      .... 0
 Energy Change          TolE            ....  1.000e-08 Eh
 1-El. energy change                    ....  1.000e-05 Eh
 DIIS Error             TolErr          ....  5.000e-07


Diagonalization of the overlap matrix:
Smallest eigenvalue                        ... 3.321e-04
Time for diagonalization                   ...    0.007 sec
Threshold for overlap eigenvalues          ... 1.000e-08
Number of eigenvalues below threshold      ... 0
Time for construction of square roots      ...    0.005 sec
Total time needed                          ...    0.012 sec

-------------------
DFT GRID GENERATION
-------------------

General Integration Accuracy     IntAcc      ...  4.670
Radial Grid Type                 RadialGrid  ... Gauss-Chebyshev
Angular Grid (max. acc.)         AngularGrid ... Lebedev-302
Angular grid pruning method      GridPruning ... 3 (G Style)
Weight generation scheme         WeightScheme... Becke
Basis function cutoff            BFCut       ...    1.0000e-11
Integration weight cutoff        WCut        ...    1.0000e-14
Grids for H and He will be reduced by one unit

# of grid points (after initial pruning)     ...  28668 (   0.0 sec)
# of grid points (after weights+screening)   ...  28508 (   0.0 sec)
nearest neighbour list constructed           ...    0.0 sec
Grid point re-assignment to atoms done       ...    0.0 sec
Grid point division into batches done        ...    0.2 sec
Reduced shell lists constructed in    0.2 sec

Total number of grid points                  ...    28508
Total number of batches                      ...      447
Average number of points per batch           ...       63
Average number of grid points per atom       ...     9503
Average number of shells per batch           ...    19.10 (33.51%)
Average number of basis functions per batch  ...    56.10 (27.91%)
Average number of large shells per batch     ...    16.15 (84.55%)
Average number of large basis fcns per batch ...    46.85 (83.51%)
Average number of aux-shells per batch       ...    19.10 (10.98%)
Average number of aux functions per batch    ...    56.10 ( 7.08%)
Maximum spatial batch extension              ...  26.18, 26.18,  4.32 au
Average spatial batch extension              ...   0.42,  0.42,  0.18 au

Time for grid setup =    0.281 sec

------------------------------
INITIAL GUESS: MODEL POTENTIAL
------------------------------
Loading Hartree-Fock densities                     ... done
Calculating cut-offs                               ... done
Setting up the integral package                    ... done
Initializing the effective Hamiltonian             ... done
Starting the Coulomb interaction                   ... done (   0.0 sec)
Reading the grid                                   ... done
Mapping shells                                     ... done
Starting the XC term evaluation                    ... done (   0.0 sec)
  promolecular density results
     # of electrons  =     87.000074313
     EX              =   -197.386593125
     EC              =     -1.568709360
     EX+EC           =   -198.955302484
Transforming the Hamiltonian                       ... done (   0.0 sec)
Diagonalizing the Hamiltonian                      ... done (   0.0 sec)
Back transforming the eigenvectors                 ... done (   0.0 sec)
Now organizing SCF variables                       ... done
                      ------------------
                      INITIAL GUESS DONE (   0.4 sec)
                      ------------------
--------------
SCF ITERATIONS
--------------
ITER       Energy         Delta-E        Max-DP      RMS-DP      [F,P]     Damp
  0  -4920.1440826217   0.000000000000 0.07793006  0.00097515  0.1280126 0.7000
  1  -4919.8694878514   0.274594770337 0.07580437  0.00087292  0.0650606 0.7000
                               ***Turning on DIIS***
  2  -4920.0283738887  -0.158886037321 0.19069700  0.00208269  0.0389697 0.0000
  3  -4920.2185174609  -0.190143572198 0.02803043  0.00035786  0.0345855 0.0000
  4  -4920.2247836272  -0.006266166245 0.01071958  0.00015407  0.0228192 0.0000
  5  -4920.2261288629  -0.001345235748 0.00622173  0.00010328  0.0088549 0.0000
  6  -4920.2266681355  -0.000539272623 0.00522187  0.00008075  0.0030433 0.0000
  7  -4920.2268114585  -0.000143322984 0.00341381  0.00005296  0.0018521 0.0000
  8  -4920.2268681564  -0.000056697885 0.00328467  0.00003959  0.0015204 0.0000
  9  -4920.2268993937  -0.000031237288 0.00458053  0.00005490  0.0005940 0.0000
 10  -4920.2269264808  -0.000027087120 0.00211344  0.00001787  0.0001944 0.0000
 11  -4920.2269304312  -0.000003950371 0.00076168  0.00000618  0.0001213 0.0000
 12  -4920.2269309599  -0.000000528740 0.00048646  0.00000407  0.0001257 0.0000
 13  -4920.2269311679  -0.000000207975 0.00020707  0.00000196  0.0000269 0.0000
 14  -4920.2269312084  -0.000000040472 0.00007410  0.00000064  0.0000361 0.0000
 15  -4920.2269312173  -0.000000008967 0.00005556  0.00000057  0.0000069 0.0000
 16  -4920.2269312202  -0.000000002872 0.00000892  0.00000008  0.0000011 0.0000
                            ***DIIS convergence achieved***

               *****************************************************
               *                     SUCCESS                       *
               *           SCF CONVERGED AFTER  17 CYCLES          *
               *****************************************************


----------------
TOTAL SCF ENERGY
----------------

Total Energy       :        -4920.22693122 Eh         -133886.18144 eV

Components:
Nuclear Repulsion  :          485.61632668 Eh           13214.29205 eV
Electronic Energy  :        -5405.84325791 Eh         -147100.47349 eV
One Electron Energy:        -7837.12974508 Eh         -213259.14225 eV
Two Electron Energy:         2431.28648718 Eh           66158.66876 eV

Virial components:
Potential Energy   :        -9835.43998434 Eh         -267635.92832 eV
Kinetic Energy     :         4915.21305312 Eh          133749.74688 eV
Virial Ratio       :            2.00102007


DFT components:
N(Alpha)           :       44.000000528346 electrons
N(Beta)            :       43.000000276987 electrons
N(Total)           :       87.000000805333 electrons
E(X)               :      -93.037131384898 Eh       
E(C)               :       -3.030416078172 Eh       
E(XC)              :      -96.067547463070 Eh       
DFET-embed. en.    :        0.000000000000 Eh       

---------------
SCF CONVERGENCE
---------------

  Last Energy change         ...   -2.3738e-10  Tolerance :   1.0000e-08
  Last MAX-Density change    ...    5.2740e-06  Tolerance :   1.0000e-07
  Last RMS-Density change    ...    7.6958e-08  Tolerance :   5.0000e-09
  Last DIIS Error            ...    7.2985e-07  Tolerance :   5.0000e-07

             **** THE GBW FILE WAS UPDATED (Cu03N0_LIN.gbw) ****
             **** DENSITY FILE WAS UPDATED (Cu03N0_LIN.scfp) ****
             **** ENERGY FILE WAS UPDATED (Cu03N0_LIN.en.tmp) ****
----------------------
UHF SPIN CONTAMINATION
----------------------

Warning: in a DFT calculation there is little theoretical justification to 
         calculate <S**2> as in Hartree-Fock theory. We will do it anyways
         but you should keep in mind that the values have only limited relevance

Expectation value of <S**2>     :     0.781207
Ideal value S*(S+1) for S=0.5   :     0.750000
Deviation                       :     0.031207

             **** THE GBW FILE WAS UPDATED (Cu03N0_LIN.gbw) ****
             **** DENSITY FILE WAS UPDATED (Cu03N0_LIN.scfp) ****
----------------
ORBITAL ENERGIES
----------------
                 SPIN UP ORBITALS
  NO   OCC          E(Eh)            E(eV) 
   0   1.0000    -325.421161     -8855.1600 
   1   1.0000    -325.421158     -8855.1599 
   2   1.0000    -325.407092     -8854.7771 
   3   1.0000     -39.629513     -1078.3739 
   4   1.0000     -39.629497     -1078.3734 
   5   1.0000     -39.618391     -1078.0712 
   6   1.0000     -34.665053      -943.2841 
   7   1.0000     -34.665051      -943.2840 
   8   1.0000     -34.664515      -943.2694 
   9   1.0000     -34.664515      -943.2694 
  10   1.0000     -34.664513      -943.2694 
  11   1.0000     -34.664513      -943.2694 
  12   1.0000     -34.654251      -942.9901 
  13   1.0000     -34.653479      -942.9691 
  14   1.0000     -34.653479      -942.9691 
  15   1.0000      -4.579870      -124.6246 
  16   1.0000      -4.579861      -124.6244 
  17   1.0000      -4.566422      -124.2587 
  18   1.0000      -2.999722       -81.6266 
  19   1.0000      -2.998815       -81.6019 
  20   1.0000      -2.995690       -81.5169 
  21   1.0000      -2.995690       -81.5169 
  22   1.0000      -2.995689       -81.5169 
  23   1.0000      -2.995689       -81.5169 
  24   1.0000      -2.986670       -81.2714 
  25   1.0000      -2.982310       -81.1528 
  26   1.0000      -2.982310       -81.1528 
  27   1.0000      -0.391576       -10.6553 
  28   1.0000      -0.372744       -10.1429 
  29   1.0000      -0.372744       -10.1429 
  30   1.0000      -0.356942        -9.7129 
  31   1.0000      -0.356942        -9.7129 
  32   1.0000      -0.356808        -9.7092 
  33   1.0000      -0.354783        -9.6541 
  34   1.0000      -0.354778        -9.6540 
  35   1.0000      -0.353376        -9.6158 
  36   1.0000      -0.353371        -9.6157 
  37   1.0000      -0.337205        -9.1758 
  38   1.0000      -0.337198        -9.1756 
  39   1.0000      -0.323481        -8.8024 
  40   1.0000      -0.323481        -8.8024 
  41   1.0000      -0.317801        -8.6478 
  42   1.0000      -0.255025        -6.9396 
  43   1.0000      -0.206780        -5.6268 
  44   0.0000      -0.029192        -0.7944 
  45   0.0000      -0.005981        -0.1628 
  46   0.0000      -0.005981        -0.1628 
  47   0.0000       0.021099         0.5741 
  48   0.0000       0.030086         0.8187 
  49   0.0000       0.030086         0.8187 
  50   0.0000       0.077240         2.1018 
  51   0.0000       0.088620         2.4115 
  52   0.0000       0.090324         2.4579 
  53   0.0000       0.090324         2.4579 
  54   0.0000       0.111110         3.0235 
  55   0.0000       0.148212         4.0330 
  56   0.0000       0.148212         4.0330 
  57   0.0000       0.152401         4.1470 
  58   0.0000       0.170870         4.6496 
  59   0.0000       0.170870         4.6496 
  60   0.0000       0.191983         5.2241 
  61   0.0000       0.191983         5.2241 
  62   0.0000       0.209062         5.6889 
  63   0.0000       0.226865         6.1733 
  64   0.0000       0.226866         6.1733 
  65   0.0000       0.240158         6.5350 
  66   0.0000       0.240158         6.5350 
  67   0.0000       0.252751         6.8777 
  68   0.0000       0.261750         7.1226 
  69   0.0000       0.261750         7.1226 
  70   0.0000       0.275349         7.4926 
  71   0.0000       0.316193         8.6040 
  72   0.0000       0.316193         8.6040 
  73   0.0000       0.322273         8.7695 
  74   0.0000       0.375900        10.2288 
  75   0.0000       0.375900        10.2288 
  76   0.0000       0.411078        11.1860 
  77   0.0000       0.498845        13.5743 
  78   0.0000       0.498845        13.5743 
  79   0.0000       0.544938        14.8285 
  80   0.0000       0.615763        16.7558 
  81   0.0000       0.685554        18.6549 
  82   0.0000       0.727963        19.8089 
  83   0.0000       0.727963        19.8089 
  84   0.0000       0.756072        20.5738 
  85   0.0000       0.756072        20.5738 
  86   0.0000       0.820717        22.3328 
  87   0.0000       0.820717        22.3328 
  88   0.0000       0.839261        22.8374 
  89   0.0000       0.940665        25.5968 
  90   0.0000       0.940667        25.5969 
  91   0.0000       0.977569        26.6010 
  92   0.0000       0.979187        26.6450 
  93   0.0000       0.979187        26.6450 
  94   0.0000       0.982842        26.7445 
  95   0.0000       0.982844        26.7445 
  96   0.0000       1.047481        28.5034 
  97   0.0000       1.047481        28.5034 
  98   0.0000       1.054200        28.6862 
  99   0.0000       1.059485        28.8300 
 100   0.0000       1.059488        28.8301 
 101   0.0000       1.266308        34.4580 
 102   0.0000       1.266308        34.4580 
 103   0.0000       1.304671        35.5019 
 104   0.0000       1.598614        43.5005 
 105   0.0000       3.161070        86.0171 
 106   0.0000       3.161070        86.0171 
 107   0.0000       3.175005        86.3963 
 108   0.0000       3.245285        88.3087 
 109   0.0000       3.261120        88.7396 
 110   0.0000       3.261120        88.7396 
 111   0.0000       3.282806        89.3297 
 112   0.0000       3.282806        89.3297 
 113   0.0000       3.333828        90.7181 
 114   0.0000       3.408343        92.7457 
 115   0.0000       3.560471        96.8853 
 116   0.0000       3.563687        96.9729 
 117   0.0000       3.584185        97.5306 
 118   0.0000       3.584185        97.5306 
 119   0.0000       3.590346        97.6983 
 120   0.0000       3.590346        97.6983 
 121   0.0000       3.595033        97.8258 
 122   0.0000       3.595039        97.8260 
 123   0.0000       3.596902        97.8767 
 124   0.0000       3.596909        97.8769 
 125   0.0000       3.599009        97.9340 
 126   0.0000       3.599009        97.9340 
 127   0.0000       3.599012        97.9341 
 128   0.0000       3.599012        97.9341 
 129   0.0000       3.616347        98.4058 
 130   0.0000       3.616359        98.4061 
 131   0.0000       3.620264        98.5124 
 132   0.0000       3.620264        98.5124 
 133   0.0000       3.644885        99.1824 
 134   0.0000       3.644885        99.1824 
 135   0.0000       3.659848        99.5895 
 136   0.0000       3.802166       103.4622 
 137   0.0000       3.878809       105.5478 
 138   0.0000       3.878847       105.5488 
 139   0.0000       3.902121       106.1821 
 140   0.0000       3.902155       106.1830 
 141   0.0000       3.947658       107.4212 
 142   0.0000       3.947658       107.4212 
 143   0.0000       3.952092       107.5419 
 144   0.0000       3.952135       107.5431 
 145   0.0000       3.981538       108.3432 
 146   0.0000       4.000292       108.8535 
 147   0.0000       4.000292       108.8535 
 148   0.0000       4.100240       111.5732 
 149   0.0000       4.100240       111.5732 
 150   0.0000       4.237160       115.2990 
 151   0.0000       4.302158       117.0677 
 152   0.0000       4.662296       126.8675 
 153   0.0000      13.309273       362.1637 
 154   0.0000      13.309273       362.1637 
 155   0.0000      13.309764       362.1771 
 156   0.0000      13.309821       362.1786 
 157   0.0000      13.310047       362.1848 
 158   0.0000      13.310047       362.1848 
 159   0.0000      13.310190       362.1887 
 160   0.0000      13.310248       362.1902 
 161   0.0000      13.310338       362.1927 
 162   0.0000      13.310760       362.2042 
 163   0.0000      13.311206       362.2163 
 164   0.0000      13.311206       362.2163 
 165   0.0000      13.311213       362.2165 
 166   0.0000      13.311213       362.2165 
 167   0.0000      13.312525       362.2522 
 168   0.0000      13.312525       362.2522 
 169   0.0000      13.312636       362.2553 
 170   0.0000      13.312636       362.2553 
 171   0.0000      13.322979       362.5367 
 172   0.0000      13.322979       362.5367 
 173   0.0000      13.323159       362.5416 
 174   0.0000      13.323836       362.5600 
 175   0.0000      13.325345       362.6011 
 176   0.0000      13.325345       362.6011 
 177   0.0000      13.326476       362.6319 
 178   0.0000      13.327099       362.6488 
 179   0.0000      13.327249       362.6529 
 180   0.0000      13.514102       367.7374 
 181   0.0000      13.514102       367.7374 
 182   0.0000      13.515247       367.7686 
 183   0.0000      13.515356       367.7715 
 184   0.0000      13.516369       367.7991 
 185   0.0000      13.516477       367.8020 
 186   0.0000      13.516966       367.8153 
 187   0.0000      13.516966       367.8153 
 188   0.0000      13.516966       367.8153 
 189   0.0000      13.516966       367.8153 
 190   0.0000      13.520600       367.9142 
 191   0.0000      13.528424       368.1271 
 192   0.0000      13.528573       368.1312 
 193   0.0000      13.529077       368.1449 
 194   0.0000      13.529077       368.1449 
 195   0.0000      13.531057       368.1988 
 196   0.0000      13.531057       368.1988 
 197   0.0000      13.545943       368.6038 
 198   0.0000      13.545943       368.6038 
 199   0.0000      13.610107       370.3498 
 200   0.0000      13.648506       371.3947 

                 SPIN DOWN ORBITALS
  NO   OCC          E(Eh)            E(eV) 
   0   1.0000    -325.420128     -8855.1319 
   1   1.0000    -325.420125     -8855.1318 
   2   1.0000    -325.407148     -8854.7787 
   3   1.0000     -39.629525     -1078.3742 
   4   1.0000     -39.629510     -1078.3738 
   5   1.0000     -39.618960     -1078.0867 
   6   1.0000     -34.665863      -943.3061 
   7   1.0000     -34.665861      -943.3060 
   8   1.0000     -34.665118      -943.2858 
   9   1.0000     -34.665118      -943.2858 
  10   1.0000     -34.665116      -943.2857 
  11   1.0000     -34.665116      -943.2857 
  12   1.0000     -34.654336      -942.9924 
  13   1.0000     -34.653732      -942.9760 
  14   1.0000     -34.653732      -942.9760 
  15   1.0000      -4.578787      -124.5951 
  16   1.0000      -4.578781      -124.5950 
  17   1.0000      -4.567621      -124.2913 
  18   1.0000      -3.000380       -81.6445 
  19   1.0000      -2.999576       -81.6226 
  20   1.0000      -2.997004       -81.5526 
  21   1.0000      -2.997004       -81.5526 
  22   1.0000      -2.996994       -81.5524 
  23   1.0000      -2.996994       -81.5524 
  24   1.0000      -2.986617       -81.2700 
  25   1.0000      -2.983371       -81.1817 
  26   1.0000      -2.983371       -81.1817 
  27   1.0000      -0.389484       -10.5984 
  28   1.0000      -0.371941       -10.1210 
  29   1.0000      -0.371941       -10.1210 
  30   1.0000      -0.357369        -9.7245 
  31   1.0000      -0.356339        -9.6965 
  32   1.0000      -0.356339        -9.6965 
  33   1.0000      -0.354495        -9.6463 
  34   1.0000      -0.354491        -9.6462 
  35   1.0000      -0.353087        -9.6080 
  36   1.0000      -0.353082        -9.6079 
  37   1.0000      -0.338061        -9.1991 
  38   1.0000      -0.338054        -9.1989 
  39   1.0000      -0.325141        -8.8475 
  40   1.0000      -0.325141        -8.8475 
  41   1.0000      -0.316941        -8.6244 
  42   1.0000      -0.225506        -6.1363 
  43   0.0000      -0.084881        -2.3097 
  44   0.0000      -0.012486        -0.3398 
  45   0.0000       0.000729         0.0198 
  46   0.0000       0.000729         0.0198 
  47   0.0000       0.030873         0.8401 
  48   0.0000       0.040565         1.1038 
  49   0.0000       0.040565         1.1038 
  50   0.0000       0.081527         2.2185 
  51   0.0000       0.089006         2.4220 
  52   0.0000       0.089006         2.4220 
  53   0.0000       0.098172         2.6714 
  54   0.0000       0.116244         3.1632 
  55   0.0000       0.155747         4.2381 
  56   0.0000       0.155747         4.2381 
  57   0.0000       0.158912         4.3242 
  58   0.0000       0.183827         5.0022 
  59   0.0000       0.183827         5.0022 
  60   0.0000       0.193955         5.2778 
  61   0.0000       0.193955         5.2778 
  62   0.0000       0.212933         5.7942 
  63   0.0000       0.231546         6.3007 
  64   0.0000       0.231546         6.3007 
  65   0.0000       0.243379         6.6227 
  66   0.0000       0.243379         6.6227 
  67   0.0000       0.258196         7.0259 
  68   0.0000       0.265232         7.2173 
  69   0.0000       0.265232         7.2173 
  70   0.0000       0.282963         7.6998 
  71   0.0000       0.316102         8.6016 
  72   0.0000       0.316102         8.6016 
  73   0.0000       0.325576         8.8594 
  74   0.0000       0.379225        10.3192 
  75   0.0000       0.379225        10.3192 
  76   0.0000       0.415667        11.3109 
  77   0.0000       0.502096        13.6627 
  78   0.0000       0.502096        13.6627 
  79   0.0000       0.547362        14.8945 
  80   0.0000       0.622491        16.9388 
  81   0.0000       0.692373        18.8404 
  82   0.0000       0.733465        19.9586 
  83   0.0000       0.733465        19.9586 
  84   0.0000       0.765850        20.8398 
  85   0.0000       0.765850        20.8398 
  86   0.0000       0.823725        22.4147 
  87   0.0000       0.823725        22.4147 
  88   0.0000       0.846132        23.0244 
  89   0.0000       0.946013        25.7423 
  90   0.0000       0.946017        25.7424 
  91   0.0000       0.984084        26.7783 
  92   0.0000       0.985896        26.8276 
  93   0.0000       0.985896        26.8276 
  94   0.0000       0.993007        27.0211 
  95   0.0000       0.993011        27.0212 
  96   0.0000       1.056007        28.7354 
  97   0.0000       1.056007        28.7354 
  98   0.0000       1.061431        28.8830 
  99   0.0000       1.061436        28.8831 
 100   0.0000       1.061864        28.8948 
 101   0.0000       1.270413        34.5697 
 102   0.0000       1.270413        34.5697 
 103   0.0000       1.311607        35.6906 
 104   0.0000       1.603183        43.6248 
 105   0.0000       3.163976        86.0962 
 106   0.0000       3.163976        86.0962 
 107   0.0000       3.180968        86.5585 
 108   0.0000       3.247565        88.3707 
 109   0.0000       3.265436        88.8570 
 110   0.0000       3.265436        88.8570 
 111   0.0000       3.283248        89.3417 
 112   0.0000       3.283248        89.3417 
 113   0.0000       3.337324        90.8132 
 114   0.0000       3.411488        92.8313 
 115   0.0000       3.565128        97.0121 
 116   0.0000       3.566387        97.0463 
 117   0.0000       3.585341        97.5621 
 118   0.0000       3.585341        97.5621 
 119   0.0000       3.593441        97.7825 
 120   0.0000       3.593441        97.7825 
 121   0.0000       3.598586        97.9225 
 122   0.0000       3.598595        97.9227 
 123   0.0000       3.600709        97.9803 
 124   0.0000       3.600717        97.9805 
 125   0.0000       3.603287        98.0504 
 126   0.0000       3.603287        98.0504 
 127   0.0000       3.603290        98.0505 
 128   0.0000       3.603290        98.0505 
 129   0.0000       3.615826        98.3916 
 130   0.0000       3.615839        98.3920 
 131   0.0000       3.619411        98.4892 
 132   0.0000       3.619411        98.4892 
 133   0.0000       3.646824        99.2351 
 134   0.0000       3.646824        99.2351 
 135   0.0000       3.661835        99.6436 
 136   0.0000       3.802836       103.4804 
 137   0.0000       3.880366       105.5901 
 138   0.0000       3.880408       105.5913 
 139   0.0000       3.904895       106.2576 
 140   0.0000       3.904933       106.2586 
 141   0.0000       3.950051       107.4864 
 142   0.0000       3.950051       107.4864 
 143   0.0000       3.952285       107.5471 
 144   0.0000       3.952328       107.5483 
 145   0.0000       3.983461       108.3955 
 146   0.0000       4.002552       108.9150 
 147   0.0000       4.002552       108.9150 
 148   0.0000       4.100110       111.5697 
 149   0.0000       4.100110       111.5697 
 150   0.0000       4.239094       115.3516 
 151   0.0000       4.304033       117.1187 
 152   0.0000       4.663438       126.8986 
 153   0.0000      13.308336       362.1382 
 154   0.0000      13.308336       362.1382 
 155   0.0000      13.308912       362.1539 
 156   0.0000      13.308969       362.1555 
 157   0.0000      13.309106       362.1592 
 158   0.0000      13.309106       362.1592 
 159   0.0000      13.309339       362.1655 
 160   0.0000      13.309350       362.1658 
 161   0.0000      13.309396       362.1671 
 162   0.0000      13.309773       362.1773 
 163   0.0000      13.310410       362.1947 
 164   0.0000      13.310410       362.1947 
 165   0.0000      13.310416       362.1948 
 166   0.0000      13.310416       362.1948 
 167   0.0000      13.311630       362.2279 
 168   0.0000      13.311630       362.2279 
 169   0.0000      13.311741       362.2309 
 170   0.0000      13.311741       362.2309 
 171   0.0000      13.322510       362.5239 
 172   0.0000      13.322510       362.5239 
 173   0.0000      13.322632       362.5273 
 174   0.0000      13.323309       362.5457 
 175   0.0000      13.324856       362.5878 
 176   0.0000      13.324856       362.5878 
 177   0.0000      13.326026       362.6196 
 178   0.0000      13.326947       362.6447 
 179   0.0000      13.327098       362.6488 
 180   0.0000      13.513304       367.7157 
 181   0.0000      13.513304       367.7157 
 182   0.0000      13.514400       367.7455 
 183   0.0000      13.514509       367.7485 
 184   0.0000      13.515519       367.7760 
 185   0.0000      13.515557       367.7770 
 186   0.0000      13.515557       367.7770 
 187   0.0000      13.515557       367.7770 
 188   0.0000      13.515557       367.7770 
 189   0.0000      13.515627       367.7789 
 190   0.0000      13.519900       367.8952 
 191   0.0000      13.527547       368.1033 
 192   0.0000      13.527696       368.1073 
 193   0.0000      13.528404       368.1266 
 194   0.0000      13.528404       368.1266 
 195   0.0000      13.530194       368.1753 
 196   0.0000      13.530194       368.1753 
 197   0.0000      13.545438       368.5901 
 198   0.0000      13.545438       368.5901 
 199   0.0000      13.609195       370.3250 
 200   0.0000      13.648075       371.3830 

                    ********************************
                    * MULLIKEN POPULATION ANALYSIS *
                    ********************************

--------------------------------------------
MULLIKEN ATOMIC CHARGES AND SPIN POPULATIONS
--------------------------------------------
   0 Cu:   -0.292557   -0.225997
   1 Cu:    0.146278    0.613002
   2 Cu:    0.146278    0.612996
Sum of atomic charges         :   -0.0000000
Sum of atomic spin populations:    1.0000000

-----------------------------------------------------
MULLIKEN REDUCED ORBITAL CHARGES AND SPIN POPULATIONS
-----------------------------------------------------
CHARGE
  0 Cus       :     7.276918  s :     7.276918
      pz      :     4.044060  p :    12.062126
      px      :     4.009033
      py      :     4.009033
      dz2     :     1.985242  d :     9.953274
      dxz     :     1.984192
      dyz     :     1.984192
      dx2y2   :     1.999824
      dxy     :     1.999824
      f0      :     0.000107  f :     0.000237
      f+1     :     0.000058
      f-1     :     0.000058
      f+2     :     0.000007
      f-2     :     0.000007
      f+3     :     0.000000
      f-3     :     0.000000
      g0      :     0.000000  g :     0.000001
      g+1     :     0.000000
      g-1     :     0.000000
      g+2     :     0.000000
      g-2     :     0.000000
      g+3     :     0.000000
      g-3     :     0.000000
      g+4     :     0.000000
      g-4     :     0.000000
  1 Cus       :     6.876795  s :     6.876795
      pz      :     3.990060  p :    12.003926
      px      :     4.006933
      py      :     4.006933
      dz2     :     1.979929  d :     9.972866
      dxz     :     1.996391
      dyz     :     1.996391
      dx2y2   :     2.000078
      dxy     :     2.000078
      f0      :     0.000052  f :     0.000134
      f+1     :     0.000034
      f-1     :     0.000034
      f+2     :     0.000007
      f-2     :     0.000007
      f+3     :     0.000000
      f-3     :     0.000000
      g0      :     0.000000  g :     0.000001
      g+1     :     0.000000
      g-1     :     0.000000
      g+2     :     0.000000
      g-2     :     0.000000
      g+3     :     0.000000
      g-3     :     0.000000
      g+4     :     0.000000
      g-4     :     0.000000
  2 Cus       :     6.876795  s :     6.876795
      pz      :     3.990059  p :    12.003926
      px      :     4.006933
      py      :     4.006933
      dz2     :     1.979929  d :     9.972866
      dxz     :     1.996391
      dyz     :     1.996391
      dx2y2   :     2.000078
      dxy     :     2.000078
      f0      :     0.000052  f :     0.000134
      f+1     :     0.000034
      f-1     :     0.000034
      f+2     :     0.000007
      f-2     :     0.000007
      f+3     :     0.000000
      f-3     :     0.000000
      g0      :     0.000000  g :     0.000001
      g+1     :     0.000000
      g-1     :     0.000000
      g+2     :     0.000000
      g-2     :     0.000000
      g+3     :     0.000000
      g-3     :     0.000000
      g+4     :     0.000000
      g-4     :     0.000000

SPIN
  0 Cus       :    -0.274778  s :    -0.274778
      pz      :     0.054473  p :     0.053959
      px      :    -0.000257
      py      :    -0.000257
      dz2     :    -0.000442  d :    -0.005194
      dxz     :    -0.002284
      dyz     :    -0.002284
      dx2y2   :    -0.000092
      dxy     :    -0.000092
      f0      :     0.000012  f :     0.000016
      f+1     :     0.000002
      f-1     :     0.000002
      f+2     :     0.000000
      f-2     :     0.000000
      f+3     :    -0.000000
      f-3     :    -0.000000
      g0      :     0.000000  g :     0.000000
      g+1     :     0.000000
      g-1     :     0.000000
      g+2     :    -0.000000
      g-2     :    -0.000000
      g+3     :    -0.000000
      g-3     :    -0.000000
      g+4     :     0.000000
      g-4     :    -0.000000
  1 Cus       :     0.611212  s :     0.611212
      pz      :     0.002579  p :     0.004791
      px      :     0.001106
      py      :     0.001106
      dz2     :    -0.003421  d :    -0.003003
      dxz     :     0.000163
      dyz     :     0.000163
      dx2y2   :     0.000046
      dxy     :     0.000046
      f0      :     0.000001  f :     0.000003
      f+1     :     0.000001
      f-1     :     0.000001
      f+2     :    -0.000000
      f-2     :    -0.000000
      f+3     :    -0.000000
      f-3     :    -0.000000
      g0      :    -0.000000  g :    -0.000000
      g+1     :    -0.000000
      g-1     :    -0.000000
      g+2     :     0.000000
      g-2     :     0.000000
      g+3     :    -0.000000
      g-3     :    -0.000000
      g+4     :     0.000000
      g-4     :     0.000000
  2 Cus       :     0.611207  s :     0.611207
      pz      :     0.002578  p :     0.004789
      px      :     0.001106
      py      :     0.001106
      dz2     :    -0.003421  d :    -0.003003
      dxz     :     0.000163
      dyz     :     0.000163
      dx2y2   :     0.000046
      dxy     :     0.000046
      f0      :     0.000001  f :     0.000003
      f+1     :     0.000001
      f-1     :     0.000001
      f+2     :    -0.000000
      f-2     :    -0.000000
      f+3     :    -0.000000
      f-3     :    -0.000000
      g0      :    -0.000000  g :    -0.000000
      g+1     :    -0.000000
      g-1     :    -0.000000
      g+2     :     0.000000
      g-2     :     0.000000
      g+3     :    -0.000000
      g-3     :    -0.000000
      g+4     :     0.000000
      g-4     :     0.000000


                     *******************************
                     * LOEWDIN POPULATION ANALYSIS *
                     *******************************

-------------------------------------------
LOEWDIN ATOMIC CHARGES AND SPIN POPULATIONS
-------------------------------------------
   0 Cu:   -0.242973    0.386659
   1 Cu:    0.121486    0.306670
   2 Cu:    0.121486    0.306670

----------------------------------------------------
LOEWDIN REDUCED ORBITAL CHARGES AND SPIN POPULATIONS
----------------------------------------------------
CHARGE
  0 Cus       :     6.733347  s :     6.733347
      pz      :     4.453860  p :    12.473900
      px      :     4.010020
      py      :     4.010020
      dz2     :     2.064189  d :    10.035076
      dxz     :     1.985585
      dyz     :     1.985585
      dx2y2   :     1.999859
      dxy     :     1.999859
      f0      :     0.000354  f :     0.000648
      f+1     :     0.000137
      f-1     :     0.000137
      f+2     :     0.000010
      f-2     :     0.000010
      f+3     :     0.000000
      f-3     :     0.000000
      g0      :     0.000001  g :     0.000002
      g+1     :     0.000001
      g-1     :     0.000001
      g+2     :     0.000000
      g-2     :     0.000000
      g+3     :     0.000000
      g-3     :     0.000000
      g+4     :     0.000000
      g-4     :     0.000000
  1 Cus       :     6.716558  s :     6.716558
      pz      :     4.133236  p :    12.148332
      px      :     4.007548
      py      :     4.007548
      dz2     :     2.024178  d :    10.013293
      dxz     :     1.994500
      dyz     :     1.994500
      dx2y2   :     2.000057
      dxy     :     2.000057
      f0      :     0.000153  f :     0.000329
      f+1     :     0.000080
      f-1     :     0.000080
      f+2     :     0.000009
      f-2     :     0.000009
      f+3     :     0.000000
      f-3     :     0.000000
      g0      :     0.000000  g :     0.000001
      g+1     :     0.000000
      g-1     :     0.000000
      g+2     :     0.000000
      g-2     :     0.000000
      g+3     :     0.000000
      g-3     :     0.000000
      g+4     :     0.000000
      g-4     :     0.000000
  2 Cus       :     6.716558  s :     6.716558
      pz      :     4.133236  p :    12.148332
      px      :     4.007548
      py      :     4.007548
      dz2     :     2.024178  d :    10.013293
      dxz     :     1.994500
      dyz     :     1.994500
      dx2y2   :     2.000057
      dxy     :     2.000057
      f0      :     0.000153  f :     0.000329
      f+1     :     0.000080
      f-1     :     0.000080
      f+2     :     0.000009
      f-2     :     0.000009
      f+3     :     0.000000
      f-3     :     0.000000
      g0      :     0.000000  g :     0.000001
      g+1     :     0.000000
      g-1     :     0.000000
      g+2     :     0.000000
      g-2     :     0.000000
      g+3     :     0.000000
      g-3     :     0.000000
      g+4     :     0.000000
      g-4     :     0.000000

SPIN
  0 Cus       :    -0.054657  s :    -0.054657
      pz      :     0.419567  p :     0.420006
      px      :     0.000219
      py      :     0.000219
      dz2     :     0.024328  d :     0.021224
      dxz     :    -0.001629
      dyz     :    -0.001629
      dx2y2   :     0.000077
      dxy     :     0.000077
      f0      :     0.000076  f :     0.000087
      f+1     :     0.000005
      f-1     :     0.000005
      f+2     :     0.000000
      f-2     :     0.000000
      f+3     :    -0.000000
      f-3     :    -0.000000
      g0      :     0.000000  g :     0.000000
      g+1     :     0.000000
      g-1     :     0.000000
      g+2     :    -0.000000
      g-2     :    -0.000000
      g+3     :    -0.000000
      g-3     :    -0.000000
      g+4     :     0.000000
      g-4     :    -0.000000
  1 Cus       :     0.326228  s :     0.326228
      pz      :    -0.017681  p :    -0.015830
      px      :     0.000925
      py      :     0.000925
      dz2     :    -0.003195  d :    -0.003720
      dxz     :    -0.000224
      dyz     :    -0.000224
      dx2y2   :    -0.000039
      dxy     :    -0.000039
      f0      :    -0.000009  f :    -0.000008
      f+1     :     0.000001
      f-1     :     0.000001
      f+2     :    -0.000000
      f-2     :    -0.000000
      f+3     :    -0.000000
      f-3     :    -0.000000
      g0      :    -0.000000  g :    -0.000000
      g+1     :    -0.000000
      g-1     :    -0.000000
      g+2     :     0.000000
      g-2     :     0.000000
      g+3     :    -0.000000
      g-3     :    -0.000000
      g+4     :     0.000000
      g-4     :     0.000000
  2 Cus       :     0.326228  s :     0.326228
      pz      :    -0.017681  p :    -0.015830
      px      :     0.000925
      py      :     0.000925
      dz2     :    -0.003195  d :    -0.003720
      dxz     :    -0.000224
      dyz     :    -0.000224
      dx2y2   :    -0.000039
      dxy     :    -0.000039
      f0      :    -0.000009  f :    -0.000008
      f+1     :     0.000001
      f-1     :     0.000001
      f+2     :    -0.000000
      f-2     :    -0.000000
      f+3     :    -0.000000
      f-3     :    -0.000000
      g0      :    -0.000000  g :    -0.000000
      g+1     :    -0.000000
      g-1     :    -0.000000
      g+2     :     0.000000
      g-2     :     0.000000
      g+3     :    -0.000000
      g-3     :    -0.000000
      g+4     :     0.000000
      g-4     :     0.000000


                      *****************************
                      * MAYER POPULATION ANALYSIS *
                      *****************************

  NA   - Mulliken gross atomic population
  ZA   - Total nuclear charge
  QA   - Mulliken gross atomic charge
  VA   - Mayer's total valence
  BVA  - Mayer's bonded valence
  FA   - Mayer's free valence

  ATOM       NA         ZA         QA         VA         BVA        FA
  0 Cu    29.2926    29.0000    -0.2926     1.0920     1.0148     0.0771
  1 Cu    28.8537    29.0000     0.1463     0.9600     0.5881     0.3719
  2 Cu    28.8537    29.0000     0.1463     0.9600     0.5881     0.3719

  Mayer bond orders larger than 0.100000
B(  0-Cu,  1-Cu) :   0.5074 B(  0-Cu,  2-Cu) :   0.5074 

-------
TIMINGS
-------

Total SCF time: 0 days 0 hours 0 min 10 sec 

Total time                  ....      10.262 sec
Sum of individual times     ....      10.070 sec  ( 98.1%)

Fock matrix formation       ....       9.374 sec  ( 91.4%)
  XC integration            ....       0.834 sec  (  8.9% of F)
    Basis function eval.    ....       0.064 sec  (  7.6% of XC)
    Density eval.           ....       0.071 sec  (  8.5% of XC)
    XC-Functional eval.     ....       0.021 sec  (  2.5% of XC)
    XC-Potential eval.      ....       0.139 sec  ( 16.7% of XC)
Diagonalization             ....       0.203 sec  (  2.0%)
Density matrix formation    ....       0.025 sec  (  0.2%)
Population analysis         ....       0.013 sec  (  0.1%)
Initial guess               ....       0.100 sec  (  1.0%)
Orbital Transformation      ....       0.000 sec  (  0.0%)
Orbital Orthonormalization  ....       0.000 sec  (  0.0%)
DIIS solution               ....       0.074 sec  (  0.7%)
Grid generation             ....       0.281 sec  (  2.7%)


           ************************************************************
           *        Program running with 24 parallel MPI-processes    *
           *              working on a common directory               *
           ************************************************************

------------------------------------------------------------------------------
                                ORCA  MP2 
------------------------------------------------------------------------------

Freezing NCore=30 chemical core electrons

----------------------
RI-MP2 ENERGY+GRADIENT
----------------------
Dimension of the basis                    ...  201
Memory devoted to MP2                     ... 5000 MB   
Data format for buffers                   ... DOUBLE
Compression type for matrix containers    ... UNCOMPRESSED
Overall scaling of the MP2 energy         ...   2.700e-01
Calculating two index integrals           ... done (    0.010 sec)
Cholesky decomposition of the V-matrix    ... done
Cholesky decomposition of V**-1           ... done (    0.017 sec)

-----------------
RI-TRANSFORMATION (AUX index driven)
-----------------

Dimension of the orbital-basis         ... 201
Dimension of the aux-basis             ... 675
Transformation of internal MOs         ...    0-  43
Transformation of internal/external MOs...    0-  43 to   44- 200
Number Format for Storage              ... Double (8 Byte)
Integral mode                          ... Direct

First Phase: integral generation and transformation of MO indices
  Aux angular momentum 0               ... done (    0.002 sec)
  Aux angular momentum 1               ... done (    0.004 sec)
  Aux angular momentum 2               ... done (    0.006 sec)
  Aux angular momentum 3               ... done (    0.005 sec)
  Aux angular momentum 4               ... done (    0.006 sec)
  Aux angular momentum 5               ... done (    0.010 sec)
  Aux angular momentum 6               ... done (    0.014 sec)
Closing buffer VIJ ( 0.00 GB; CompressionRatio= 1.00)
Closing buffer VIA ( 0.03 GB; CompressionRatio= 1.00)
  Phase 1 completed in     0.121 sec
Second Phase: sorting and transformation of aux index

IJ-Transformation
Memory available                       ... 4987 MB 
Max. # MO pairs treated in a batch     ... 2    
# of internal orbitals                 ... 44
# batches for internal orbitals        ... 1
Closing buffer IJV ( 0.00 GB; CompressionRatio= 1.00)
(ij|v) transformation done in     0.007 sec

IA-Transformation
Memory available                       ... 4987 MB 
Max. # MO pairs treated in a batch     ... 2    
# of internal orbitals                 ... 44
# batches for internal orbitals        ... 1
Closing buffer IAV ( 0.00 GB; CompressionRatio= 1.00)
(ia|v) transformation done in     0.021 sec

  Phase 2 completed in     0.074 sec
RI-Integral transformation completed in     0.197 sec

-----------------
RI-TRANSFORMATION (AUX index driven)
-----------------

Dimension of the orbital-basis         ... 201
Dimension of the aux-basis             ... 675
Transformation of internal MOs         ...    0-  42
Transformation of internal/external MOs...    0-  42 to   43- 200
Number Format for Storage              ... Double (8 Byte)
Integral mode                          ... Direct

First Phase: integral generation and transformation of MO indices
  Aux angular momentum 0               ... done (    0.002 sec)
  Aux angular momentum 1               ... done (    0.004 sec)
  Aux angular momentum 2               ... done (    0.006 sec)
  Aux angular momentum 3               ... done (    0.005 sec)
  Aux angular momentum 4               ... done (    0.006 sec)
  Aux angular momentum 5               ... done (    0.010 sec)
  Aux angular momentum 6               ... done (    0.014 sec)
Closing buffer VIJ ( 0.00 GB; CompressionRatio= 1.00)
Closing buffer VIA ( 0.03 GB; CompressionRatio= 1.00)
  Phase 1 completed in     0.120 sec
Second Phase: sorting and transformation of aux index

IJ-Transformation
Memory available                       ... 4987 MB 
Max. # MO pairs treated in a batch     ... 2    
# of internal orbitals                 ... 43
# batches for internal orbitals        ... 1
Closing buffer IJV ( 0.00 GB; CompressionRatio= 1.00)
(ij|v) transformation done in     0.007 sec

IA-Transformation
Memory available                       ... 4987 MB 
Max. # MO pairs treated in a batch     ... 2    
# of internal orbitals                 ... 43
# batches for internal orbitals        ... 1
Closing buffer IAV ( 0.00 GB; CompressionRatio= 1.00)
(ia|v) transformation done in     0.021 sec

  Phase 2 completed in     0.073 sec
RI-Integral transformation completed in     0.194 sec
Opening buffers                              ... done
Frozen core precalculation                   ... done

Starting loop over batches of integrals:

Operator 0  - window                       ... ( 15- 43)x( 44-200)
Operator 0  - Memory available             ...  5000 MB
Operator 0  - Memory needed per MO         ...   1.6 MB
Operator 0  - Number of orbitals per batch ... 2
Operator 0  - Number of batches            ... 1

OPERATOR  0   PASS   0:  MOs    15 ...   16 +   17 ...   18 +   19 ...   20 +   21 ...   22
                            +   23 ...   24 +   25 ...   26 +   27 ...   28 +   29 ...   30
                            +   31 ...   32 +   33 ...   34 +   35 ...   36 +   37 ...   38
                            +   39 ...   40 +   41 ...   42 +   43 ...   43
  Reading integrals       ... ok
Closing buffer GIPV ( 0.00 GB; CompressionRatio= 1.00)

Operator 1  - window                       ... ( 15- 42)x( 43-200)
Operator 1  - Memory available             ...  5000 MB
Operator 1  - Memory needed per MO         ...   1.6 MB
Operator 1  - Number of orbitals per batch ... 2
Operator 1  - Number of batches            ... 1

OPERATOR  1   PASS   0:  MOs    15 ...   16 +   17 ...   18 +   19 ...   20 +   21 ...   22
                            +   23 ...   24 +   25 ...   26 +   27 ...   28 +   29 ...   30
                            +   31 ...   32 +   33 ...   34 +   35 ...   36 +   37 ...   38
                            +   39 ...   40 +   41 ...   42
  Reading integrals       ... ok
Closing buffer GIPV ( 0.00 GB; CompressionRatio= 1.00)
Time spent in pair loops =     1.484 sec
Deleting buffer (Ka|jb)[aa] ...done
Deleting buffer (Ka|jb)[ab] ...done
Deleting buffer (Ka|jb)[ba] ...done
Deleting buffer (Ka|jb)[bb] ...done

Correlation energy components}
 E2 and T2 for alpha/alpha pairs :     -0.145088656 Eh      0.000000000
 E2 and T2 for beta/beta   pairs :     -0.138811891 Eh      0.000000000
 E2 and T2 for alpha/beta  pairs :     -0.534785463 Eh      0.000000000


-----------------------------------------------
 RI-MP2 CORRELATION ENERGY:     -0.818686010 Eh
-----------------------------------------------


---------------------
MP2 DENSITY FORMATION
---------------------

Completing the external part of the density      ... done
Storing the unrelaxed density                    ... done

Calculating the xc-kernel                        ... done
Calculating G(D)                                 ... done
Completing the Lagrangian                        ... done
Solving the Z-vector equations                   ... 

------------------------------------------------------------------------------
                           ORCA CP-SCF CALCULATION
------------------------------------------------------------------------------

Input orbitals are from        ... Cu03N0_LIN.gbw
Input Perturbation             ... Cu03N0_LIN.pin.tmp
Wavefunction output            ... Cu03N0_LIN.pout.tmp
Perturbation mode              ... Real perturbation (singlet)
Solver                         ... POPLE
Max. number of iterations      ... 128
Convergence tolerance          ... 1.000e-08
Integral handling              ... Direct
Number of perturbations        ... 1
Number of operators            ... 2
Orbital ranges used for CP-SCF:
 Operator 0:  Orbitals   0... 43  to  44...200
 Operator 1:  Orbitals   0... 42  to  43...200
DFT calculation                         ... on
Exchange functional (SCF)               ... B88
Exchange functional (CP-SCF)            ... B88
   X-Alpha parameter    XAlpha (SCF)    ...  0.666667
   X-Alpha parameter    XAlpha (CP-SCF) ...  0.666667
   Becke's b parameter  XBeta (SCF)     ...  0.004200
   Becke's b parameter  XBeta (CP-SCF)  ...  0.004200
Correlation functional (SCF)            ... LYP
Correlation functional (CP-SCF)         ... LYP
 LDA part of GGA corr.  LDAOpt (SCF)    ... VWN-3
 LDA part of GGA corr.  LDAOpt (CP-SCF) ... VWN-3
Hybrid DFT                              ... on
   Exchange mixing (SCF)                ...  0.530
   Exchange mixing (CP-SCF)             ...  0.530
   GGA exch. scaling(SCF)               ...  0.470
   GGA exch. scaling (CP-SCF)           ...  0.470
   GGA corr. scaling (SCF)              ...  0.730
   GGA corr. scaling (CP-SCF)           ...  0.730
Variables per vector in CP-SCF ... 13702
Number of vectors sought       ... 1
Recalculating density on grid  ... done
Calculating the xc-kernel      ... done
     CP-SCF ITERATION   0: 
     CP-SCF ITERATION   1:      0.000993708023
     CP-SCF ITERATION   2:      0.000202866255
     CP-SCF ITERATION   3:      0.000105938330
     CP-SCF ITERATION   4:      0.000005193811
     CP-SCF ITERATION   5:      0.000000723465
     CP-SCF ITERATION   6:      0.000000069785
     CP-SCF ITERATION   7:      0.000000004541
done
Finalizing the relaxed density                   ... done
Transforming P to the AO basis                   ... done
Storing the relaxed density                      ... done

------------------------------------
ENERGY WEIGHTED DENSITY FINALIZATION
------------------------------------

Gathering the parts of the W-matrix              ... done
Forming the Z-density                            ... done
Transforming Z to the AO basis                   ... done
Calculating G(Z)                                 ... done
Finalizing the W-matrix                          ... done
Transforming W to the AO basis and storing       ... done
Entering the RIJONX and RIJCOSX sections
Starting the three-index derivative integrals:
Operator 0  - Memory available             ...  5000 MB
Operator 0  - Memory needed per MO         ...   2.1 MB
Operator 0  - Number of orbitals per batch ... 2
Operator 0  - Number of batches            ... 1

OPERATOR  0   PASS   0:  MOs    15 ...   16 +   17 ...   18 +   19 ...   20 +   21 ...   22
                            +   23 ...   24 +   25 ...   26 +   27 ...   28 +   29 ...   30
                            +   31 ...   32 +   33 ...   34 +   35 ...   36 +   37 ...   38
                            +   39 ...   40 +   41 ...   42 +   43 ...   43
Operator 1  - Memory available             ...  5000 MB
Operator 1  - Memory needed per MO         ...   2.1 MB
Operator 1  - Number of orbitals per batch ... 2
Operator 1  - Number of batches            ... 1

OPERATOR  1   PASS   0:  MOs    15 ...   16 +   17 ...   18 +   19 ...   20 +   21 ...   22
                            +   23 ...   24 +   25 ...   26 +   27 ...   28 +   29 ...   30
                            +   31 ...   32 +   33 ...   34 +   35 ...   36 +   37 ...   38
                            +   39 ...   40 +   41 ...   42

----------------------------------
MP2 DERIVATIVE INTEGRAL GENERATION
----------------------------------


Input Correlated Electron Density   ... Cu03N0_LIN.pmp2re
Input Energy Weighted Density       ... Cu03N0_LIN.wmp2.tmp
Input SCF Electron Density          ... Cu03N0_LIN.scfp

One-Electron Terms    ...
                        ... One-Electron Terms done
Prescreening matrices              ... done
Exchange-correlation gradient    ... done
Dispersion correction            ... done

                *********************************************
                * UNRELAXED MP2 DENSITY POPULATION ANALYSIS *
                *********************************************

------------------------------------------------------------------------------
                           ORCA POPULATION ANALYSIS
------------------------------------------------------------------------------
Input electron density              ... Cu03N0_LIN.pmp2ur
Input spin density                  ... Cu03N0_LIN.rmp2ur
BaseName (.gbw .S,...)              ... Cu03N0_LIN

                    ********************************
                    * MULLIKEN POPULATION ANALYSIS *
                    ********************************

------------------------------------------
MULLIKEN ATOMIC CHARGES AND SPIN DENSITIES
------------------------------------------
   0 Cu:   -0.285106   -0.214340
   1 Cu:    0.142553    0.607173
   2 Cu:    0.142553    0.607167
Sum of atomic charges       :   -0.0000000
Sum of atomic spin densities:    1.0000000

---------------------------------------------------
MULLIKEN REDUCED ORBITAL CHARGES AND SPIN DENSITIES
---------------------------------------------------
CHARGE
  0 Cus       :     7.264493  s :     7.264493
      pz      :     4.045358  p :    12.075427
      px      :     4.015034
      py      :     4.015034
      dz2     :     1.978052  d :     9.933158
      dxz     :     1.980829
      dyz     :     1.980829
      dx2y2   :     1.996724
      dxy     :     1.996724
      f0      :     0.001695  f :     0.011183
      f+1     :     0.001639
      f-1     :     0.001639
      f+2     :     0.001563
      f-2     :     0.001563
      f+3     :     0.001541
      f-3     :     0.001541
      g0      :     0.000094  g :     0.000845
      g+1     :     0.000094
      g-1     :     0.000094
      g+2     :     0.000094
      g-2     :     0.000094
      g+3     :     0.000094
      g-3     :     0.000094
      g+4     :     0.000094
      g-4     :     0.000094
  1 Cus       :     6.875234  s :     6.875234
      pz      :     3.992377  p :    12.015214
      px      :     4.011418
      py      :     4.011418
      dz2     :     1.975242  d :     9.955306
      dxz     :     1.992969
      dyz     :     1.992969
      dx2y2   :     1.997063
      dxy     :     1.997063
      f0      :     0.001596  f :     0.010850
      f+1     :     0.001574
      f-1     :     0.001574
      f+2     :     0.001534
      f-2     :     0.001534
      f+3     :     0.001519
      f-3     :     0.001519
      g0      :     0.000094  g :     0.000843
      g+1     :     0.000094
      g-1     :     0.000094
      g+2     :     0.000094
      g-2     :     0.000094
      g+3     :     0.000094
      g-3     :     0.000094
      g+4     :     0.000094
      g-4     :     0.000094
  2 Cus       :     6.875234  s :     6.875234
      pz      :     3.992377  p :    12.015214
      px      :     4.011418
      py      :     4.011418
      dz2     :     1.975242  d :     9.955306
      dxz     :     1.992969
      dyz     :     1.992969
      dx2y2   :     1.997063
      dxy     :     1.997063
      f0      :     0.001596  f :     0.010850
      f+1     :     0.001574
      f-1     :     0.001574
      f+2     :     0.001534
      f-2     :     0.001534
      f+3     :     0.001519
      f-3     :     0.001519
      g0      :     0.000094  g :     0.000843
      g+1     :     0.000094
      g-1     :     0.000094
      g+2     :     0.000094
      g-2     :     0.000094
      g+3     :     0.000094
      g-3     :     0.000094
      g+4     :     0.000094
      g-4     :     0.000094

SPIN
  0 Cus       :    -0.262166  s :    -0.262166
      pz      :     0.055163  p :     0.053798
      px      :    -0.000682
      py      :    -0.000682
      dz2     :    -0.000972  d :    -0.005995
      dxz     :    -0.002331
      dyz     :    -0.002331
      dx2y2   :    -0.000181
      dxy     :    -0.000181
      f0      :     0.000013  f :     0.000024
      f+1     :     0.000003
      f-1     :     0.000003
      f+2     :     0.000000
      f-2     :     0.000000
      f+3     :     0.000002
      f-3     :     0.000002
      g0      :    -0.000000  g :    -0.000001
      g+1     :    -0.000000
      g-1     :    -0.000000
      g+2     :    -0.000000
      g-2     :    -0.000000
      g+3     :    -0.000000
      g-3     :    -0.000000
      g+4     :     0.000000
      g-4     :     0.000000
  1 Cus       :     0.602273  s :     0.602273
      pz      :     0.002940  p :     0.006455
      px      :     0.001757
      py      :     0.001757
      dz2     :    -0.002998  d :    -0.001491
      dxz     :     0.000460
      dyz     :     0.000460
      dx2y2   :     0.000293
      dxy     :     0.000293
      f0      :    -0.000009  f :    -0.000061
      f+1     :    -0.000008
      f-1     :    -0.000008
      f+2     :    -0.000009
      f-2     :    -0.000009
      f+3     :    -0.000009
      f-3     :    -0.000009
      g0      :    -0.000000  g :    -0.000004
      g+1     :    -0.000000
      g-1     :    -0.000000
      g+2     :    -0.000000
      g-2     :    -0.000000
      g+3     :    -0.000000
      g-3     :    -0.000000
      g+4     :    -0.000000
      g-4     :    -0.000000
  2 Cus       :     0.602269  s :     0.602269
      pz      :     0.002938  p :     0.006453
      px      :     0.001757
      py      :     0.001757
      dz2     :    -0.002998  d :    -0.001491
      dxz     :     0.000460
      dyz     :     0.000460
      dx2y2   :     0.000293
      dxy     :     0.000293
      f0      :    -0.000009  f :    -0.000061
      f+1     :    -0.000008
      f-1     :    -0.000008
      f+2     :    -0.000009
      f-2     :    -0.000009
      f+3     :    -0.000009
      f-3     :    -0.000009
      g0      :    -0.000000  g :    -0.000004
      g+1     :    -0.000000
      g-1     :    -0.000000
      g+2     :    -0.000000
      g-2     :    -0.000000
      g+3     :    -0.000000
      g-3     :    -0.000000
      g+4     :    -0.000000
      g-4     :    -0.000000


                     *******************************
                     * LOEWDIN POPULATION ANALYSIS *
                     *******************************

-----------------------------------------
LOEWDIN ATOMIC CHARGES AND SPIN DENSITIES
-----------------------------------------
   0 Cu:   -0.240901    0.384007
   1 Cu:    0.120451    0.307996
   2 Cu:    0.120451    0.307996

--------------------------------------------------
LOEWDIN REDUCED ORBITAL CHARGES AND SPIN DENSITIES
--------------------------------------------------
CHARGE
  0 Cus       :     6.724066  s :     6.724066
      pz      :     4.455309  p :    12.487217
      px      :     4.015954
      py      :     4.015954
      dz2     :     2.060213  d :    10.017116
      dxz     :     1.981725
      dyz     :     1.981725
      dx2y2   :     1.996726
      dxy     :     1.996726
      f0      :     0.001989  f :     0.011656
      f+1     :     0.001726
      f-1     :     0.001726
      f+2     :     0.001566
      f-2     :     0.001566
      f+3     :     0.001541
      f-3     :     0.001541
      g0      :     0.000095  g :     0.000846
      g+1     :     0.000095
      g-1     :     0.000095
      g+2     :     0.000094
      g-2     :     0.000094
      g+3     :     0.000094
      g-3     :     0.000094
      g+4     :     0.000094
      g-4     :     0.000094
  1 Cus       :     6.710302  s :     6.710302
      pz      :     4.136399  p :    12.160817
      px      :     4.012209
      py      :     4.012209
      dz2     :     2.020030  d :     9.996497
      dxz     :     1.991175
      dyz     :     1.991175
      dx2y2   :     1.997059
      dxy     :     1.997059
      f0      :     0.001728  f :     0.011090
      f+1     :     0.001626
      f-1     :     0.001626
      f+2     :     0.001536
      f-2     :     0.001536
      f+3     :     0.001519
      f-3     :     0.001519
      g0      :     0.000094  g :     0.000844
      g+1     :     0.000094
      g-1     :     0.000094
      g+2     :     0.000094
      g-2     :     0.000094
      g+3     :     0.000094
      g-3     :     0.000094
      g+4     :     0.000094
      g-4     :     0.000094
  2 Cus       :     6.710302  s :     6.710302
      pz      :     4.136399  p :    12.160817
      px      :     4.012209
      py      :     4.012209
      dz2     :     2.020030  d :     9.996497
      dxz     :     1.991175
      dyz     :     1.991175
      dx2y2   :     1.997059
      dxy     :     1.997059
      f0      :     0.001728  f :     0.011090
      f+1     :     0.001626
      f-1     :     0.001626
      f+2     :     0.001536
      f-2     :     0.001536
      f+3     :     0.001519
      f-3     :     0.001519
      g0      :     0.000094  g :     0.000844
      g+1     :     0.000094
      g-1     :     0.000094
      g+2     :     0.000094
      g-2     :     0.000094
      g+3     :     0.000094
      g-3     :     0.000094
      g+4     :     0.000094
      g-4     :     0.000094

SPIN
  0 Cus       :    -0.050551  s :    -0.050551
      pz      :     0.412699  p :     0.412654
      px      :    -0.000023
      py      :    -0.000023
      dz2     :     0.025016  d :     0.021809
      dxz     :    -0.001603
      dyz     :    -0.001603
      dx2y2   :    -0.000000
      dxy     :    -0.000000
      f0      :     0.000078  f :     0.000097
      f+1     :     0.000007
      f-1     :     0.000007
      f+2     :     0.000001
      f-2     :     0.000001
      f+3     :     0.000002
      f-3     :     0.000002
      g0      :    -0.000000  g :    -0.000001
      g+1     :    -0.000000
      g-1     :    -0.000000
      g+2     :    -0.000000
      g-2     :    -0.000000
      g+3     :    -0.000000
      g-3     :    -0.000000
      g+4     :     0.000000
      g-4     :     0.000000
  1 Cus       :     0.322857  s :     0.322857
      pz      :    -0.015543  p :    -0.012560
      px      :     0.001492
      py      :     0.001492
      dz2     :    -0.002694  d :    -0.002226
      dxz     :     0.000031
      dyz     :     0.000031
      dx2y2   :     0.000203
      dxy     :     0.000203
      f0      :    -0.000019  f :    -0.000071
      f+1     :    -0.000009
      f-1     :    -0.000009
      f+2     :    -0.000009
      f-2     :    -0.000009
      f+3     :    -0.000009
      f-3     :    -0.000009
      g0      :    -0.000000  g :    -0.000004
      g+1     :    -0.000000
      g-1     :    -0.000000
      g+2     :    -0.000000
      g-2     :    -0.000000
      g+3     :    -0.000000
      g-3     :    -0.000000
      g+4     :    -0.000000
      g-4     :    -0.000000
  2 Cus       :     0.322857  s :     0.322857
      pz      :    -0.015543  p :    -0.012560
      px      :     0.001492
      py      :     0.001492
      dz2     :    -0.002694  d :    -0.002226
      dxz     :     0.000031
      dyz     :     0.000031
      dx2y2   :     0.000203
      dxy     :     0.000203
      f0      :    -0.000019  f :    -0.000071
      f+1     :    -0.000009
      f-1     :    -0.000009
      f+2     :    -0.000009
      f-2     :    -0.000009
      f+3     :    -0.000009
      f-3     :    -0.000009
[...]
      g-4     :     0.000093
  1 Cus       :     6.736187  s :     6.736187
      pz      :     4.119439  p :    12.144672
      px      :     4.012616
      py      :     4.012616
      dz2     :     2.016288  d :     9.993255
      dxz     :     1.991352
      dyz     :     1.991352
      dx2y2   :     1.997131
      dxy     :     1.997131
      f0      :     0.001631  f :     0.010852
      f+1     :     0.001574
      f-1     :     0.001574
      f+2     :     0.001525
      f-2     :     0.001525
      f+3     :     0.001511
      f-3     :     0.001511
      g0      :     0.000094  g :     0.000842
      g+1     :     0.000094
      g-1     :     0.000094
      g+2     :     0.000094
      g-2     :     0.000094
      g+3     :     0.000094
      g-3     :     0.000094
      g+4     :     0.000093
      g-4     :     0.000093
  2 Cus       :     6.736187  s :     6.736187
      pz      :     4.119439  p :    12.144672
      px      :     4.012616
      py      :     4.012616
      dz2     :     2.016288  d :     9.993255
      dxz     :     1.991352
      dyz     :     1.991352
      dx2y2   :     1.997131
      dxy     :     1.997131
      f0      :     0.001631  f :     0.010852
      f+1     :     0.001574
      f-1     :     0.001574
      f+2     :     0.001525
      f-2     :     0.001525
      f+3     :     0.001511
      f-3     :     0.001511
      g0      :     0.000094  g :     0.000842
      g+1     :     0.000094
      g-1     :     0.000094
      g+2     :     0.000094
      g-2     :     0.000094
      g+3     :     0.000094
      g-3     :     0.000094
      g+4     :     0.000093
      g-4     :     0.000093

SPIN
  0 Cus       :    -0.045097  s :    -0.045097
      pz      :     0.380577  p :     0.380338
      px      :    -0.000120
      py      :    -0.000120
      dz2     :     0.020555  d :     0.016242
      dxz     :    -0.002100
      dyz     :    -0.002100
      dx2y2   :    -0.000057
      dxy     :    -0.000057
      f0      :     0.000069  f :     0.000085
      f+1     :     0.000004
      f-1     :     0.000004
      f+2     :     0.000001
      f-2     :     0.000001
      f+3     :     0.000002
      f-3     :     0.000002
      g0      :    -0.000000  g :    -0.000000
      g+1     :    -0.000000
      g-1     :    -0.000000
      g+2     :    -0.000000
      g-2     :    -0.000000
      g+3     :    -0.000000
      g-3     :    -0.000000
      g+4     :     0.000000
      g-4     :     0.000000
  1 Cus       :     0.331924  s :     0.331924
      pz      :    -0.007772  p :    -0.004594
      px      :     0.001589
      py      :     0.001589
      dz2     :    -0.003841  d :    -0.003041
      dxz     :     0.000172
      dyz     :     0.000172
      dx2y2   :     0.000228
      dxy     :     0.000228
      f0      :    -0.000016  f :    -0.000070
      f+1     :    -0.000009
      f-1     :    -0.000009
      f+2     :    -0.000009
      f-2     :    -0.000009
      f+3     :    -0.000009
      f-3     :    -0.000009
      g0      :    -0.000000  g :    -0.000004
      g+1     :    -0.000000
      g-1     :    -0.000000
      g+2     :    -0.000000
      g-2     :    -0.000000
      g+3     :    -0.000000
      g-3     :    -0.000000
      g+4     :    -0.000000
      g-4     :    -0.000000
  2 Cus       :     0.331925  s :     0.331925
      pz      :    -0.007772  p :    -0.004594
      px      :     0.001589
      py      :     0.001589
      dz2     :    -0.003841  d :    -0.003041
      dxz     :     0.000172
      dyz     :     0.000172
      dx2y2   :     0.000228
      dxy     :     0.000228
      f0      :    -0.000016  f :    -0.000070
      f+1     :    -0.000009
      f-1     :    -0.000009
      f+2     :    -0.000009
      f-2     :    -0.000009
      f+3     :    -0.000009
      f-3     :    -0.000009
      g0      :    -0.000000  g :    -0.000004
      g+1     :    -0.000000
      g-1     :    -0.000000
      g+2     :    -0.000000
      g-2     :    -0.000000
      g+3     :    -0.000000
      g-3     :    -0.000000
      g+4     :    -0.000000
      g-4     :    -0.000000


                      *****************************
                      * MAYER POPULATION ANALYSIS *
                      *****************************

  NA   - Mulliken gross atomic population
  ZA   - Total nuclear charge
  QA   - Mulliken gross atomic charge
  VA   - Mayer's total valence
  BVA  - Mayer's bonded valence
  FA   - Mayer's free valence

  ATOM       NA         ZA         QA         VA         BVA        FA
  0 Cu    29.3444    29.0000    -0.3444     1.5781     1.0750     0.5031
  1 Cu    28.8278    29.0000     0.1722     1.3536     0.6450     0.7085
  2 Cu    28.8278    29.0000     0.1722     1.3536     0.6450     0.7085

  Mayer bond orders larger than 0.100000
B(  0-Cu,  1-Cu) :   0.5375 B(  0-Cu,  2-Cu) :   0.5375 B(  1-Cu,  2-Cu) :   0.1075 



-------
TIMINGS
-------

Total time                :   22.196 sec
Integral trafo            :    0.468 sec (  2.1%)
FC preparation            :    0.145 sec (  0.7%)
I/O of integrals          :    0.007 sec (  0.0%)
K(i,j) Operators          :    0.162 sec (  0.7%)
T(i,j) pair energies      :    0.020 sec (  0.1%)
V-calculation             :    0.014 sec (  0.1%)
V**(-1/2)                 :    0.018 sec (  0.1%)
Gamma(ia|P)               :    0.112 sec (  0.5%)
Gamma-Trafo               :    0.029 sec (  0.1%)
D(virtual)                :    0.015 sec (  0.1%)
D(internal)               :    0.214 sec (  1.0%)
W(virtual)                :    0.015 sec (  0.1%)
W(internal)               :    0.126 sec (  0.6%)
L(virtual)                :    0.634 sec (  2.9%)
L(internal)               :    0.007 sec (  0.0%)
G(D)                      :    2.196 sec (  9.9%)
G(Z)                      :    2.129 sec (  9.6%)
Z-Vector Solution         :    8.002 sec ( 36.1%)
Z-Vector Solution         :    8.002 sec ( 36.1%)
3-Index Derivative 
+ Separable RIJ part      :    3.660 sec ( 16.5%)
2-Index Derivative 
+ Separable RIJ part      :    0.011 sec (  0.1%)
Separable Gradient (X)    :    3.385 sec ( 15.2%)


---------------------------------------
MP2 TOTAL ENERGY:    -4921.043770448 Eh
---------------------------------------

-----------------------------------
NORM OF THE MP2 GRADIENT:  0.000000
-----------------------------------


-------------------------------------------------------------------------------
                          DFT DISPERSION CORRECTION                            
                                                                               
                              DFTD3 V3.1  Rev 1                                
                          USING Becke-Johnson damping                          
-------------------------------------------------------------------------------
The B2PLYP functional is recognized
Active option DFTDOPT                   ...         4   

molecular C6(AA) [au] = 1626.171813 


            DFT-D V3
 parameters
 s6 scaling factor         :     0.6400 
 a1 scaling factor         :     0.3065 
 s8 scaling factor         :     0.9147 
 a2 scaling factor         :     5.0570 
 ad hoc parameters k1-k3   :    16.0000     1.3333    -4.0000 

 Edisp/kcal,au: -1.980014176072  -0.003155353101 
 E6   /kcal   :  -0.682442180 
 E8   /kcal   :  -1.297571996 
 % E8         :  65.533469978 

-------------------------   ----------------
Dispersion correction           -0.003155353
-------------------------   ----------------


-------------------------   --------------------
FINAL SINGLE POINT ENERGY     -4921.046925801068
-------------------------   --------------------

                                *** OPTIMIZATION RUN DONE ***

                            ***************************************
                            *     ORCA property calculations      *
                            ***************************************

                                    ---------------------
                                    Active property flags
                                    ---------------------
   (+) Dipole Moment


------------------------------------------------------------------------------
                       ORCA ELECTRIC PROPERTIES CALCULATION
------------------------------------------------------------------------------

Dipole Moment Calculation                       ... on
Quadrupole Moment Calculation                   ... off
Polarizability Calculation                      ... off
GBWName                                         ... Cu03N0_LIN.gbw
Electron density file                           ... Cu03N0_LIN.scfp
The origin for moment calculation is the CENTER OF MASS  = (-0.000000, -0.000000  0.000000)

-------------
DIPOLE MOMENT
-------------
                                X             Y             Z
Electronic contribution:     -0.00000       0.00000      -0.00000
Nuclear contribution   :     -0.00000      -0.00000       0.00000
                        -----------------------------------------
Total Dipole Moment    :     -0.00000       0.00000      -0.00000
                        -----------------------------------------
Magnitude (a.u.)       :      0.00000
Magnitude (Debye)      :      0.00000



--------------------
Rotational spectrum 
--------------------
 
Rotational constants in cm-1:     0.000000     0.021957     0.021957 
Rotational constants in MHz :     0.000000   658.257850   658.257850 

 Dipole components along the rotational axes: 
x,y,z [a.u.] :    -0.000000     0.000000    -0.000000 
x,y,z [Debye]:    -0.000000     0.000001    -0.000000 

 

                         *** MP2 UNRELAXED DENSITY ***

------------------------------------------------------------------------------
                       ORCA ELECTRIC PROPERTIES CALCULATION
------------------------------------------------------------------------------

Dipole Moment Calculation                       ... on
Quadrupole Moment Calculation                   ... off
Polarizability Calculation                      ... off
GBWName                                         ... Cu03N0_LIN.gbw
Electron density file                           ... Cu03N0_LIN.pmp2ur
The origin for moment calculation is the CENTER OF MASS  = (-0.000000, -0.000000  0.000000)

-------------
DIPOLE MOMENT
-------------
                                X             Y             Z
Electronic contribution:     -0.00000       0.00000      -0.00000
Nuclear contribution   :     -0.00000      -0.00000       0.00000
                        -----------------------------------------
Total Dipole Moment    :     -0.00000       0.00000      -0.00000
                        -----------------------------------------
Magnitude (a.u.)       :      0.00000
Magnitude (Debye)      :      0.00000



--------------------
Rotational spectrum 
--------------------
 
Rotational constants in cm-1:     0.000000     0.021957     0.021957 
Rotational constants in MHz :     0.000000   658.257850   658.257850 

 Dipole components along the rotational axes: 
x,y,z [a.u.] :    -0.000000     0.000000    -0.000000 
x,y,z [Debye]:    -0.000000     0.000001    -0.000000 

 

                           *** MP2 RELAXED DENSITY ***

------------------------------------------------------------------------------
                       ORCA ELECTRIC PROPERTIES CALCULATION
------------------------------------------------------------------------------

Dipole Moment Calculation                       ... on
Quadrupole Moment Calculation                   ... off
Polarizability Calculation                      ... off
GBWName                                         ... Cu03N0_LIN.gbw
Electron density file                           ... Cu03N0_LIN.pmp2re
The origin for moment calculation is the CENTER OF MASS  = (-0.000000, -0.000000  0.000000)

-------------
DIPOLE MOMENT
-------------
                                X             Y             Z
Electronic contribution:     -0.00000       0.00000      -0.00000
Nuclear contribution   :     -0.00000      -0.00000       0.00000
                        -----------------------------------------
Total Dipole Moment    :     -0.00000       0.00000      -0.00000
                        -----------------------------------------
Magnitude (a.u.)       :      0.00000
Magnitude (Debye)      :      0.00000



--------------------
Rotational spectrum 
--------------------
 
Rotational constants in cm-1:     0.000000     0.021957     0.021957 
Rotational constants in MHz :     0.000000   658.257850   658.257850 

 Dipole components along the rotational axes: 
x,y,z [a.u.] :    -0.000000     0.000000    -0.000000 
x,y,z [Debye]:    -0.000000     0.000001    -0.000000 

 

----------------------------------------------------------------------------
                           ORCA NUMERICAL FREQUENCIES
                              (24-process run)
----------------------------------------------------------------------------

Number of atoms                ... 3
Central differences            ... used
Number of displacements        ... 18
Numerical increment            ... 5.000e-03 bohr
IR-spectrum generation         ... on
Raman-spectrum generation      ... off
Surface Crossing Hessian       ... off

 WARNING: There are more processes than displacements to do
  ====> : Reducing number of processes to   9

The output will be reduced. Please look at the following files:
SCF program output             ... >Cu03N0_LIN.lastscf
Integral program output        ... >Cu03N0_LIN.lastint
Gradient program output        ... >Cu03N0_LIN.lastgrad
Dipole moment program output   ... >Cu03N0_LIN.lastmom
AutoCI program output          ... >Cu03N0_LIN.lastautoci


         <<< Energy and Gradient at the input geometry >>>

        <<< Energy and Gradient at displaced geometries >>>
             <<<Displacing   1/coordinate 3 (+)>>>
             <<<Displacing   2/coordinate 1 (+)>>>
             <<<Displacing   3/coordinate 2 (+)>>>
             <<<Displacing   3/coordinate 1 (+)>>>
             <<<Displacing   2/coordinate 3 (+)>>>
             <<<Displacing   2/coordinate 2 (+)>>>
             <<<Displacing   1/coordinate 1 (+)>>>
             <<<Displacing   3/coordinate 3 (+)>>>
             <<<Displacing   1/coordinate 2 (+)>>>
             <<<Displacing   3/coordinate 1 (-)>>>
             <<<Displacing   3/coordinate 2 (-)>>>
             <<<Displacing   2/coordinate 1 (-)>>>
             <<<Displacing   2/coordinate 2 (-)>>>
             <<<Displacing   1/coordinate 2 (-)>>>
             <<<Displacing   1/coordinate 1 (-)>>>
             <<<Displacing   3/coordinate 3 (-)>>>
             <<<Displacing   2/coordinate 3 (-)>>>
             <<<Displacing   1/coordinate 3 (-)>>>

-----------------------
VIBRATIONAL FREQUENCIES
-----------------------

Scaling factor for frequencies =  1.000000000 (already applied!)

   0:         0.00 cm**-1
   1:         0.00 cm**-1
   2:         0.00 cm**-1
   3:         0.00 cm**-1
   4:         0.00 cm**-1
   5:         0.00 cm**-1
   6:      -154.49 cm**-1 ***imaginary mode***
   7:       127.52 cm**-1
   8:       200.67 cm**-1


------------
NORMAL MODES
------------

These modes are the cartesian displacements weighted by the diagonal matrix
M(i,i)=1/sqrt(m[i]) where m[i] is the mass of the displaced atom
Thus, these vectors are normalized but *not* orthogonal

                  0          1          2          3          4          5    
      0       0.000000   0.000000   0.000000   0.000000   0.000000   0.000000
      1       0.000000   0.000000   0.000000   0.000000   0.000000   0.000000
      2       0.000000   0.000000   0.000000   0.000000   0.000000   0.000000
      3       0.000000   0.000000   0.000000   0.000000   0.000000   0.000000
      4       0.000000   0.000000   0.000000   0.000000   0.000000   0.000000
      5       0.000000   0.000000   0.000000   0.000000   0.000000   0.000000
      6       0.000000   0.000000   0.000000   0.000000   0.000000   0.000000
      7       0.000000   0.000000   0.000000   0.000000   0.000000   0.000000
      8       0.000000   0.000000   0.000000   0.000000   0.000000   0.000000
                   6          7          8    
      0      -0.491006  -0.000010   0.000006
      1       0.652365   0.000013  -0.000008
      2      -0.000010  -0.000170  -0.816497
      3       0.245503   0.000005  -0.000003
      4      -0.326182  -0.000007   0.000004
      5      -0.000009   0.707192   0.408101
      6       0.245503   0.000005  -0.000003
      7      -0.326182  -0.000007   0.000004
      8       0.000019  -0.707022   0.408396


-----------
IR SPECTRUM  
-----------

 Mode    freq (cm**-1)   T**2         TX         TY         TZ
-------------------------------------------------------------------
   7:       127.52    0.000000  (  0.000019  -0.000012   0.000581)
   8:       200.67    7.178183  ( -0.000016   0.000015   2.679213)

The first frequency considered to be a vibration is 7
The total number of vibrations considered is 2


--------------------------
THERMOCHEMISTRY AT 298.15K
--------------------------

Temperature         ... 298.15 K
Pressure            ... 1.00 atm
Total Mass          ... 190.65 AMU
The molecule is recognized as being linear

Throughout the following assumptions are being made:
  (1) The electronic state is orbitally nondegenerate
      but the spin degeneracy is treated
  (2) There are no thermally accessible electronically excited states
  (3) Hindered rotations indicated by low frequency modes are not
      treated as such but are treated as vibrations and this may
      cause some error
  (4) All equations used are the standard statistical mechanics
      equations for an ideal gas
  (5) All vibrations are strictly harmonic

freq.     127.52  E(vib)   ...       0.43 
freq.     200.67  E(vib)   ...       0.35 

------------
INNER ENERGY
------------

The inner energy is: U= E(el) + E(ZPE) + E(vib) + E(rot) + E(trans)
    E(el)   - is the total energy from the electronic structure calculation
              = E(kin-el) + E(nuc-el) + E(el-el) + E(nuc-nuc)
    E(ZPE)  - the the zero temperature vibrational energy from the frequency calculation
    E(vib)  - the the finite temperature correction to E(ZPE) due to population
              of excited vibrational states
    E(rot)  - is the rotational thermal energy
    E(trans)- is the translational thermal energy

Summary of contributions to the inner energy U:
Electronic energy                ...  -4921.04692570 Eh
Zero point energy                ...      0.00074767 Eh       0.47 kcal/mol
Thermal vibrational correction   ...      0.00124301 Eh       0.78 kcal/mol
Thermal rotational correction    ...      0.00094418 Eh       0.59 kcal/mol
Thermal translational correction ...      0.00141627 Eh       0.89 kcal/mol
-----------------------------------------------------------------------
Total thermal energy                  -4921.04257457 Eh


Summary of corrections to the electronic energy:
(perhaps to be used in another calculation)
Total thermal correction                  0.00360346 Eh       2.26 kcal/mol
Non-thermal (ZPE) correction              0.00074767 Eh       0.47 kcal/mol
-----------------------------------------------------------------------
Total correction                          0.00435113 Eh       2.73 kcal/mol


--------
ENTHALPY
--------

The enthalpy is H = U + kB*T
                kB is Boltzmann's constant
Total free energy                 ...  -4921.04257457 Eh 
Thermal Enthalpy correction       ...      0.00094421 Eh       0.59 kcal/mol
-----------------------------------------------------------------------
Total Enthalpy                    ...  -4921.04163036 Eh

[file orca_tools/Tool-Symmetry/symmain.cpp, line 3070]: Error (ORCA_SYM): TMoleculeSymmetry::CleanUp molecule is linear but not aligned to z axis!

[file orca_tools/Tool-Symmetry/symmain.cpp, line 3070]: Error (ORCA_SYM): TMoleculeSymmetry::CleanUp molecule is linear but not aligned to z axis!

