
    -----------------------------------------------------------------------
          Psi4: An Open-Source Ab Initio Electronic Structure Package
                               Psi4 1.3.2 release

                         Git: Rev {HEAD} ecbda83 


    R. M. Parrish, L. A. Burns, D. G. A. Smith, A. C. Simmonett,
    A. E. DePrince III, E. G. Hohenstein, U. Bozkaya, A. Yu. Sokolov,
    R. Di Remigio, R. M. Richard, J. F. Gonthier, A. M. James,
    H. R. McAlexander, A. Kumar, M. Saitow, X. Wang, B. P. Pritchard,
    P. Verma, H. F. Schaefer III, K. Patkowski, R. A. King, E. F. Valeev,
    F. A. Evangelista, J. M. Turney, T. D. Crawford, and C. D. Sherrill,
    J. Chem. Theory Comput. 13(7) pp 3185--3197 (2017).
    (doi: 10.1021/acs.jctc.7b00174)


                         Additional Contributions by
    P. Kraus, H. Kruse, M. H. Lechner, M. C. Schieber, R. A. Shaw,
    A. Alenaizan, R. Galvelis, Z. L. Glick, S. Lehtola, and J. P. Misiewicz

    -----------------------------------------------------------------------


    Psi4 started on: Thursday, 28 October 2021 03:26PM

    Process ID: 121182
    Host:       bp1-compute00157.data.bp.acrc.priv
    PSIDATADIR: /work/zw18965/.conda/envs/p4env/share/psi4
    Memory:     500.0 MiB
    Threads:    24
    
  ==> Input File <==

--------------------------------------------------------------------------
memory 144 GB

molecule {
0 1
Ag       0.000000    0.000000    0.033547 
H        0.000000    0.000000   -1.576706 
 }

set basis Def2-TZVPPD

energy("M11-D3BJ")
--------------------------------------------------------------------------

  Memory set to 134.110 GiB by Python driver.

*** tstart() called on bp1-compute00157.data.bp.acrc.priv
*** at Thu Oct 28 15:26:01 2021

   => Loading Basis Set <=

    Name: DEF2-TZVPPD
    Role: ORBITAL
    Keyword: BASIS
    atoms 1 entry AG         line  2174 (ECP: line  3646) file /work/zw18965/.conda/envs/p4env/share/psi4/basis/def2-tzvppd.gbs 
    atoms 2 entry H          line    14 file /work/zw18965/.conda/envs/p4env/share/psi4/basis/def2-tzvppd.gbs 

    !!!  WARNING: ECP capability is in beta. Please check occupations closely.  !!!


         ---------------------------------------------------------
                                   SCF
               by Justin Turney, Rob Parrish, Andy Simmonett
                          and Daniel G. A. Smith
                              RKS Reference
                       24 Threads, 137329 MiB Core
         ---------------------------------------------------------

  ==> Geometry <==

    Molecular point group: c2v
    Full point group: C_inf_v

    Geometry (in Angstrom), charge = 0, multiplicity = 1:

       Center              X                  Y                   Z               Mass       
    ------------   -----------------  -----------------  -----------------  -----------------
         AG           0.000000000000     0.000000000000     0.015038545267   106.905091600000
         H            0.000000000000     0.000000000000    -1.595214454733     1.007825032230

  Running in c2v symmetry.

  Rotational constants: A = ************  B =      6.51176  C =      6.51176 [cm^-1]
  Rotational constants: A = ************  B = 195217.55314  C = 195217.55314 [MHz]
  Nuclear repulsion =    6.243967254046415

  Charge       = 0
  Multiplicity = 1
  Electrons    = 20
  Nalpha       = 10
  Nbeta        = 10

  ==> Algorithm <==

  SCF Algorithm Type is DF.
  DIIS enabled.
  MOM disabled.
  Fractional occupation disabled.
  Guess Type is SAD.
  Energy threshold   = 1.00e-06
  Density threshold  = 1.00e-06
  Integral threshold = 0.00e+00

  ==> Primary Basis <==

  Basis Set: DEF2-TZVPPD
    Blend: DEF2-TZVPPD
    Number of shells: 23
    Number of basis function: 73
    Number of Cartesian functions: 89
    Spherical Harmonics?: true
    Max angular momentum: 4

  Core potential: DEF2-TZVPPD
    Number of shells: 4
    Number of ECP primitives: 14
    Number of ECP core electrons: 28
    Max angular momentum: 3

  ==> DFT Potential <==

   => Composite Functional: M11-D3BJ <= 

    M11 Meta-GGA XC Functional

    R. Peverati and D. G. Truhlar, J. Phys. Chem. Lett., 2, 2810, 2011


    Deriv               =              1
    GGA                 =           TRUE
    Meta                =           TRUE

    Exchange Hybrid     =           TRUE
    MP2 Hybrid          =          FALSE

   => Exchange Functionals <=

    1.0000   XC_HYB_MGGA_X_M11 [omega = 0.2500]

   => Exact (HF) Exchange <=

    0.5720            HF,LR [omega = 0.2500]
    0.4280               HF 

   => Correlation Functionals <=

    1.0000    XC_MGGA_C_M11

   => Molecular Quadrature <=

    Radial Scheme          =       TREUTLER
    Pruning Scheme         =           FLAT
    Nuclear Scheme         =       TREUTLER

    BS radius alpha        =              1
    Pruning alpha          =              1
    Radial Points          =             75
    Spherical Points       =            302
    Total Points           =          45039
    Total Blocks           =            422
    Max Points             =            256
    Max Functions          =             73

   => M11-D3(BJ): Empirical Dispersion <=

    Grimme's -D3 (BJ-damping) Dispersion Correction
    Grimme S.; Ehrlich S.; Goerigk L. (2011), J. Comput. Chem., 32: 1456
    Parametrisation from:    L. Goerigk, J. Phys. Chem. Lett. 6, 3891-3896, 2015

        s6 =       1.000000
        s8 =       2.811200
        a1 =       0.000000
        a2 =      10.138900

   => Loading Basis Set <=

    Name: (DEF2-TZVPPD AUX)
    Role: JKFIT
    Keyword: DF_BASIS_SCF
    atoms 1 entry AG         line  4369 file /work/zw18965/.conda/envs/p4env/share/psi4/basis/def2-tzvpp-jkfit.gbs 
    atoms 2 entry H          line    23 file /work/zw18965/.conda/envs/p4env/share/psi4/basis/def2-tzvpp-jkfit.gbs 

  ==> Pre-Iterations <==

   -------------------------------------------------------
    Irrep   Nso     Nmo     Nalpha   Nbeta   Ndocc  Nsocc
   -------------------------------------------------------
     A1        31      31       0       0       0       0
     A2         8       8       0       0       0       0
     B1        17      17       0       0       0       0
     B2        17      17       0       0       0       0
   -------------------------------------------------------
    Total      73      73      10      10      10       0
   -------------------------------------------------------

  ==> Integral Setup <==

  ==> DiskDFJK: Density-Fitted J/K Matrices <==

    J tasked:                  Yes
    K tasked:                  Yes
    wK tasked:                 Yes
    Omega:               2.500E-01
    OpenMP threads:             24
    Integrals threads:          24
    Memory [MiB]:           102775
    Algorithm:                Core
    Integral Cache:           NONE
    Schwarz Cutoff:          1E-12
    Fitting Condition:       1E-10

   => Auxiliary Basis Set <=

  Basis Set: (DEF2-TZVPPD AUX)
    Blend: DEF2-TZVPP-JKFIT
    Number of shells: 55
    Number of basis function: 273
    Number of Cartesian functions: 404
    Spherical Harmonics?: true
    Max angular momentum: 6

  Cached 100.0% of DFT collocation blocks in 0.216 [GiB].

  Minimum eigenvalue in the overlap matrix is 3.3162039647E-03.
  Using Symmetric Orthogonalization.

  SCF Guess: Superposition of Atomic Densities via on-the-fly atomic UHF.

  ==> Iterations <==

                           Total Energy        Delta E     RMS |[F,P]|

   @DF-RKS iter SAD:  -147.06465457038342   -1.47065e+02   0.00000e+00 
   @DF-RKS iter   1:  -147.36631392850697   -3.01659e-01   6.55817e-03 DIIS
   @DF-RKS iter   2:  -147.40314884746550   -3.68349e-02   4.88711e-03 DIIS
   @DF-RKS iter   3:  -147.41501195269990   -1.18631e-02   7.22445e-04 DIIS
   @DF-RKS iter   4:  -147.41589188482811   -8.79932e-04   3.12761e-04 DIIS
   @DF-RKS iter   5:  -147.41636026563421   -4.68381e-04   1.90682e-04 DIIS
   @DF-RKS iter   6:  -147.41643885393347   -7.85883e-05   8.10467e-05 DIIS
   @DF-RKS iter   7:  -147.41646365410327   -2.48002e-05   2.77337e-05 DIIS
   @DF-RKS iter   8:  -147.41646810053334   -4.44643e-06   3.93232e-06 DIIS
   @DF-RKS iter   9:  -147.41646815330066   -5.27673e-08   1.08703e-06 DIIS
   @DF-RKS iter  10:  -147.41646815704962   -3.74897e-09   1.94803e-07 DIIS
  Energy and wave function converged.


  ==> Post-Iterations <==

    Orbital Energies [Eh]
    ---------------------

    Doubly Occupied:                                                      

       1A1    -3.883383     2A1    -2.481591     1B1    -2.472479  
       1B2    -2.472479     3A1    -0.502659     2B1    -0.464133  
       2B2    -0.464133     4A1    -0.457018     1A2    -0.457012  
       5A1    -0.330017  

    Virtual:                                                              

       6A1    -0.022914     3B2     0.030385     3B1     0.030385  
       7A1     0.086739     8A1     0.127014     4B2     0.217812  
       4B1     0.217812     9A1     0.241416     5B1     0.291639  
       5B2     0.291639    10A1     0.451960    11A1     0.500879  
       2A2     0.500881    12A1     0.528488     6B2     0.594390  
       6B1     0.594390    13A1     0.662660     7B1     0.960718  
       7B2     0.960718    14A1     1.145517     8B1     1.685142  
       8B2     1.685142    15A1     1.695103     3A2     1.695119  
       9B2     1.703302     9B1     1.703302    16A1     1.753607  
      10B2     1.768828    10B1     1.768828    17A1     1.938921  
      18A1     2.110465    19A1     2.143200     4A2     2.143231  
      11B1     2.206827    11B2     2.206827    20A1     2.327351  
      21A1     2.738336    22A1     3.321789     5A2     3.321828  
      12B2     3.521727    12B1     3.521727    13B2     3.892322  
      13B1     3.892322    23A1     4.039302    24A1     4.584106  
      14B1     4.880046    14B2     4.880046     6A2     4.895686  
      25A1     4.895690    15B1     5.072836    15B2     5.072836  
      26A1     5.278605    16B1     5.651615    16B2     5.651615  
      27A1     5.652996     7A2     5.653038    28A1     5.654827  
       8A2     5.654950    17B1     5.785201    17B2     5.785201  
      29A1     6.219738    30A1    33.505245    31A1   110.552639  

    Final Occupation by Irrep:
             A1    A2    B1    B2 
    DOCC [     5,    1,    2,    2 ]

  @DF-RKS Final Energy:  -147.41646815704962

   => Energetics <=

    Nuclear Repulsion Energy =              6.2439672540464146
    One-Electron Energy =                -273.9608847699406056
    Two-Electron Energy =                 127.2988742364031651
    DFT Exchange-Correlation Energy =      -6.9983751975586159
    Empirical Dispersion Energy =          -0.0000496800000000
    VV10 Nonlocal Energy =                  0.0000000000000000
    Total Energy =                       -147.4164681570496498

Computation Completed


Properties will be evaluated at   0.000000,   0.000000,   0.000000 [a0]

Properties computed using the SCF density matrix

  Nuclear Dipole Moment: [e a0]
     X:     0.0000      Y:     0.0000      Z:    -2.4746

  Electronic Dipole Moment: [e a0]
     X:     0.0000      Y:     0.0000      Z:     3.8383

  Dipole Moment: [e a0]
     X:     0.0000      Y:     0.0000      Z:     1.3638     Total:     1.3638

  Dipole Moment: [D]
     X:     0.0000      Y:     0.0000      Z:     3.4663     Total:     3.4663


*** tstop() called on bp1-compute00157.data.bp.acrc.priv at Thu Oct 28 15:26:06 2021
Module time:
	user time   =      67.58 seconds =       1.13 minutes
	system time =       4.10 seconds =       0.07 minutes
	total time  =          5 seconds =       0.08 minutes
Total time:
	user time   =      67.58 seconds =       1.13 minutes
	system time =       4.10 seconds =       0.07 minutes
	total time  =          5 seconds =       0.08 minutes

    Psi4 stopped on: Thursday, 28 October 2021 03:26PM
    Psi4 wall time for execution: 0:00:05.11

*** Psi4 exiting successfully. Buy a developer a beer!
