
    -----------------------------------------------------------------------
          Psi4: An Open-Source Ab Initio Electronic Structure Package
                               Psi4 1.3.2 release

                         Git: Rev {HEAD} ecbda83 


    R. M. Parrish, L. A. Burns, D. G. A. Smith, A. C. Simmonett,
    A. E. DePrince III, E. G. Hohenstein, U. Bozkaya, A. Yu. Sokolov,
    R. Di Remigio, R. M. Richard, J. F. Gonthier, A. M. James,
    H. R. McAlexander, A. Kumar, M. Saitow, X. Wang, B. P. Pritchard,
    P. Verma, H. F. Schaefer III, K. Patkowski, R. A. King, E. F. Valeev,
    F. A. Evangelista, J. M. Turney, T. D. Crawford, and C. D. Sherrill,
    J. Chem. Theory Comput. 13(7) pp 3185--3197 (2017).
    (doi: 10.1021/acs.jctc.7b00174)


                         Additional Contributions by
    P. Kraus, H. Kruse, M. H. Lechner, M. C. Schieber, R. A. Shaw,
    A. Alenaizan, R. Galvelis, Z. L. Glick, S. Lehtola, and J. P. Misiewicz

    -----------------------------------------------------------------------


    Psi4 started on: Thursday, 28 October 2021 03:26PM

    Process ID: 121355
    Host:       bp1-compute00157.data.bp.acrc.priv
    PSIDATADIR: /work/zw18965/.conda/envs/p4env/share/psi4
    Memory:     500.0 MiB
    Threads:    24
    
  ==> Input File <==

--------------------------------------------------------------------------
memory 144 GB

molecule {
0 1
Ag       0.000000    0.000000    1.261821 
Ag       0.000000    0.000000   -1.261821 
 }

set basis Def2-TZVPPD

energy("M11-D3BJ")
--------------------------------------------------------------------------

  Memory set to 134.110 GiB by Python driver.

*** tstart() called on bp1-compute00157.data.bp.acrc.priv
*** at Thu Oct 28 15:26:09 2021

   => Loading Basis Set <=

    Name: DEF2-TZVPPD
    Role: ORBITAL
    Keyword: BASIS
    atoms 1-2 entry AG         line  2174 (ECP: line  3646) file /work/zw18965/.conda/envs/p4env/share/psi4/basis/def2-tzvppd.gbs 

    !!!  WARNING: ECP capability is in beta. Please check occupations closely.  !!!


         ---------------------------------------------------------
                                   SCF
               by Justin Turney, Rob Parrish, Andy Simmonett
                          and Daniel G. A. Smith
                              RKS Reference
                       24 Threads, 137329 MiB Core
         ---------------------------------------------------------

  ==> Geometry <==

    Molecular point group: d2h
    Full point group: D_inf_h

    Geometry (in Angstrom), charge = 0, multiplicity = 1:

       Center              X                  Y                   Z               Mass       
    ------------   -----------------  -----------------  -----------------  -----------------
         AG           0.000000000000     0.000000000000     1.261821000000   106.905091600000
         AG           0.000000000000     0.000000000000    -1.261821000000   106.905091600000

  Running in d2h symmetry.

  Rotational constants: A = ************  B =      0.04952  C =      0.04952 [cm^-1]
  Rotational constants: A = ************  B =   1484.54481  C =   1484.54481 [MHz]
  Nuclear repulsion =   75.697334666275978

  Charge       = 0
  Multiplicity = 1
  Electrons    = 38
  Nalpha       = 19
  Nbeta        = 19

  ==> Algorithm <==

  SCF Algorithm Type is DF.
  DIIS enabled.
  MOM disabled.
  Fractional occupation disabled.
  Guess Type is SAD.
  Energy threshold   = 1.00e-06
  Density threshold  = 1.00e-06
  Integral threshold = 0.00e+00

  ==> Primary Basis <==

  Basis Set: DEF2-TZVPPD
    Blend: DEF2-TZVPPD
    Number of shells: 32
    Number of basis function: 112
    Number of Cartesian functions: 142
    Spherical Harmonics?: true
    Max angular momentum: 4

  Core potential: DEF2-TZVPPD
    Number of shells: 8
    Number of ECP primitives: 28
    Number of ECP core electrons: 56
    Max angular momentum: 3

  ==> DFT Potential <==

   => Composite Functional: M11-D3BJ <= 

    M11 Meta-GGA XC Functional

    R. Peverati and D. G. Truhlar, J. Phys. Chem. Lett., 2, 2810, 2011


    Deriv               =              1
    GGA                 =           TRUE
    Meta                =           TRUE

    Exchange Hybrid     =           TRUE
    MP2 Hybrid          =          FALSE

   => Exchange Functionals <=

    1.0000   XC_HYB_MGGA_X_M11 [omega = 0.2500]

   => Exact (HF) Exchange <=

    0.5720            HF,LR [omega = 0.2500]
    0.4280               HF 

   => Correlation Functionals <=

    1.0000    XC_MGGA_C_M11

   => Molecular Quadrature <=

    Radial Scheme          =       TREUTLER
    Pruning Scheme         =           FLAT
    Nuclear Scheme         =       TREUTLER

    BS radius alpha        =              1
    Pruning alpha          =              1
    Radial Points          =             75
    Spherical Points       =            302
    Total Points           =          44842
    Total Blocks           =            420
    Max Points             =            255
    Max Functions          =            110

   => M11-D3(BJ): Empirical Dispersion <=

    Grimme's -D3 (BJ-damping) Dispersion Correction
    Grimme S.; Ehrlich S.; Goerigk L. (2011), J. Comput. Chem., 32: 1456
    Parametrisation from:    L. Goerigk, J. Phys. Chem. Lett. 6, 3891-3896, 2015

        s6 =       1.000000
        s8 =       2.811200
        a1 =       0.000000
        a2 =      10.138900

   => Loading Basis Set <=

    Name: (DEF2-TZVPPD AUX)
    Role: JKFIT
    Keyword: DF_BASIS_SCF
    atoms 1-2 entry AG         line  4369 file /work/zw18965/.conda/envs/p4env/share/psi4/basis/def2-tzvpp-jkfit.gbs 

  ==> Pre-Iterations <==

   -------------------------------------------------------
    Irrep   Nso     Nmo     Nalpha   Nbeta   Ndocc  Nsocc
   -------------------------------------------------------
     Ag        23      23       0       0       0       0
     B1g        7       7       0       0       0       0
     B2g       13      13       0       0       0       0
     B3g       13      13       0       0       0       0
     Au         7       7       0       0       0       0
     B1u       23      23       0       0       0       0
     B2u       13      13       0       0       0       0
     B3u       13      13       0       0       0       0
   -------------------------------------------------------
    Total     112     112      19      19      19       0
   -------------------------------------------------------

  ==> Integral Setup <==

  ==> DiskDFJK: Density-Fitted J/K Matrices <==

    J tasked:                  Yes
    K tasked:                  Yes
    wK tasked:                 Yes
    Omega:               2.500E-01
    OpenMP threads:             24
    Integrals threads:          24
    Memory [MiB]:           102701
    Algorithm:                Core
    Integral Cache:           NONE
    Schwarz Cutoff:          1E-12
    Fitting Condition:       1E-10

   => Auxiliary Basis Set <=

  Basis Set: (DEF2-TZVPPD AUX)
    Blend: DEF2-TZVPP-JKFIT
    Number of shells: 98
    Number of basis function: 510
    Number of Cartesian functions: 768
    Spherical Harmonics?: true
    Max angular momentum: 6

  Cached 100.0% of DFT collocation blocks in 0.288 [GiB].

  Minimum eigenvalue in the overlap matrix is 4.1833102936E-03.
  Using Symmetric Orthogonalization.

  SCF Guess: Superposition of Atomic Densities via on-the-fly atomic UHF.

  ==> Iterations <==

                           Total Energy        Delta E     RMS |[F,P]|

   @DF-RKS iter SAD:  -293.17907609938402   -2.93179e+02   0.00000e+00 
   @DF-RKS iter   1:  -293.68292726159558   -5.03851e-01   5.41568e-03 DIIS
   @DF-RKS iter   2:  -293.69035108661899   -7.42383e-03   5.01292e-03 DIIS
   @DF-RKS iter   3:  -293.70258445010757   -1.22334e-02   3.56378e-04 DIIS
   @DF-RKS iter   4:  -293.70281493484617   -2.30485e-04   2.70661e-04 DIIS
   @DF-RKS iter   5:  -293.70289723058403   -8.22957e-05   8.94530e-05 DIIS
   @DF-RKS iter   6:  -293.70292731971205   -3.00891e-05   2.86093e-05 DIIS
   @DF-RKS iter   7:  -293.70293173614726   -4.41644e-06   7.37227e-06 DIIS
   @DF-RKS iter   8:  -293.70293202766271   -2.91515e-07   1.79357e-06 DIIS
   @DF-RKS iter   9:  -293.70293203853890   -1.08762e-08   4.64344e-07 DIIS
  Energy and wave function converged.


  ==> Post-Iterations <==

    Orbital Energies [Eh]
    ---------------------

    Doubly Occupied:                                                      

       1Ag    -3.851858     1B1u   -3.851113     2Ag    -2.451131  
       1B3u   -2.443187     1B2u   -2.443187     2B1u   -2.442630  
       1B2g   -2.442425     1B3g   -2.442425     3Ag    -0.472647  
       2B3u   -0.455880     2B2u   -0.455880     1B1g   -0.433611  
       4Ag    -0.433597     1Au    -0.425340     3B1u   -0.425326  
       2B2g   -0.410598     2B3g   -0.410598     4B1u   -0.402250  
       5Ag    -0.260485  

    Virtual:                                                              

       5B1u   -0.014256     6Ag     0.038235     3B3u    0.040943  
       3B2u    0.040943     3B2g    0.077769     3B3g    0.077769  
       6B1u    0.105024     7Ag     0.158126     7B1u    0.179576  
       8Ag     0.239227     4B3u    0.241817     4B2u    0.241817  
       4B2g    0.313434     4B3g    0.313434     8B1u    0.467584  
       9Ag     0.474867     2B1g    0.474876     5B3u    0.515684  
       5B2u    0.515684     9B1u    0.561669     2Au     0.561677  
      10Ag     0.668476     5B2g    0.673051     5B3g    0.673051  
      10B1u    0.794580    11Ag     1.518958     6B3u    1.664317  
       6B2u    1.664317     7B3u    1.708220     7B2u    1.708221  
       3B1g    1.712670    12Ag     1.712707     6B2g    1.722428  
       6B3g    1.722428     8B3u    1.727787     8B2u    1.727787  
       7B2g    1.730246     7B3g    1.730246    11B1u    1.731159  
       3Au     1.746166    12B1u    1.746207    13Ag     1.814491  
       8B2g    1.859368     8B3g    1.859368    13B1u    1.883550  
      14Ag     2.046015    15Ag     2.156999     4B1g    2.157069  
       9B3u    2.176445     9B2u    2.176445    14B1u    2.190782  
       4Au     2.190862    16Ag     2.243491     9B2g    2.263354  
       9B3g    2.263354    15B1u    2.414385    16B1u    2.481704  
      10B3u    4.860070    10B2u    4.860070    17Ag     4.869050  
       5B1g    4.899459    18Ag     4.899594    11B2u    4.909162  
      11B3u    4.909162    10B2g    4.911124    10B3g    4.911124  
       5Au     4.926392    17B1u    4.926527    11B2g    5.012435  
      11B3g    5.012435    18B1u    5.208954    12B3u    5.675867  
      12B2u    5.675867    19Ag     5.677521    20Ag     5.677564  
       6B1g    5.677949    19B1u    5.678187     6Au     5.678614  
      13B3u    5.679444    13B2u    5.679444    12B3g    5.679481  
      12B2g    5.679481    21Ag     5.680458    20B1u    5.680458  
       7B1g    5.680892     7Au     5.680892    13B2g    5.681100  
      13B3g    5.681100    21B1u    5.696003    22Ag    33.316589  
      22B1u   33.560047    23Ag   110.516862    23B1u  110.595584  

    Final Occupation by Irrep:
             Ag   B1g   B2g   B3g    Au   B1u   B2u   B3u 
    DOCC [     5,    1,    2,    2,    1,    4,    2,    2 ]

  @DF-RKS Final Energy:  -293.70293203853890

   => Energetics <=

    Nuclear Repulsion Energy =             75.6973346662759781
    One-Electron Energy =                -674.2661859364560542
    Two-Electron Energy =                 318.6142075055284977
    DFT Exchange-Correlation Energy =     -13.7474348238873922
    Empirical Dispersion Energy =          -0.0008534500000000
    VV10 Nonlocal Energy =                  0.0000000000000000
    Total Energy =                       -293.7029320385389610

Computation Completed


Properties will be evaluated at   0.000000,   0.000000,   0.000000 [a0]

Properties computed using the SCF density matrix

  Nuclear Dipole Moment: [e a0]
     X:     0.0000      Y:     0.0000      Z:     0.0000

  Electronic Dipole Moment: [e a0]
     X:     0.0000      Y:     0.0000      Z:     0.0000

  Dipole Moment: [e a0]
     X:     0.0000      Y:     0.0000      Z:     0.0000     Total:     0.0000

  Dipole Moment: [D]
     X:     0.0000      Y:     0.0000      Z:     0.0000     Total:     0.0000


*** tstop() called on bp1-compute00157.data.bp.acrc.priv at Thu Oct 28 15:26:16 2021
Module time:
	user time   =      76.99 seconds =       1.28 minutes
	system time =       5.26 seconds =       0.09 minutes
	total time  =          7 seconds =       0.12 minutes
Total time:
	user time   =      76.99 seconds =       1.28 minutes
	system time =       5.26 seconds =       0.09 minutes
	total time  =          7 seconds =       0.12 minutes

    Psi4 stopped on: Thursday, 28 October 2021 03:26PM
    Psi4 wall time for execution: 0:00:06.53

*** Psi4 exiting successfully. Buy a developer a beer!
