
    -----------------------------------------------------------------------
          Psi4: An Open-Source Ab Initio Electronic Structure Package
                               Psi4 1.3.2 release

                         Git: Rev {HEAD} ecbda83 


    R. M. Parrish, L. A. Burns, D. G. A. Smith, A. C. Simmonett,
    A. E. DePrince III, E. G. Hohenstein, U. Bozkaya, A. Yu. Sokolov,
    R. Di Remigio, R. M. Richard, J. F. Gonthier, A. M. James,
    H. R. McAlexander, A. Kumar, M. Saitow, X. Wang, B. P. Pritchard,
    P. Verma, H. F. Schaefer III, K. Patkowski, R. A. King, E. F. Valeev,
    F. A. Evangelista, J. M. Turney, T. D. Crawford, and C. D. Sherrill,
    J. Chem. Theory Comput. 13(7) pp 3185--3197 (2017).
    (doi: 10.1021/acs.jctc.7b00174)


                         Additional Contributions by
    P. Kraus, H. Kruse, M. H. Lechner, M. C. Schieber, R. A. Shaw,
    A. Alenaizan, R. Galvelis, Z. L. Glick, S. Lehtola, and J. P. Misiewicz

    -----------------------------------------------------------------------


    Psi4 started on: Thursday, 28 October 2021 03:26PM

    Process ID: 121528
    Host:       bp1-compute00157.data.bp.acrc.priv
    PSIDATADIR: /work/zw18965/.conda/envs/p4env/share/psi4
    Memory:     500.0 MiB
    Threads:    24
    
  ==> Input File <==

--------------------------------------------------------------------------
memory 144 GB

molecule {
1 1
Ag       0.000000    1.529877    0.000000 
Ag       1.324912   -0.764938    0.000000 
Ag      -1.324912   -0.764938    0.000000 
 }

set basis Def2-TZVPPD

energy("M11-D3BJ")
--------------------------------------------------------------------------

  Memory set to 134.110 GiB by Python driver.

*** tstart() called on bp1-compute00157.data.bp.acrc.priv
*** at Thu Oct 28 15:26:19 2021

   => Loading Basis Set <=

    Name: DEF2-TZVPPD
    Role: ORBITAL
    Keyword: BASIS
    atoms 1-3 entry AG         line  2174 (ECP: line  3646) file /work/zw18965/.conda/envs/p4env/share/psi4/basis/def2-tzvppd.gbs 

    !!!  WARNING: ECP capability is in beta. Please check occupations closely.  !!!


         ---------------------------------------------------------
                                   SCF
               by Justin Turney, Rob Parrish, Andy Simmonett
                          and Daniel G. A. Smith
                              RKS Reference
                       24 Threads, 137329 MiB Core
         ---------------------------------------------------------

  ==> Geometry <==

    Molecular point group: c2v
    Full point group: C2v

    Geometry (in Angstrom), charge = 1, multiplicity = 1:

       Center              X                  Y                   Z               Mass       
    ------------   -----------------  -----------------  -----------------  -----------------
         AG           0.000000000000     0.000000000000     1.529876666667   106.905091600000
         AG           1.324912000000     0.000000000000    -0.764938333333   106.905091600000
         AG          -1.324912000000    -0.000000000000    -0.764938333333   106.905091600000

  Running in c2v symmetry.

  Rotational constants: A =      0.04492  B =      0.04492  C =      0.02246 [cm^-1]
  Rotational constants: A =   1346.52601  B =   1346.52589  C =    673.26298 [MHz]
  Nuclear repulsion =  216.278102475318548

  Charge       = 1
  Multiplicity = 1
  Electrons    = 56
  Nalpha       = 28
  Nbeta        = 28

  ==> Algorithm <==

  SCF Algorithm Type is DF.
  DIIS enabled.
  MOM disabled.
  Fractional occupation disabled.
  Guess Type is SAD.
  Energy threshold   = 1.00e-06
  Density threshold  = 1.00e-06
  Integral threshold = 0.00e+00

  ==> Primary Basis <==

  Basis Set: DEF2-TZVPPD
    Blend: DEF2-TZVPPD
    Number of shells: 48
    Number of basis function: 168
    Number of Cartesian functions: 213
    Spherical Harmonics?: true
    Max angular momentum: 4

  Core potential: DEF2-TZVPPD
    Number of shells: 12
    Number of ECP primitives: 42
    Number of ECP core electrons: 84
    Max angular momentum: 3

  ==> DFT Potential <==

   => Composite Functional: M11-D3BJ <= 

    M11 Meta-GGA XC Functional

    R. Peverati and D. G. Truhlar, J. Phys. Chem. Lett., 2, 2810, 2011


    Deriv               =              1
    GGA                 =           TRUE
    Meta                =           TRUE

    Exchange Hybrid     =           TRUE
    MP2 Hybrid          =          FALSE

   => Exchange Functionals <=

    1.0000   XC_HYB_MGGA_X_M11 [omega = 0.2500]

   => Exact (HF) Exchange <=

    0.5720            HF,LR [omega = 0.2500]
    0.4280               HF 

   => Correlation Functionals <=

    1.0000    XC_MGGA_C_M11

   => Molecular Quadrature <=

    Radial Scheme          =       TREUTLER
    Pruning Scheme         =           FLAT
    Nuclear Scheme         =       TREUTLER

    BS radius alpha        =              1
    Pruning alpha          =              1
    Radial Points          =             75
    Spherical Points       =            302
    Total Points           =          67393
    Total Blocks           =            588
    Max Points             =            256
    Max Functions          =            165

   => M11-D3(BJ): Empirical Dispersion <=

    Grimme's -D3 (BJ-damping) Dispersion Correction
    Grimme S.; Ehrlich S.; Goerigk L. (2011), J. Comput. Chem., 32: 1456
    Parametrisation from:    L. Goerigk, J. Phys. Chem. Lett. 6, 3891-3896, 2015

        s6 =       1.000000
        s8 =       2.811200
        a1 =       0.000000
        a2 =      10.138900

   => Loading Basis Set <=

    Name: (DEF2-TZVPPD AUX)
    Role: JKFIT
    Keyword: DF_BASIS_SCF
    atoms 1-3 entry AG         line  4369 file /work/zw18965/.conda/envs/p4env/share/psi4/basis/def2-tzvpp-jkfit.gbs 

  ==> Pre-Iterations <==

   -------------------------------------------------------
    Irrep   Nso     Nmo     Nalpha   Nbeta   Ndocc  Nsocc
   -------------------------------------------------------
     A1        59      59       0       0       0       0
     A2        27      27       0       0       0       0
     B1        49      49       0       0       0       0
     B2        33      33       0       0       0       0
   -------------------------------------------------------
    Total     168     168      28      28      28       0
   -------------------------------------------------------

  ==> Integral Setup <==

  ==> DiskDFJK: Density-Fitted J/K Matrices <==

    J tasked:                  Yes
    K tasked:                  Yes
    wK tasked:                 Yes
    Omega:               2.500E-01
    OpenMP threads:             24
    Integrals threads:          24
    Memory [MiB]:           102386
    Algorithm:                Core
    Integral Cache:           NONE
    Schwarz Cutoff:          1E-12
    Fitting Condition:       1E-10

   => Auxiliary Basis Set <=

  Basis Set: (DEF2-TZVPPD AUX)
    Blend: DEF2-TZVPP-JKFIT
    Number of shells: 147
    Number of basis function: 765
    Number of Cartesian functions: 1152
    Spherical Harmonics?: true
    Max angular momentum: 6

  Cached 100.0% of DFT collocation blocks in 0.596 [GiB].

  Minimum eigenvalue in the overlap matrix is 2.8944547741E-03.
  Using Symmetric Orthogonalization.

  SCF Guess: Superposition of Atomic Densities via on-the-fly atomic UHF.

  ==> Iterations <==

                           Total Energy        Delta E     RMS |[F,P]|

   @DF-RKS iter SAD:  -439.88058055622315   -4.39881e+02   0.00000e+00 
   @DF-RKS iter   1:  -440.34592643676638   -4.65346e-01   3.14879e-03 DIIS
   @DF-RKS iter   2:  -440.35545547382486   -9.52904e-03   2.62362e-03 DIIS
   @DF-RKS iter   3:  -440.36974570629582   -1.42902e-02   2.10319e-04 DIIS
   @DF-RKS iter   4:  -440.37017175860319   -4.26052e-04   1.27143e-04 DIIS
   @DF-RKS iter   5:  -440.37028334103525   -1.11582e-04   5.48834e-05 DIIS
   @DF-RKS iter   6:  -440.37030589006241   -2.25490e-05   9.58974e-06 DIIS
   @DF-RKS iter   7:  -440.37030771176762   -1.82171e-06   3.89703e-06 DIIS
   @DF-RKS iter   8:  -440.37030785263386   -1.40866e-07   2.48719e-06 DIIS
   @DF-RKS iter   9:  -440.37030790431464   -5.16808e-08   4.47474e-07 DIIS
  Energy and wave function converged.


  ==> Post-Iterations <==

    Orbital Energies [Eh]
    ---------------------

    Doubly Occupied:                                                      

       1A1    -4.058295     2A1    -4.057721     1B1    -4.057718  
       3A1    -2.657248     2B1    -2.653577     4A1    -2.653576  
       3B1    -2.649823     5A1    -2.649821     4B1    -2.649796  
       1B2    -2.649397     1A2    -2.648745     2B2    -2.648743  
       6A1    -0.688857     5B1    -0.670765     7A1    -0.670762  
       3B2    -0.666638     8A1    -0.650707     4B2    -0.647577  
       2A2    -0.647562     9A1    -0.627231     6B1    -0.627225  
       3A2    -0.624302     5B2    -0.619221     4A2    -0.619197  
       7B1    -0.617835    10A1    -0.617823     8B1    -0.596702  
      11A1    -0.485696  

    Virtual:                                                              

      12A1    -0.185072     9B1    -0.185071     6B2    -0.135207  
      13A1    -0.124503    10B1    -0.099261    14A1    -0.099260  
       7B2    -0.073724     5A2    -0.073723    15A1    -0.042964  
      11B1    -0.042963    12B1    -0.035605    16A1     0.000542  
      17A1     0.038405    13B1     0.038410     8B2     0.051490  
      18A1     0.060433    19A1     0.079411    14B1     0.079412  
       9B2     0.135714     6A2     0.135717    15B1     0.214828  
      20A1     0.280628    21A1     0.284786    16B1     0.284804  
      10B2     0.315365     7A2     0.315382    11B2     0.328048  
      22A1     0.411266    17B1     0.411273     8A2     0.447770  
      23A1     0.468784    12B2     0.502715     9A2     0.502767  
      18B1     0.514311    24A1     0.514313    25A1     0.585902  
      19B1     0.585929    20B1     0.629095    21B1     1.401345  
      26A1     1.401374    27A1     1.435782    28A1     1.449276  
      13B2     1.477505    14B2     1.478726    10A2     1.478783  
      22B1     1.497245    29A1     1.497312    15B2     1.509061  
      16B2     1.515916    11A2     1.515951    23B1     1.522939  
      17B2     1.523717    18B2     1.526045    12A2     1.526103  
      24B1     1.530279    30A1     1.530296    31A1     1.554939  
      25B1     1.554963    13A2     1.578252    26B1     1.590604  
      32A1     1.618247    27B1     1.623043    33A1     1.623078  
      19B2     1.645038    14A2     1.645141    28B1     1.667669  
      34A1     1.667700    29B1     1.821661    35A1     1.867227  
      36A1     1.966107    15A2     1.975615    20B2     1.975815  
      30B1     2.004490    37A1     2.004524    21B2     2.014960  
      16A2     2.021777    38A1     2.030783    31B1     2.030846  
      17A2     2.054243    22B2     2.054340    39A1     2.156060  
      32B1     2.156187    33B1     2.185086    40A1     2.286350  
      41A1     2.454194    34B1     2.454198    42A1     4.646753  
      35B1     4.661853    43A1     4.661920    23B2     4.673017  
      18A2     4.674791    24B2     4.674820    44A1     4.681889  
      25B2     4.694810    36B1     4.699063    45A1     4.699130  
      26B2     4.707408    19A2     4.707500    37B1     4.712082  
      20A2     4.756253    46A1     4.778197    38B1     4.778213  
      21A2     4.779703    27B2     4.779781    39B1     4.933358  
      47A1     4.933360    40B1     4.949207    48A1     5.467304  
      49A1     5.468285    41B1     5.468328    28B2     5.468655  
      22A2     5.468669    42B1     5.468787    29B2     5.468937  
      30B2     5.469053    50A1     5.469222    23A2     5.469247  
      24A2     5.469320    43B1     5.469528    51A1     5.470143  
      31B2     5.470149    52A1     5.470244    32B2     5.470355  
      44B1     5.470403    53A1     5.470536    25A2     5.470576  
      54A1     5.470779    26A2     5.470935    45B1     5.470993  
      27A2     5.472553    33B2     5.472663    46B1     5.474149  
      47B1     5.482097    55A1     5.482098    56A1    33.152756  
      57A1    33.485864    48B1    33.485865    58A1   110.323806  
      59A1   110.431248    49B1   110.431251  

    Final Occupation by Irrep:
             A1    A2    B1    B2 
    DOCC [    11,    4,    8,    5 ]

  @DF-RKS Final Energy:  -440.37030790431464

   => Energetics <=

    Nuclear Repulsion Energy =            216.2781024753185477
    One-Electron Energy =               -1205.1090822231280981
    Two-Electron Energy =                 569.0571292881355703
    DFT Exchange-Correlation Energy =     -20.5939297346406001
    Empirical Dispersion Energy =          -0.0025277100000000
    VV10 Nonlocal Energy =                  0.0000000000000000
    Total Energy =                       -440.3703079043145863

Computation Completed


Properties will be evaluated at   0.000000,   0.000000,   0.000000 [a0]

Properties computed using the SCF density matrix

  Nuclear Dipole Moment: [e a0]
     X:     0.0000      Y:     0.0000      Z:    -0.0000

  Electronic Dipole Moment: [e a0]
     X:     0.0000      Y:     0.0000      Z:     0.0001

  Dipole Moment: [e a0]
     X:     0.0000      Y:     0.0000      Z:     0.0001     Total:     0.0001

  Dipole Moment: [D]
     X:     0.0000      Y:     0.0000      Z:     0.0001     Total:     0.0001


*** tstop() called on bp1-compute00157.data.bp.acrc.priv at Thu Oct 28 15:26:29 2021
Module time:
	user time   =     114.80 seconds =       1.91 minutes
	system time =       6.86 seconds =       0.11 minutes
	total time  =         10 seconds =       0.17 minutes
Total time:
	user time   =     114.80 seconds =       1.91 minutes
	system time =       6.86 seconds =       0.11 minutes
	total time  =         10 seconds =       0.17 minutes

    Psi4 stopped on: Thursday, 28 October 2021 03:26PM
    Psi4 wall time for execution: 0:00:09.87

*** Psi4 exiting successfully. Buy a developer a beer!
