
    -----------------------------------------------------------------------
          Psi4: An Open-Source Ab Initio Electronic Structure Package
                               Psi4 1.3.2 release

                         Git: Rev {HEAD} ecbda83 


    R. M. Parrish, L. A. Burns, D. G. A. Smith, A. C. Simmonett,
    A. E. DePrince III, E. G. Hohenstein, U. Bozkaya, A. Yu. Sokolov,
    R. Di Remigio, R. M. Richard, J. F. Gonthier, A. M. James,
    H. R. McAlexander, A. Kumar, M. Saitow, X. Wang, B. P. Pritchard,
    P. Verma, H. F. Schaefer III, K. Patkowski, R. A. King, E. F. Valeev,
    F. A. Evangelista, J. M. Turney, T. D. Crawford, and C. D. Sherrill,
    J. Chem. Theory Comput. 13(7) pp 3185--3197 (2017).
    (doi: 10.1021/acs.jctc.7b00174)


                         Additional Contributions by
    P. Kraus, H. Kruse, M. H. Lechner, M. C. Schieber, R. A. Shaw,
    A. Alenaizan, R. Galvelis, Z. L. Glick, S. Lehtola, and J. P. Misiewicz

    -----------------------------------------------------------------------


    Psi4 started on: Thursday, 28 October 2021 03:26PM

    Process ID: 197937
    Host:       bp1-compute00024.data.bp.acrc.priv
    PSIDATADIR: /work/zw18965/.conda/envs/p4env/share/psi4
    Memory:     500.0 MiB
    Threads:    24
    
  ==> Input File <==

--------------------------------------------------------------------------
memory 144 GB

molecule {
1 1
Ag       0.000000    0.000000    0.000000 
Ag       0.000000    0.000000    2.629319 
Ag       0.000000    0.000000   -2.629319 
 }

set basis Def2-TZVPPD

energy("M11-D3BJ")
--------------------------------------------------------------------------

  Memory set to 134.110 GiB by Python driver.

*** tstart() called on bp1-compute00024.data.bp.acrc.priv
*** at Thu Oct 28 15:26:27 2021

   => Loading Basis Set <=

    Name: DEF2-TZVPPD
    Role: ORBITAL
    Keyword: BASIS
    atoms 1-3 entry AG         line  2174 (ECP: line  3646) file /work/zw18965/.conda/envs/p4env/share/psi4/basis/def2-tzvppd.gbs 

    !!!  WARNING: ECP capability is in beta. Please check occupations closely.  !!!


         ---------------------------------------------------------
                                   SCF
               by Justin Turney, Rob Parrish, Andy Simmonett
                          and Daniel G. A. Smith
                              RKS Reference
                       24 Threads, 137329 MiB Core
         ---------------------------------------------------------

  ==> Geometry <==

    Molecular point group: d2h
    Full point group: D_inf_h

    Geometry (in Angstrom), charge = 1, multiplicity = 1:

       Center              X                  Y                   Z               Mass       
    ------------   -----------------  -----------------  -----------------  -----------------
         AG           0.000000000000     0.000000000000     0.000000000000   106.905091600000
         AG           0.000000000000     0.000000000000     2.629319000000   106.905091600000
         AG           0.000000000000     0.000000000000    -2.629319000000   106.905091600000

  Running in d2h symmetry.

  Rotational constants: A = ************  B =      0.01140  C =      0.01140 [cm^-1]
  Rotational constants: A = ************  B =    341.90248  C =    341.90248 [MHz]
  Nuclear repulsion =  181.637310889121835

  Charge       = 1
  Multiplicity = 1
  Electrons    = 56
  Nalpha       = 28
  Nbeta        = 28

  ==> Algorithm <==

  SCF Algorithm Type is DF.
  DIIS enabled.
  MOM disabled.
  Fractional occupation disabled.
  Guess Type is SAD.
  Energy threshold   = 1.00e-06
  Density threshold  = 1.00e-06
  Integral threshold = 0.00e+00

  ==> Primary Basis <==

  Basis Set: DEF2-TZVPPD
    Blend: DEF2-TZVPPD
    Number of shells: 48
    Number of basis function: 168
    Number of Cartesian functions: 213
    Spherical Harmonics?: true
    Max angular momentum: 4

  Core potential: DEF2-TZVPPD
    Number of shells: 12
    Number of ECP primitives: 42
    Number of ECP core electrons: 84
    Max angular momentum: 3

  ==> DFT Potential <==

   => Composite Functional: M11-D3BJ <= 

    M11 Meta-GGA XC Functional

    R. Peverati and D. G. Truhlar, J. Phys. Chem. Lett., 2, 2810, 2011


    Deriv               =              1
    GGA                 =           TRUE
    Meta                =           TRUE

    Exchange Hybrid     =           TRUE
    MP2 Hybrid          =          FALSE

   => Exchange Functionals <=

    1.0000   XC_HYB_MGGA_X_M11 [omega = 0.2500]

   => Exact (HF) Exchange <=

    0.5720            HF,LR [omega = 0.2500]
    0.4280               HF 

   => Correlation Functionals <=

    1.0000    XC_MGGA_C_M11

   => Molecular Quadrature <=

    Radial Scheme          =       TREUTLER
    Pruning Scheme         =           FLAT
    Nuclear Scheme         =       TREUTLER

    BS radius alpha        =              1
    Pruning alpha          =              1
    Radial Points          =             75
    Spherical Points       =            302
    Total Points           =          67368
    Total Blocks           =            623
    Max Points             =            248
    Max Functions          =            149

   => M11-D3(BJ): Empirical Dispersion <=

    Grimme's -D3 (BJ-damping) Dispersion Correction
    Grimme S.; Ehrlich S.; Goerigk L. (2011), J. Comput. Chem., 32: 1456
    Parametrisation from:    L. Goerigk, J. Phys. Chem. Lett. 6, 3891-3896, 2015

        s6 =       1.000000
        s8 =       2.811200
        a1 =       0.000000
        a2 =      10.138900

   => Loading Basis Set <=

    Name: (DEF2-TZVPPD AUX)
    Role: JKFIT
    Keyword: DF_BASIS_SCF
    atoms 1-3 entry AG         line  4369 file /work/zw18965/.conda/envs/p4env/share/psi4/basis/def2-tzvpp-jkfit.gbs 

  ==> Pre-Iterations <==

   -------------------------------------------------------
    Irrep   Nso     Nmo     Nalpha   Nbeta   Ndocc  Nsocc
   -------------------------------------------------------
     Ag        38      38       0       0       0       0
     B1g       12      12       0       0       0       0
     B2g       18      18       0       0       0       0
     B3g       18      18       0       0       0       0
     Au         9       9       0       0       0       0
     B1u       31      31       0       0       0       0
     B2u       21      21       0       0       0       0
     B3u       21      21       0       0       0       0
   -------------------------------------------------------
    Total     168     168      28      28      28       0
   -------------------------------------------------------

  ==> Integral Setup <==

  ==> DiskDFJK: Density-Fitted J/K Matrices <==

    J tasked:                  Yes
    K tasked:                  Yes
    wK tasked:                 Yes
    Omega:               2.500E-01
    OpenMP threads:             24
    Integrals threads:          24
    Memory [MiB]:           102449
    Algorithm:                Core
    Integral Cache:           NONE
    Schwarz Cutoff:          1E-12
    Fitting Condition:       1E-10

   => Auxiliary Basis Set <=

  Basis Set: (DEF2-TZVPPD AUX)
    Blend: DEF2-TZVPP-JKFIT
    Number of shells: 147
    Number of basis function: 765
    Number of Cartesian functions: 1152
    Spherical Harmonics?: true
    Max angular momentum: 6

  Cached 100.0% of DFT collocation blocks in 0.535 [GiB].

  Minimum eigenvalue in the overlap matrix is 1.3220231581E-03.
  Using Symmetric Orthogonalization.

  SCF Guess: Superposition of Atomic Densities via on-the-fly atomic UHF.

  ==> Iterations <==

                           Total Energy        Delta E     RMS |[F,P]|

   @DF-RKS iter SAD:  -439.81366641926178   -4.39814e+02   0.00000e+00 
   @DF-RKS iter   1:  -440.29857076661909   -4.84904e-01   2.21005e-03 DIIS
   @DF-RKS iter   2:  -440.30510726706865   -6.53650e-03   1.88726e-03 DIIS
   @DF-RKS iter   3:  -440.30923611101372   -4.12884e-03   2.85045e-04 DIIS
   @DF-RKS iter   4:  -440.30946362396026   -2.27513e-04   1.59623e-04 DIIS
   @DF-RKS iter   5:  -440.30952980152330   -6.61776e-05   4.10469e-05 DIIS
   @DF-RKS iter   6:  -440.30954231261279   -1.25111e-05   1.57298e-05 DIIS
   @DF-RKS iter   7:  -440.30954363355244   -1.32094e-06   7.87224e-06 DIIS
   @DF-RKS iter   8:  -440.30954406520601   -4.31654e-07   1.85662e-06 DIIS
   @DF-RKS iter   9:  -440.30954411353196   -4.83259e-08   4.67613e-07 DIIS
  Energy and wave function converged.


  ==> Post-Iterations <==

    Orbital Energies [Eh]
    ---------------------

    Doubly Occupied:                                                      

       1B1u   -4.068637     1Ag    -4.068630     2Ag    -4.016562  
       2B1u   -2.664988     3Ag    -2.664722     1B3u   -2.662381  
       1B2u   -2.662381     1B2g   -2.662356     1B3g   -2.662356  
       3B1u   -2.614071     2B3u   -2.605838     2B2u   -2.605838  
       4Ag    -0.680167     2B2g   -0.660625     2B3g   -0.660625  
       4B1u   -0.654105     3B3u   -0.652349     3B2u   -0.652349  
       1B1g   -0.649326     5Ag    -0.649319     1Au    -0.649050  
       5B1u   -0.649044     2B1g   -0.590347     6Ag    -0.590344  
       3B2g   -0.590341     3B3g   -0.590341     7Ag    -0.583069  
       8Ag    -0.426622  

    Virtual:                                                              

       6B1u   -0.235143     9Ag    -0.153125     4B3u   -0.118860  
       4B2u   -0.118860     7B1u   -0.103465     4B2g   -0.091253  
       4B3g   -0.091253     5B3u   -0.035761     5B2u   -0.035761  
      10Ag    -0.029780     8B1u   -0.022850    11Ag    -0.009195  
       9B1u    0.037852    12Ag     0.065434     6B3u    0.075231  
       6B2u    0.075231     5B2g    0.108324     5B3g    0.108324  
      10B1u    0.156670     7B3u    0.170802     7B2u    0.170802  
      13Ag     0.211078    14Ag     0.291049     3B1g    0.291056  
       6B2g    0.322192     6B3g    0.322192    11B1u    0.325945  
       2Au     0.325948    12B1u    0.357947     4B1g    0.414672  
      15Ag     0.414681     8B3u    0.416413     8B2u    0.416413  
      16Ag     0.523184    13B1u    0.586221     7B2g    0.592706  
       7B3g    0.592706    17Ag     0.665219    14B1u    1.384877  
       9B3u    1.463913     9B2u    1.463913     3Au     1.497890  
      15B1u    1.497942    10B3u    1.500610    10B2u    1.500610  
       8B2g    1.500894     8B3g    1.500894    11B3u    1.502247  
      11B2u    1.502247     9B2g    1.502259     9B3g    1.502259  
       5B1g    1.503581    18Ag     1.503637    19Ag     1.514022  
      12B3u    1.558101    12B2u    1.558101    16B1u    1.560460  
       4Au     1.568469    17B1u    1.568505    13B2u    1.572130  
      13B3u    1.572130    10B2g    1.575362    10B3g    1.575362  
      20Ag     1.575439    18B1u    1.663845    14B3u    1.671569  
      14B2u    1.671569    21Ag     1.781885    19B1u    1.847317  
       6B1g    1.951189    22Ag     1.951193     5Au     1.953799  
      20B1u    1.953812    11B2g    1.976869    11B3g    1.976870  
      15B3u    2.017820    15B2u    2.017820    23Ag     2.028787  
       7B1g    2.028840    24Ag     2.060236    21B1u    2.078782  
      12B2g    2.139219    12B3g    2.139219    22B1u    2.219796  
      25Ag     2.259426    26Ag     2.580963    23B1u    4.648473  
      16B3u    4.663222    16B2u    4.663222     6Au     4.687270  
      24B1u    4.687485    17B3u    4.689253    17B2u    4.689253  
      13B2g    4.689261    13B3g    4.689261     8B1g    4.692153  
      27Ag     4.692365    14B2g    4.729642    14B3g    4.729642  
      18B2u    4.749172    18B3u    4.749172     7Au     4.750906  
      25B1u    4.751208    19B3u    4.809590    19B2u    4.809590  
      28Ag     4.843562    26B1u    5.003059    27B1u    5.452062  
      20B3u    5.452135    20B2u    5.452135    29Ag     5.452381  
       8Au     5.452407     9B1g    5.452727    15B3g    5.453078  
      15B2g    5.453078    21B3u    5.453094    21B2u    5.453094  
      28B1u    5.453513    30Ag     5.453513    16B2g    5.453531  
      16B3g    5.453531    10B1g    5.453903     9Au     5.453903  
      29B1u    5.455660    31Ag     5.456584    32Ag     5.514580  
      17B2g    5.514990    17B3g    5.514990    11B1g    5.515111  
      18B2g    5.518510    18B3g    5.518510    33Ag     5.522570  
      12B1g    5.523137    34Ag     5.527193    35Ag    33.109610  
      30B1u   33.243552    36Ag    33.653439    37Ag   110.308142  
      31B1u  110.346632    38Ag   110.508100  

    Final Occupation by Irrep:
             Ag   B1g   B2g   B3g    Au   B1u   B2u   B3u 
    DOCC [     8,    2,    3,    3,    1,    5,    3,    3 ]

  @DF-RKS Final Energy:  -440.30954411353196

   => Energetics <=

    Nuclear Repulsion Energy =            181.6373108891218351
    One-Electron Energy =               -1136.1506343144310449
    Two-Electron Energy =                 534.7813577612049585
    DFT Exchange-Correlation Energy =     -20.5754187994277089
    Empirical Dispersion Energy =          -0.0021596500000000
    VV10 Nonlocal Energy =                  0.0000000000000000
    Total Energy =                       -440.3095441135319561

Computation Completed


Properties will be evaluated at   0.000000,   0.000000,   0.000000 [a0]

Properties computed using the SCF density matrix

  Nuclear Dipole Moment: [e a0]
     X:     0.0000      Y:     0.0000      Z:     0.0000

  Electronic Dipole Moment: [e a0]
     X:     0.0000      Y:     0.0000      Z:     0.0000

  Dipole Moment: [e a0]
     X:     0.0000      Y:     0.0000      Z:     0.0000     Total:     0.0000

  Dipole Moment: [D]
     X:     0.0000      Y:     0.0000      Z:     0.0000     Total:     0.0000


*** tstop() called on bp1-compute00024.data.bp.acrc.priv at Thu Oct 28 15:26:38 2021
Module time:
	user time   =     123.95 seconds =       2.07 minutes
	system time =       4.01 seconds =       0.07 minutes
	total time  =         11 seconds =       0.18 minutes
Total time:
	user time   =     123.95 seconds =       2.07 minutes
	system time =       4.01 seconds =       0.07 minutes
	total time  =         11 seconds =       0.18 minutes

    Psi4 stopped on: Thursday, 28 October 2021 03:26PM
    Psi4 wall time for execution: 0:00:11.31

*** Psi4 exiting successfully. Buy a developer a beer!
