
    -----------------------------------------------------------------------
          Psi4: An Open-Source Ab Initio Electronic Structure Package
                               Psi4 1.4.1 release

                         Git: Rev {HEAD} cd00f19 


    D. G. A. Smith, L. A. Burns, A. C. Simmonett, R. M. Parrish,
    M. C. Schieber, R. Galvelis, P. Kraus, H. Kruse, R. Di Remigio,
    A. Alenaizan, A. M. James, S. Lehtola, J. P. Misiewicz, M. Scheurer,
    R. A. Shaw, J. B. Schriber, Y. Xie, Z. L. Glick, D. A. Sirianni,
    J. S. O'Brien, J. M. Waldrop, A. Kumar, E. G. Hohenstein,
    B. P. Pritchard, B. R. Brooks, H. F. Schaefer III, A. Yu. Sokolov,
    K. Patkowski, A. E. DePrince III, U. Bozkaya, R. A. King,
    F. A. Evangelista, J. M. Turney, T. D. Crawford, C. D. Sherrill,
    J. Chem. Phys. 152(18) 184108 (2020). https://doi.org/10.1063/5.0006002

                            Additional Code Authors
    E. T. Seidl, C. L. Janssen, E. F. Valeev, M. L. Leininger,
    J. F. Gonthier, R. M. Richard, H. R. McAlexander, M. Saitow, X. Wang,
    P. Verma, and M. H. Lechner

             Previous Authors, Complete List of Code Contributors,
                       and Citations for Specific Modules
    https://github.com/psi4/psi4/blob/master/codemeta.json
    https://github.com/psi4/psi4/graphs/contributors
    http://psicode.org/psi4manual/master/introduction.html#citing-psifour

    -----------------------------------------------------------------------


    Psi4 started on: Tuesday, 02 November 2021 11:05AM

    Process ID: 14785
    Host:       compute415.bc4.acrc.priv
    PSIDATADIR: /mnt/storage/home/zw18965/.conda/envs/p4env/share/psi4
    Memory:     500.0 MiB
    Threads:    28
    
  ==> Input File <==

--------------------------------------------------------------------------
memory 144 GB

molecule {
2 1
Ag      -0.268639    1.507918    0.000000 
Ag       1.705052   -0.492854   -0.000000 
Ag      -0.647170   -0.911099    1.379441 
Ag      -0.647170   -0.911099   -1.379441 
N       -0.647170    3.675657    0.000000 
H       -0.250844    4.149729    0.817426 
H       -0.250844    4.149729   -0.817426 
H       -1.645581    3.906275    0.000000 
 }

set basis Def2-TZVPPD

energy("M11-D3BJ")
--------------------------------------------------------------------------

  Memory set to 134.110 GiB by Python driver.

Scratch directory: /tmp/

*** tstart() called on compute415.bc4.acrc.priv
*** at Tue Nov  2 11:05:12 2021

   => Loading Basis Set <=

    Name: DEF2-TZVPPD
    Role: ORBITAL
    Keyword: BASIS
    atoms 1-4 entry AG         line  2174 (ECP: line  3646) file /mnt/storage/home/zw18965/.conda/envs/p4env/share/psi4/basis/def2-tzvppd.gbs 
    atoms 5   entry N          line   181 file /mnt/storage/home/zw18965/.conda/envs/p4env/share/psi4/basis/def2-tzvppd.gbs 
    atoms 6-8 entry H          line    14 file /mnt/storage/home/zw18965/.conda/envs/p4env/share/psi4/basis/def2-tzvppd.gbs 

    !!!  WARNING: ECP capability is in beta. Please check occupations closely.  !!!

   => M11-D3(BJ): Empirical Dispersion <=

    Grimme's -D3 (BJ-damping) Dispersion Correction
    Grimme S.; Ehrlich S.; Goerigk L. (2011), J. Comput. Chem., 32: 1456
    Parametrisation from:    L. Goerigk, J. Phys. Chem. Lett. 6, 3891-3896, 2015

        s6 =       1.000000
        s8 =       2.811200
        a1 =       0.000000
        a2 =      10.138900


         ---------------------------------------------------------
                                   SCF
               by Justin Turney, Rob Parrish, Andy Simmonett
                          and Daniel G. A. Smith
                              RKS Reference
                       28 Threads, 137329 MiB Core
         ---------------------------------------------------------

  ==> Geometry <==

    Molecular point group: cs
    Full point group: Cs

    Geometry (in Angstrom), charge = 2, multiplicity = 1:

       Center              X                  Y                   Z               Mass       
    ------------   -----------------  -----------------  -----------------  -----------------
         AG          -0.277549184886     1.558553668839     0.000000000000   106.905091600000
         AG           1.696141815114    -0.442218331161     0.000000000000   106.905091600000
         AG          -0.656080184886    -0.860463331161     1.379441000000   106.905091600000
         AG          -0.656080184886    -0.860463331161    -1.379441000000   106.905091600000
         N           -0.656080184886     3.726292668839     0.000000000000    14.003074004430
         H           -0.259754184886     4.200364668839     0.817426000000     1.007825032230
         H           -0.259754184886     4.200364668839    -0.817426000000     1.007825032230
         H           -1.654491184886     3.956910668839     0.000000000000     1.007825032230

  Running in cs symmetry.

  Rotational constants: A =      0.02065  B =      0.01531  C =      0.01530 [cm^-1]
  Rotational constants: A =    619.07535  B =    458.84484  C =    458.82428 [MHz]
  Nuclear repulsion =  527.725235825397704

  Charge       = 2
  Multiplicity = 1
  Electrons    = 84
  Nalpha       = 42
  Nbeta        = 42

  ==> Algorithm <==

  SCF Algorithm Type is DF.
  DIIS enabled.
  MOM disabled.
  Fractional occupation disabled.
  Guess Type is SAD.
  Energy threshold   = 1.00e-06
  Density threshold  = 1.00e-06
  Integral threshold = 1.00e-12

  ==> Primary Basis <==

  Basis Set: DEF2-TZVPPD
    Blend: DEF2-TZVPPD
    Number of shells: 98
    Number of basis functions: 312
    Number of Cartesian functions: 381
    Spherical Harmonics?: true
    Max angular momentum: 4

  Core potential: DEF2-TZVPPD
    Number of shells: 16
    Number of ECP primitives: 56
    Number of ECP core electrons: 112
    Max angular momentum: 3

  ==> DFT Potential <==

   => Composite Functional: M11-D3BJ <= 

    M11 Meta-GGA XC Functional
(10.1021/jz201170d)
    R. Peverati and D. G. Truhlar, J. Phys. Chem. Lett., 2, 2810, 2011


    Deriv               =              1
    GGA                 =           TRUE
    Meta                =           TRUE

    Exchange Hybrid     =           TRUE
    MP2 Hybrid          =          FALSE

   => Exchange Functionals <=

    1.0000   XC_HYB_MGGA_X_M11 [omega = 0.2500]

   => Exact (HF) Exchange <=

    0.5720            HF,LR [omega = 0.2500]
    0.4280               HF 

   => Correlation Functionals <=

    1.0000    XC_MGGA_C_M11

   => LibXC Density Thresholds  <==

    XC_MGGA_C_M11:  1.00E-15 
    XC_HYB_MGGA_X_M11:  1.00E-11 

   => Molecular Quadrature <=

    Radial Scheme          =       TREUTLER
    Pruning Scheme         =           NONE
    Nuclear Scheme         =       TREUTLER

    BS radius alpha        =              1
    Pruning alpha          =              1
    Radial Points          =             75
    Spherical Points       =            302
    Total Points           =         169899
    Total Blocks           =           1408
    Max Points             =            256
    Max Functions          =            292
    Weights Tolerance      =       1.00E-15

   => Loading Basis Set <=

    Name: (DEF2-TZVPPD AUX)
    Role: JKFIT
    Keyword: DF_BASIS_SCF
    atoms 1-4 entry AG         line  4364 file /mnt/storage/home/zw18965/.conda/envs/p4env/share/psi4/basis/def2-universal-jkfit.gbs 
    atoms 5   entry N          line   258 file /mnt/storage/home/zw18965/.conda/envs/p4env/share/psi4/basis/def2-universal-jkfit.gbs 
    atoms 6-8 entry H          line    18 file /mnt/storage/home/zw18965/.conda/envs/p4env/share/psi4/basis/def2-universal-jkfit.gbs 

  ==> Integral Setup <==

  DFHelper Memory: AOs need 1.518 GiB; user supplied 98.455 GiB. Using in-core AOs.

  ==> MemDFJK: Density-Fitted J/K Matrices <==

    J tasked:                   Yes
    K tasked:                   Yes
    wK tasked:                  Yes
    Omega:                2.500E-01
    OpenMP threads:              28
    Memory [MiB]:            100817
    Algorithm:                 Core
    Schwarz Cutoff:           1E-12
    Mask sparsity (%):      12.5657
    Fitting Condition:        1E-10

   => Auxiliary Basis Set <=

  Basis Set: (DEF2-TZVPPD AUX)
    Blend: DEF2-UNIVERSAL-JKFIT
    Number of shells: 239
    Number of basis functions: 1151
    Number of Cartesian functions: 1689
    Spherical Harmonics?: true
    Max angular momentum: 6

  Cached 100.0% of DFT collocation blocks in 2.128 [GiB].

  Minimum eigenvalue in the overlap matrix is 1.7564697249E-04.
  Reciprocal condition number of the overlap matrix is 2.1272051910E-05.
    Using symmetric orthogonalization.

  ==> Pre-Iterations <==

  SCF Guess: Superposition of Atomic Densities via on-the-fly atomic UHF (no occupation information).

   -------------------------
    Irrep   Nso     Nmo    
   -------------------------
     A'       182     182 
     A"       130     130 
   -------------------------
    Total     312     312
   -------------------------

  ==> Iterations <==

                           Total Energy        Delta E     RMS |[F,P]|

   @DF-RKS iter SAD:  -642.88718875401776   -6.42887e+02   0.00000e+00 
   @DF-RKS iter   1:  -643.30788324609648   -4.20694e-01   3.11912e-03 DIIS
   @DF-RKS iter   2:  -643.33971984416758   -3.18366e-02   2.87822e-03 DIIS
   @DF-RKS iter   3:  -643.49462233943927   -1.54902e-01   1.92652e-04 DIIS
   @DF-RKS iter   4:  -643.49638649103929   -1.76415e-03   1.27520e-04 DIIS
   @DF-RKS iter   5:  -643.49678105755970   -3.94567e-04   3.26789e-05 DIIS
   @DF-RKS iter   6:  -643.49688766985560   -1.06612e-04   1.07225e-05 DIIS
   @DF-RKS iter   7:  -643.49690043750547   -1.27676e-05   5.06143e-06 DIIS
   @DF-RKS iter   8:  -643.49690168567145   -1.24817e-06   2.10701e-06 DIIS
   @DF-RKS iter   9:  -643.49690188173463   -1.96063e-07   7.80386e-07 DIIS
  Energy and wave function converged.


  ==> Post-Iterations <==

   Electrons on quadrature grid:
      Ntotal   =   83.9999640719 ; deviation = -3.593e-05 

    Orbital Energies [Eh]
    ---------------------

    Doubly Occupied:                                                      

       1Ap   -14.905264     2Ap    -4.213292     3Ap    -4.212973  
       1App   -4.212967     4Ap    -4.196489     5Ap    -2.810999  
       2App   -2.808177     6Ap    -2.808175     7Ap    -2.806431  
       3App   -2.806250     8Ap    -2.806245     9Ap    -2.805344  
       4App   -2.805343     5App   -2.805265    10Ap    -2.791383  
      11Ap    -2.788057     6App   -2.788057    12Ap    -1.304358  
       7App   -0.893500    13Ap    -0.893497    14Ap    -0.851936  
      15Ap    -0.828310     8App   -0.821921    16Ap    -0.821900  
      17Ap    -0.811945     9App   -0.811943    18Ap    -0.804612  
      19Ap    -0.800067    20Ap    -0.797503    10App   -0.797498  
      11App   -0.783083    21Ap    -0.781155    12App   -0.781147  
      13App   -0.778099    22Ap    -0.778093    14App   -0.769175  
      23Ap    -0.769162    15App   -0.757707    24Ap    -0.749525  
      16App   -0.749516    25Ap    -0.702689    26Ap    -0.659434  

    Virtual:                                                              

      27Ap    -0.326835    17App   -0.326832    28Ap    -0.302209  
      29Ap    -0.248825    18App   -0.226865    30Ap    -0.226865  
      31Ap    -0.219941    19App   -0.219939    32Ap    -0.210019  
      20App   -0.167239    33Ap    -0.167226    34Ap    -0.166808  
      35Ap    -0.150251    21App   -0.150244    22App   -0.148229  
      36Ap    -0.141577    37Ap    -0.105062    23App   -0.105055  
      38Ap    -0.087259    24App   -0.087087    39Ap    -0.082741  
      40Ap    -0.071696    41Ap    -0.049525    25App   -0.049513  
      26App   -0.043318    42Ap    -0.043199    43Ap    -0.039389  
      44Ap    -0.032322    27App   -0.032291    45Ap    -0.014038  
      46Ap     0.015405    47Ap     0.034110    28App    0.034345  
      29App    0.062383    48Ap     0.075475    30App    0.075537  
      31App    0.076416    49Ap     0.076910    32App    0.091998  
      50Ap     0.092050    51Ap     0.105215    33App    0.129993  
      52Ap     0.129994    53Ap     0.161698    34App    0.162416  
      54Ap     0.162574    35App    0.202888    55Ap     0.202985  
      56Ap     0.206302    36App    0.255437    57Ap     0.255573  
      58Ap     0.273012    59Ap     0.291727    37App    0.292090  
      38App    0.293070    39App    0.314323    60Ap     0.314529  
      61Ap     0.317328    62Ap     0.371954    40App    0.372059  
      63Ap     0.413386    41App    0.417462    64Ap     0.417521  
      65Ap     0.435028    42App    0.435161    66Ap     0.465824  
      43App    0.479332    44App    0.493780    67Ap     0.493924  
      68Ap     0.500136    45App    0.500194    69Ap     0.524904  
      70Ap     0.551363    71Ap     0.669026    46App    0.669564  
      72Ap     0.686051    47App    0.857515    73Ap     0.887383  
      48App    0.887396    74Ap     0.961055    49App    0.961195  
      75Ap     0.974544    50App    1.023348    76Ap     1.023362  
      77Ap     1.219385    78Ap     1.265012    51App    1.294841  
      79Ap     1.294845    80Ap     1.322488    81Ap     1.322541  
      52App    1.322556    82Ap     1.336967    53App    1.337010  
      83Ap     1.345017    84Ap     1.350091    54App    1.352869  
      55App    1.353346    85Ap     1.353450    86Ap     1.363855  
      56App    1.363867    57App    1.376941    87Ap     1.377120  
      58App    1.380982    88Ap     1.386046    89Ap     1.392158  
      90Ap     1.392389    59App    1.392456    91Ap     1.397381  
      60App    1.397545    61App    1.404841    62App    1.415018  
      92Ap     1.415185    63App    1.425772    93Ap     1.440681  
      94Ap     1.441527    64App    1.441545    95Ap     1.502514  
      65App    1.502700    96Ap     1.517472    66App    1.517538  
      97Ap     1.525989    67App    1.549926    98Ap     1.550088  
      99Ap     1.617197    68App    1.617347   100Ap     1.622249  
      69App    1.656721   101Ap     1.677746    70App    1.677806  
     102Ap     1.742389   103Ap     1.835433    71App    1.848372  
     104Ap     1.848500    72App    1.865622    73App    1.874527  
     105Ap     1.874534   106Ap     1.894175    74App    1.904535  
     107Ap     1.904615   108Ap     1.941210   109Ap     1.943485  
      75App    1.943579   110Ap     1.962631    76App    1.962712  
      77App    1.975443    78App    1.979702   111Ap     1.979831  
     112Ap     2.000158   113Ap     2.178936    79App    2.179837  
     114Ap     2.285713    80App    2.350822   115Ap     2.350957  
     116Ap     2.392991   117Ap     2.498346   118Ap     2.554886  
      81App    2.555120   119Ap     2.561437   120Ap     2.653497  
      82App    2.687795   121Ap     2.687952   122Ap     2.950815  
      83App    3.007412    84App    3.063745   123Ap     3.063847  
     124Ap     3.134898    85App    3.135080    86App    3.265572  
     125Ap     3.291306    87App    3.291459   126Ap     3.658213  
      88App    3.658427   127Ap     3.706302    89App    3.763935  
     128Ap     3.764194   129Ap     3.835401   130Ap     3.906575  
      90App    3.906601    91App    4.095422    92App    4.215265  
     131Ap     4.215706   132Ap     4.278001   133Ap     4.408184  
     134Ap     4.521051   135Ap     4.524468    93App    4.524658  
      94App    4.534200   136Ap     4.534277   137Ap     4.541955  
      95App    4.545353   138Ap     4.545424    96App    4.548921  
      97App    4.558728   139Ap     4.558831   140Ap     4.559176  
      98App    4.561882   141Ap     4.580248    99App    4.580442  
     100App    4.589496   142Ap     4.597800   101App    4.601872  
     143Ap     4.601876   102App    4.608113   144Ap     4.608257  
     103App    4.639627   145Ap     4.640404   146Ap     4.729855  
     104App    4.741842   147Ap     4.745006   105App    4.745061  
     148Ap     4.799403   106App    4.799565   149Ap     4.936319  
     107App    4.937217   150Ap     4.937351   151Ap     5.000613  
     152Ap     5.238614   108App    5.311976   153Ap     5.311996  
     154Ap     5.312194   109App    5.312198   155Ap     5.312258  
     110App    5.312352   156Ap     5.312505   111App    5.312578  
     157Ap     5.312631   112App    5.312646   113App    5.312790  
     158Ap     5.312801   114App    5.312863   159Ap     5.312988  
     160Ap     5.313075   115App    5.313174   116App    5.313709  
     161Ap     5.313772   117App    5.314597   118App    5.314841  
     162Ap     5.315058   163Ap     5.316449   119App    5.316533  
     164Ap     5.317975   120App    5.322124   165Ap     5.322174  
     166Ap     5.330718   121App    5.332791   167Ap     5.332803  
     122App    5.334664   168Ap     5.335485   123App    5.335491  
     169Ap     5.338083   170Ap     5.355820   124App    5.355955  
     171Ap     5.467700   125App    5.544901   172Ap     5.545235  
     126App    5.552379   127App    5.666145   173Ap     5.667609  
     174Ap     6.128227   128App    6.299917   175Ap     6.300969  
     176Ap    32.260452   177Ap    33.110167   178Ap    33.453705  
     129App   33.454033   179Ap    33.573360   180Ap   110.206285  
     181Ap   110.315981   130App  110.316087   182Ap   110.365163  

    Final Occupation by Irrep:
             Ap   App 
    DOCC [    26,   16 ]

  @DF-RKS Final Energy:  -643.49690188173463

   => Energetics <=

    Nuclear Repulsion Energy =            527.7252358253977036
    One-Electron Energy =               -2146.7058221494344252
    Two-Electron Energy =                1006.8714994432707499
    DFT Exchange-Correlation Energy =     -31.3819602309686942
    Empirical Dispersion Energy =          -0.0058547700000000
    VV10 Nonlocal Energy =                  0.0000000000000000
    Total Energy =                       -643.4969018817347433

Computation Completed


Properties will be evaluated at   0.000000,   0.000000,   0.000000 [a0]

Properties computed using the SCF density matrix

  Nuclear Dipole Moment: [e a0]
     X:    -8.9655      Y:    50.9365      Z:    -0.0000

  Electronic Dipole Moment: [e a0]
     X:     8.6776      Y:   -49.2911      Z:     0.0000

  Dipole Moment: [e a0]
     X:    -0.2879      Y:     1.6455      Z:    -0.0000     Total:     1.6705

  Dipole Moment: [D]
     X:    -0.7317      Y:     4.1823      Z:    -0.0000     Total:     4.2459


*** tstop() called on compute415.bc4.acrc.priv at Tue Nov  2 11:05:32 2021
Module time:
	user time   =     277.24 seconds =       4.62 minutes
	system time =      12.36 seconds =       0.21 minutes
	total time  =         20 seconds =       0.33 minutes
Total time:
	user time   =     277.24 seconds =       4.62 minutes
	system time =      12.36 seconds =       0.21 minutes
	total time  =         20 seconds =       0.33 minutes

    Psi4 stopped on: Tuesday, 02 November 2021 11:05AM
    Psi4 wall time for execution: 0:00:20.81

*** Psi4 exiting successfully. Buy a developer a beer!
