
    -----------------------------------------------------------------------
          Psi4: An Open-Source Ab Initio Electronic Structure Package
                               Psi4 1.4.1 release

                         Git: Rev {HEAD} cd00f19 


    D. G. A. Smith, L. A. Burns, A. C. Simmonett, R. M. Parrish,
    M. C. Schieber, R. Galvelis, P. Kraus, H. Kruse, R. Di Remigio,
    A. Alenaizan, A. M. James, S. Lehtola, J. P. Misiewicz, M. Scheurer,
    R. A. Shaw, J. B. Schriber, Y. Xie, Z. L. Glick, D. A. Sirianni,
    J. S. O'Brien, J. M. Waldrop, A. Kumar, E. G. Hohenstein,
    B. P. Pritchard, B. R. Brooks, H. F. Schaefer III, A. Yu. Sokolov,
    K. Patkowski, A. E. DePrince III, U. Bozkaya, R. A. King,
    F. A. Evangelista, J. M. Turney, T. D. Crawford, C. D. Sherrill,
    J. Chem. Phys. 152(18) 184108 (2020). https://doi.org/10.1063/5.0006002

                            Additional Code Authors
    E. T. Seidl, C. L. Janssen, E. F. Valeev, M. L. Leininger,
    J. F. Gonthier, R. M. Richard, H. R. McAlexander, M. Saitow, X. Wang,
    P. Verma, and M. H. Lechner

             Previous Authors, Complete List of Code Contributors,
                       and Citations for Specific Modules
    https://github.com/psi4/psi4/blob/master/codemeta.json
    https://github.com/psi4/psi4/graphs/contributors
    http://psicode.org/psi4manual/master/introduction.html#citing-psifour

    -----------------------------------------------------------------------


    Psi4 started on: Tuesday, 02 November 2021 11:06AM

    Process ID: 24259
    Host:       compute495.bc4.acrc.priv
    PSIDATADIR: /mnt/storage/home/zw18965/.conda/envs/p4env/share/psi4
    Memory:     500.0 MiB
    Threads:    28
    
  ==> Input File <==

--------------------------------------------------------------------------
memory 144 GB

molecule {
2 2
Ag       0.000000    0.000000    1.733523 
Ag       0.000000    1.616553   -0.602470 
Ag      -1.399976   -0.808277   -0.602470 
Ag       1.399976   -0.808277   -0.602470 
H        0.000000    0.000000    3.472645 
 }

set reference uks
set basis Def2-TZVPPD

energy("M11-D3BJ")
--------------------------------------------------------------------------

  Memory set to 134.110 GiB by Python driver.

Scratch directory: /tmp/

*** tstart() called on compute495.bc4.acrc.priv
*** at Tue Nov  2 11:06:47 2021

   => Loading Basis Set <=

    Name: DEF2-TZVPPD
    Role: ORBITAL
    Keyword: BASIS
    atoms 1-4 entry AG         line  2174 (ECP: line  3646) file /mnt/storage/home/zw18965/.conda/envs/p4env/share/psi4/basis/def2-tzvppd.gbs 
    atoms 5   entry H          line    14 file /mnt/storage/home/zw18965/.conda/envs/p4env/share/psi4/basis/def2-tzvppd.gbs 

    !!!  WARNING: ECP capability is in beta. Please check occupations closely.  !!!

   => M11-D3(BJ): Empirical Dispersion <=

    Grimme's -D3 (BJ-damping) Dispersion Correction
    Grimme S.; Ehrlich S.; Goerigk L. (2011), J. Comput. Chem., 32: 1456
    Parametrisation from:    L. Goerigk, J. Phys. Chem. Lett. 6, 3891-3896, 2015

        s6 =       1.000000
        s8 =       2.811200
        a1 =       0.000000
        a2 =      10.138900


         ---------------------------------------------------------
                                   SCF
               by Justin Turney, Rob Parrish, Andy Simmonett
                          and Daniel G. A. Smith
                              UKS Reference
                       28 Threads, 137329 MiB Core
         ---------------------------------------------------------

  ==> Geometry <==

    Molecular point group: cs
    Full point group: Cs

    Geometry (in Angstrom), charge = 2, multiplicity = 2:

       Center              X                  Y                   Z               Mass       
    ------------   -----------------  -----------------  -----------------  -----------------
         AG          -0.000000249412    -1.743786155882     0.000000000000   106.905091600000
         AG          -1.616553249412     0.592206844118     0.000000000000   106.905091600000
         AG           0.808276750588     0.592206844118    -1.399976000000   106.905091600000
         AG           0.808276750588     0.592206844118     1.399976000000   106.905091600000
         H           -0.000000249412    -3.482908155882     0.000000000000     1.007825032230

  Running in cs symmetry.

  Rotational constants: A =      0.02011  B =      0.01940  C =      0.01940 [cm^-1]
  Rotational constants: A =    603.00034  B =    581.67577  C =    581.67567 [MHz]
  Nuclear repulsion =  419.082201940316168

  Charge       = 2
  Multiplicity = 2
  Electrons    = 75
  Nalpha       = 38
  Nbeta        = 37

  ==> Algorithm <==

  SCF Algorithm Type is DF.
  DIIS enabled.
  MOM disabled.
  Fractional occupation disabled.
  Guess Type is SAD.
  Energy threshold   = 1.00e-06
  Density threshold  = 1.00e-06
  Integral threshold = 1.00e-12

  ==> Primary Basis <==

  Basis Set: DEF2-TZVPPD
    Blend: DEF2-TZVPPD
    Number of shells: 71
    Number of basis functions: 241
    Number of Cartesian functions: 302
    Spherical Harmonics?: true
    Max angular momentum: 4

  Core potential: DEF2-TZVPPD
    Number of shells: 16
    Number of ECP primitives: 56
    Number of ECP core electrons: 112
    Max angular momentum: 3

  ==> DFT Potential <==

   => Composite Functional: M11-D3BJ <= 

    M11 Meta-GGA XC Functional
(10.1021/jz201170d)
    R. Peverati and D. G. Truhlar, J. Phys. Chem. Lett., 2, 2810, 2011


    Deriv               =              1
    GGA                 =           TRUE
    Meta                =           TRUE

    Exchange Hybrid     =           TRUE
    MP2 Hybrid          =          FALSE

   => Exchange Functionals <=

    1.0000   XC_HYB_MGGA_X_M11 [omega = 0.2500]

   => Exact (HF) Exchange <=

    0.5720            HF,LR [omega = 0.2500]
    0.4280               HF 

   => Correlation Functionals <=

    1.0000    XC_MGGA_C_M11

   => LibXC Density Thresholds  <==

    XC_MGGA_C_M11:  1.00E-15 
    XC_HYB_MGGA_X_M11:  1.00E-11 

   => Molecular Quadrature <=

    Radial Scheme          =       TREUTLER
    Pruning Scheme         =           NONE
    Nuclear Scheme         =       TREUTLER

    BS radius alpha        =              1
    Pruning alpha          =              1
    Radial Points          =             75
    Spherical Points       =            302
    Total Points           =         105788
    Total Blocks           =            912
    Max Points             =            256
    Max Functions          =            232
    Weights Tolerance      =       1.00E-15

   => Loading Basis Set <=

    Name: (DEF2-TZVPPD AUX)
    Role: JKFIT
    Keyword: DF_BASIS_SCF
    atoms 1-4 entry AG         line  4364 file /mnt/storage/home/zw18965/.conda/envs/p4env/share/psi4/basis/def2-universal-jkfit.gbs 
    atoms 5   entry H          line    18 file /mnt/storage/home/zw18965/.conda/envs/p4env/share/psi4/basis/def2-universal-jkfit.gbs 

  ==> Integral Setup <==

  DFHelper Memory: AOs need 0.892 GiB; user supplied 99.490 GiB. Using in-core AOs.

  ==> MemDFJK: Density-Fitted J/K Matrices <==

    J tasked:                   Yes
    K tasked:                   Yes
    wK tasked:                  Yes
    Omega:                2.500E-01
    OpenMP threads:              28
    Memory [MiB]:            101878
    Algorithm:                 Core
    Schwarz Cutoff:           1E-12
    Mask sparsity (%):       4.8277
    Fitting Condition:        1E-10

   => Auxiliary Basis Set <=

  Basis Set: (DEF2-TZVPPD AUX)
    Blend: DEF2-UNIVERSAL-JKFIT
    Number of shells: 202
    Number of basis functions: 1038
    Number of Cartesian functions: 1556
    Spherical Harmonics?: true
    Max angular momentum: 6

  Cached 100.0% of DFT collocation blocks in 1.093 [GiB].

  Minimum eigenvalue in the overlap matrix is 1.2200558393E-03.
  Reciprocal condition number of the overlap matrix is 1.9864326139E-04.
    Using symmetric orthogonalization.

  ==> Pre-Iterations <==

  SCF Guess: Superposition of Atomic Densities via on-the-fly atomic UHF (no occupation information).

   -------------------------
    Irrep   Nso     Nmo    
   -------------------------
     A'       140     140 
     A"       101     101 
   -------------------------
    Total     241     241
   -------------------------

  ==> Iterations <==

                           Total Energy        Delta E     RMS |[F,P]|

   @DF-UKS iter SAD:  -587.10524539879225   -5.87105e+02   0.00000e+00 
   @DF-UKS iter   1:  -587.21442793715414   -1.09183e-01   1.78793e-03 DIIS
   @DF-UKS iter   2:  -587.26861787917142   -5.41899e-02   2.40206e-03 DIIS
   @DF-UKS iter   3:  -587.34225107352381   -7.36332e-02   5.59937e-04 DIIS
   @DF-UKS iter   4:  -587.35555547095555   -1.33044e-02   4.73741e-04 DIIS
   @DF-UKS iter   5:  -587.36479874219913   -9.24327e-03   3.00607e-04 DIIS
   @DF-UKS iter   6:  -587.37330894702382   -8.51020e-03   2.01335e-04 DIIS
   @DF-UKS iter   7:  -587.37747761977107   -4.16867e-03   1.05766e-04 DIIS
   @DF-UKS iter   8:  -587.37845968080092   -9.82061e-04   4.05457e-05 DIIS
   @DF-UKS iter   9:  -587.37864311734825   -1.83437e-04   3.10114e-05 DIIS
   @DF-UKS iter  10:  -587.37872718109429   -8.40637e-05   1.23161e-05 DIIS
   @DF-UKS iter  11:  -587.37873627345971   -9.09237e-06   5.42514e-06 DIIS
   @DF-UKS iter  12:  -587.37873896025758   -2.68680e-06   2.05504e-06 DIIS
   @DF-UKS iter  13:  -587.37873931241575   -3.52158e-07   1.40441e-06 DIIS
   @DF-UKS iter  14:  -587.37873938388293   -7.14672e-08   4.10700e-07 DIIS
  Energy and wave function converged.


  ==> Post-Iterations <==

   Electrons on quadrature grid:
      Nalpha   =   37.9999862730 ; deviation = -1.373e-05
      Nbeta    =   36.9999881122 ; deviation = -1.189e-05
      Ntotal   =   74.9999743852 ; deviation = -2.561e-05 

   @Spin Contamination Metric:   6.693120138E-03
   @S^2 Expected:                7.500000000E-01
   @S^2 Observed:                7.566931201E-01
   @S   Expected:                5.000000000E-01
   @S   Observed:                5.000000000E-01

    Orbital Energies [Eh]
    ---------------------

    Alpha Occupied:                                                       

       1Ap    -4.259982     2Ap    -4.238995     3Ap    -4.238747  
       1App   -4.238737     4Ap    -2.862164     5Ap    -2.847538  
       2App   -2.847538     6Ap    -2.836306     7Ap    -2.833852  
       3App   -2.833849     8Ap    -2.832146     4App   -2.832096  
       9Ap    -2.832093    10Ap    -2.831292     5App   -2.831290  
       6App   -2.831047    11Ap    -0.907521     7App   -0.856393  
      12Ap    -0.856388    13Ap    -0.856142     8App   -0.846031  
      14Ap    -0.846027    15Ap    -0.840481    16Ap    -0.833962  
       9App   -0.833961    17Ap    -0.829129    18Ap    -0.816723  
      10App   -0.816722    11App   -0.809578    19Ap    -0.808176  
      12App   -0.808169    13App   -0.804870    20Ap    -0.804866  
      21Ap    -0.792745    14App   -0.792742    15App   -0.785272  
      22Ap    -0.735684    23Ap    -0.684415  

    Alpha Virtual:                                                        

      24Ap    -0.349697    16App   -0.349690    25Ap    -0.321991  
      26Ap    -0.261756    17App   -0.245822    27Ap    -0.245821  
      18App   -0.238650    28Ap    -0.238650    29Ap    -0.189057  
      30Ap    -0.175969    19App   -0.175965    31Ap    -0.168434  
      20App   -0.161391    21App   -0.160411    32Ap    -0.160410  
      33Ap    -0.112767    34Ap    -0.084166    35Ap    -0.082241  
      36Ap    -0.073971    22App   -0.073967    37Ap    -0.067857  
      23App   -0.067848    38Ap    -0.064129    24App   -0.064129  
      39Ap    -0.029198    40Ap    -0.010006    25App   -0.010001  
      26App    0.048246    41Ap     0.048248    27App    0.050200  
      42Ap     0.077657    43Ap     0.098753    28App    0.098754  
      44Ap     0.124174    29App    0.148293    45Ap     0.148295  
      46Ap     0.180592    47Ap     0.220552    48Ap     0.248573  
      30App    0.248576    49Ap     0.266902    31App    0.268847  
      32App    0.280061    50Ap     0.280071    51Ap     0.353481  
      33App    0.353483    52Ap     0.372237    34App    0.372241  
      53Ap     0.382562    54Ap     0.410012    35App    0.410025  
      36App    0.442477    55Ap     0.442490    37App    0.455893  
      56Ap     0.480483    38App    0.682228    57Ap     0.682230  
      58Ap     0.781402    39App    1.271719    59Ap     1.271744  
      40App    1.286284    60Ap     1.286284    61Ap     1.291304  
      62Ap     1.304161    63Ap     1.310940    41App    1.310948  
      42App    1.314242    43App    1.318323    64Ap     1.318339  
      65Ap     1.320993    66Ap     1.322531    44App    1.322572  
      67Ap     1.328655    45App    1.334313    68Ap     1.334338  
      46App    1.343676    69Ap     1.350884    47App    1.363006  
      70Ap     1.363026    48App    1.368223    71Ap     1.368236  
      49App    1.370055    50App    1.380738    72Ap     1.380766  
      51App    1.387242    52App    1.394634    73Ap     1.394641  
      74Ap     1.406734    75Ap     1.471936    53App    1.471955  
      76Ap     1.474728    54App    1.481774    77Ap     1.481775  
      78Ap     1.530561    55App    1.615565    79Ap     1.615597  
      56App    1.621620    80Ap     1.662208    81Ap     1.740754  
      82Ap     1.816246    57App    1.816247    83Ap     1.817465  
      58App    1.834663    84Ap     1.834682    59App    1.839347  
      60App    1.845256    85Ap     1.845257    86Ap     1.916520  
      61App    1.916550    87Ap     1.923009    62App    1.923106  
      88Ap     1.930039    89Ap     1.932605    63App    1.932645  
      64App    1.936127    90Ap     1.945923    91Ap     1.996974  
      65App    1.997060    92Ap     2.283111    93Ap     2.355172  
      94Ap     2.460705    66App    2.460797    95Ap     2.564163  
      96Ap     2.828074    67App    2.831712    97Ap     2.994188  
      68App    2.994214    98Ap     3.458205    99Ap     3.478237  
      69App    3.478240   100Ap     3.961489   101Ap     4.486549  
      70App    4.486586   102Ap     4.500388   103Ap     4.507996  
     104Ap     4.508132    71App    4.508147    72App    4.508587  
     105Ap     4.515457    73App    4.515567   106Ap     4.515580  
      74App    4.525094   107Ap     4.533190    75App    4.533198  
     108Ap     4.553035    76App    4.553553    77App    4.562183  
     109Ap     4.562197   110Ap     4.568059    78App    4.568060  
     111Ap     4.580883    79App    4.580893   112Ap     4.693923  
     113Ap     4.697673    80App    4.697706    81App    4.697972  
     114Ap     4.733692    82App    4.733752   115Ap     4.906049  
     116Ap     5.270717    83App    5.270732   117Ap     5.275525  
      84App    5.275715    85App    5.277057   118Ap     5.277103  
     119Ap     5.285609    86App    5.285734   120Ap     5.285875  
      87App    5.285964   121Ap     5.286061   122Ap     5.286114  
      88App    5.286117    89App    5.286193    90App    5.286316  
     123Ap     5.286389    91App    5.286445   124Ap     5.286479  
      92App    5.286590   125Ap     5.286628    93App    5.286710  
     126Ap     5.286724    94App    5.287596   127Ap     5.287649  
      95App    5.288250    96App    5.288440   128Ap     5.288573  
     129Ap     5.288831    97App    5.288920   130Ap     5.289056  
      98App    5.297178   131Ap     5.297221   132Ap     5.303573  
     133Ap     5.334042    99App    5.334240   134Ap     5.617516  
     135Ap    32.997857   136Ap    33.360460   100App   33.360470  
     137Ap    33.408938   138Ap   110.150178   139Ap   110.268762  
     101App  110.268771   140Ap   110.274054  

    Beta Occupied:                                                        

       1Ap    -4.254448     2Ap    -4.238807     3Ap    -4.238560  
       1App   -4.238551     4Ap    -2.846962     2App   -2.846961  
       5Ap    -2.846565     6Ap    -2.835738     7Ap    -2.833575  
       3App   -2.833574     4App   -2.832114     8Ap    -2.832113  
       9Ap    -2.832076    10Ap    -2.831074     5App   -2.831073  
       6App   -2.831054    11Ap    -0.878262     7App   -0.855159  
      12Ap    -0.855154    13Ap    -0.851388     8App   -0.845178  
      14Ap    -0.845174    15Ap    -0.832355     9App   -0.832353  
      16Ap    -0.828786    17Ap    -0.821428    18Ap    -0.815472  
      10App   -0.815469    11App   -0.809500    19Ap    -0.808024  
      12App   -0.808016    13App   -0.804630    20Ap    -0.804627  
      21Ap    -0.791666    14App   -0.791663    15App   -0.785301  
      22Ap    -0.684319  

    Beta Virtual:                                                         

      23Ap    -0.414105    24Ap    -0.349535    16App   -0.349526  
      25Ap    -0.308506    26Ap    -0.259352    27Ap    -0.248876  
      17App   -0.248876    18App   -0.240719    28Ap    -0.240718  
      29Ap    -0.210380    30Ap    -0.182472    19App   -0.182468  
      31Ap    -0.177819    32Ap    -0.169423    20App   -0.169422  
      21App   -0.161062    33Ap    -0.130917    34Ap    -0.092986  
      35Ap    -0.083966    36Ap    -0.079128    22App   -0.079116  
      37Ap    -0.067246    23App   -0.067245    38Ap    -0.066410  
      24App   -0.066409    39Ap    -0.029959    25App   -0.029955  
      40Ap    -0.022602    41Ap     0.042028    26App    0.042031  
      42Ap     0.042739    27App    0.050421    43Ap     0.099124  
      28App    0.099126    44Ap     0.124236    29App    0.145558  
      45Ap     0.145564    46Ap     0.187137    47Ap     0.221355  
      30App    0.247788    48Ap     0.247799    31App    0.268752  
      49Ap     0.268910    32App    0.278851    50Ap     0.278867  
      33App    0.353526    51Ap     0.353529    34App    0.371550  
      52Ap     0.371552    53Ap     0.384021    54Ap     0.410330  
      35App    0.410357    36App    0.448445    55Ap     0.448461  
      37App    0.456067    56Ap     0.494520    38App    0.729336  
      57Ap     0.729336    58Ap     0.835388    39App    1.272935  
      59Ap     1.272959    40App    1.287475    60Ap     1.287477  
      61Ap     1.291843    62Ap     1.304319    63Ap     1.312288  
      41App    1.312305    42App    1.316490    43App    1.319981  
      64Ap     1.320013    65Ap     1.322298    44App    1.322346  
      66Ap     1.322837    67Ap     1.330430    45App    1.335070  
      68Ap     1.335086    46App    1.344603    69Ap     1.351250  
      47App    1.362819    70Ap     1.362836    48App    1.370171  
      49App    1.370255    71Ap     1.370278    50App    1.382600  
      72Ap     1.382626    51App    1.387337    52App    1.398162  
      73Ap     1.398185    74Ap     1.408985    75Ap     1.471876  
      53App    1.471892    76Ap     1.476333    77Ap     1.482261  
      54App    1.482261    78Ap     1.563611    55App    1.616070  
      79Ap     1.616104    56App    1.621631    80Ap     1.670025  
      81Ap     1.748821    82Ap     1.814883    57App    1.814922  
      83Ap     1.818133    84Ap     1.832897    58App    1.832898  
      59App    1.839195    60App    1.844737    85Ap     1.844740  
      86Ap     1.915922    61App    1.915950    87Ap     1.922819  
      62App    1.922923    88Ap     1.931931    89Ap     1.932454  
      63App    1.932493    64App    1.935887    90Ap     1.975095  
      91Ap     1.995698    65App    1.995785    92Ap     2.328982  
      93Ap     2.427784    94Ap     2.462661    66App    2.462762  
      95Ap     2.616794    96Ap     3.089065    67App    3.090752  
      97Ap     3.208611    68App    3.208640    98Ap     3.622842  
      99Ap     3.814788    69App    3.814793   100Ap     4.196333  
     101Ap     4.486286    70App    4.486323   102Ap     4.500765  
     103Ap     4.508168    71App    4.508186   104Ap     4.509753  
      72App    4.510732    73App    4.515413   105Ap     4.515423  
     106Ap     4.515793    74App    4.525320   107Ap     4.534451  
      75App    4.534458    76App    4.553582   108Ap     4.554537  
      77App    4.563602   109Ap     4.563627   110Ap     4.567810  
      78App    4.567811   111Ap     4.581874    79App    4.581889  
     112Ap     4.694278    80App    4.697920   113Ap     4.698397  
      81App    4.698430   114Ap     4.743341    82App    4.743396  
     115Ap     4.926950    83App    5.278543   116Ap     5.278551  
     117Ap     5.278885    84App    5.279017   118Ap     5.281393  
      85App    5.281406   119Ap     5.285801    86App    5.285864  
     120Ap     5.285981    87App    5.286078   121Ap     5.286179  
      88App    5.286225   122Ap     5.286333    89App    5.286383  
     123Ap     5.286575    90App    5.286614    91App    5.286642  
     124Ap     5.286742    92App    5.286842   125Ap     5.286904  
     126Ap     5.286955    93App    5.287037    94App    5.287615  
     127Ap     5.287688    95App    5.288490    96App    5.288544  
     128Ap     5.288690   129Ap     5.289185    97App    5.289246  
     130Ap     5.289252    98App    5.297441   131Ap     5.297482  
     132Ap     5.303813   133Ap     5.341048    99App    5.341248  
     134Ap     5.654863   135Ap    32.998355   136Ap    33.360612  
     100App   33.360622   137Ap    33.410885   138Ap   110.149831  
     139Ap   110.268751   101App  110.268761   140Ap   110.272717  

    Final Occupation by Irrep:
             Ap   App 
    DOCC [    22,   15 ]
    SOCC [     1,    0 ]

  @DF-UKS Final Energy:  -587.37873938388293

   => Energetics <=

    Nuclear Repulsion Energy =            419.0822019403161676
    One-Electron Energy =               -1854.4158623921498474
    Two-Electron Energy =                 875.4750922098379533
    DFT Exchange-Correlation Energy =     -27.5149632818872796
    Empirical Dispersion Energy =          -0.0052078600000000
    VV10 Nonlocal Energy =                  0.0000000000000000
    Total Energy =                       -587.3787393838829303

  UHF NO Occupations:
  HONO-2 :   21 Ap 1.9997917
  HONO-1 :   22 Ap 1.9970446
  HONO-0 :   23 Ap 1.0000000
  LUNO+0 :   24 Ap 0.0029554
  LUNO+1 :   25 Ap 0.0002083
  LUNO+2 :   16App 0.0000712
  LUNO+3 :   26 Ap 0.0000712


Computation Completed


Properties will be evaluated at   0.000000,   0.000000,   0.000000 [a0]

Properties computed using the SCF density matrix

  Nuclear Dipole Moment: [e a0]
     X:    -0.0000      Y:    -5.4028      Z:     0.0000

  Electronic Dipole Moment: [e a0]
     X:     0.0001      Y:     5.2873      Z:     0.0000

  Dipole Moment: [e a0]
     X:     0.0001      Y:    -0.1156      Z:     0.0000     Total:     0.1156

  Dipole Moment: [D]
     X:     0.0002      Y:    -0.2937      Z:     0.0000     Total:     0.2937


*** tstop() called on compute495.bc4.acrc.priv at Tue Nov  2 11:07:47 2021
Module time:
	user time   =    1225.57 seconds =      20.43 minutes
	system time =      47.46 seconds =       0.79 minutes
	total time  =         60 seconds =       1.00 minutes
Total time:
	user time   =    1225.57 seconds =      20.43 minutes
	system time =      47.46 seconds =       0.79 minutes
	total time  =         60 seconds =       1.00 minutes

    Psi4 stopped on: Tuesday, 02 November 2021 11:07AM
    Psi4 wall time for execution: 0:01:00.24

*** Psi4 exiting successfully. Buy a developer a beer!
