
    -----------------------------------------------------------------------
          Psi4: An Open-Source Ab Initio Electronic Structure Package
                               Psi4 1.4.1 release

                         Git: Rev {HEAD} cd00f19 


    D. G. A. Smith, L. A. Burns, A. C. Simmonett, R. M. Parrish,
    M. C. Schieber, R. Galvelis, P. Kraus, H. Kruse, R. Di Remigio,
    A. Alenaizan, A. M. James, S. Lehtola, J. P. Misiewicz, M. Scheurer,
    R. A. Shaw, J. B. Schriber, Y. Xie, Z. L. Glick, D. A. Sirianni,
    J. S. O'Brien, J. M. Waldrop, A. Kumar, E. G. Hohenstein,
    B. P. Pritchard, B. R. Brooks, H. F. Schaefer III, A. Yu. Sokolov,
    K. Patkowski, A. E. DePrince III, U. Bozkaya, R. A. King,
    F. A. Evangelista, J. M. Turney, T. D. Crawford, C. D. Sherrill,
    J. Chem. Phys. 152(18) 184108 (2020). https://doi.org/10.1063/5.0006002

                            Additional Code Authors
    E. T. Seidl, C. L. Janssen, E. F. Valeev, M. L. Leininger,
    J. F. Gonthier, R. M. Richard, H. R. McAlexander, M. Saitow, X. Wang,
    P. Verma, and M. H. Lechner

             Previous Authors, Complete List of Code Contributors,
                       and Citations for Specific Modules
    https://github.com/psi4/psi4/blob/master/codemeta.json
    https://github.com/psi4/psi4/graphs/contributors
    http://psicode.org/psi4manual/master/introduction.html#citing-psifour

    -----------------------------------------------------------------------


    Psi4 started on: Tuesday, 02 November 2021 11:05AM

    Process ID: 15876
    Host:       compute405.bc4.acrc.priv
    PSIDATADIR: /mnt/storage/home/zw18965/.conda/envs/p4env/share/psi4
    Memory:     500.0 MiB
    Threads:    28
    
  ==> Input File <==

--------------------------------------------------------------------------
memory 144 GB

molecule {
2 1
Ag       0.000000    1.593354   -0.403942 
Ag       1.379885   -0.796677   -0.403942 
Ag      -1.379885   -0.796677   -0.403942 
Ag       0.000000    0.000000    1.894943 
N        0.000000    0.000000   -3.082630 
H        0.808649    0.466874   -3.509356 
H       -0.000000   -0.933748   -3.509356 
H       -0.808649    0.466874   -3.509356 
 }

set basis Def2-TZVPPD

energy("M11-D3BJ")
--------------------------------------------------------------------------

  Memory set to 134.110 GiB by Python driver.

Scratch directory: /tmp/

*** tstart() called on compute405.bc4.acrc.priv
*** at Tue Nov  2 11:05:51 2021

   => Loading Basis Set <=

    Name: DEF2-TZVPPD
    Role: ORBITAL
    Keyword: BASIS
    atoms 1-4 entry AG         line  2174 (ECP: line  3646) file /mnt/storage/home/zw18965/.conda/envs/p4env/share/psi4/basis/def2-tzvppd.gbs 
    atoms 5   entry N          line   181 file /mnt/storage/home/zw18965/.conda/envs/p4env/share/psi4/basis/def2-tzvppd.gbs 
    atoms 6-8 entry H          line    14 file /mnt/storage/home/zw18965/.conda/envs/p4env/share/psi4/basis/def2-tzvppd.gbs 

    !!!  WARNING: ECP capability is in beta. Please check occupations closely.  !!!

   => M11-D3(BJ): Empirical Dispersion <=

    Grimme's -D3 (BJ-damping) Dispersion Correction
    Grimme S.; Ehrlich S.; Goerigk L. (2011), J. Comput. Chem., 32: 1456
    Parametrisation from:    L. Goerigk, J. Phys. Chem. Lett. 6, 3891-3896, 2015

        s6 =       1.000000
        s8 =       2.811200
        a1 =       0.000000
        a2 =      10.138900


         ---------------------------------------------------------
                                   SCF
               by Justin Turney, Rob Parrish, Andy Simmonett
                          and Daniel G. A. Smith
                              RKS Reference
                       28 Threads, 137329 MiB Core
         ---------------------------------------------------------

  ==> Geometry <==

    Molecular point group: cs
    Full point group: Cs

    Geometry (in Angstrom), charge = 2, multiplicity = 1:

       Center              X                  Y                   Z               Mass       
    ------------   -----------------  -----------------  -----------------  -----------------
         AG          -1.593354000000     0.447239138241     0.000000000000   106.905091600000
         AG           0.796677000000     0.447239138241     1.379885000000   106.905091600000
         AG           0.796677000000     0.447239138241    -1.379885000000   106.905091600000
         AG           0.000000000000    -1.851645861759     0.000000000000   106.905091600000
         N            0.000000000000     3.125927138241     0.000000000000    14.003074004430
         H           -0.466874000000     3.552653138241     0.808649000000     1.007825032230
         H            0.933748000000     3.552653138241     0.000000000000     1.007825032230
         H           -0.466874000000     3.552653138241    -0.808649000000     1.007825032230

  Running in cs symmetry.

  Rotational constants: A =      0.02064  B =      0.01662  C =      0.01662 [cm^-1]
  Rotational constants: A =    618.68448  B =    498.34982  C =    498.34981 [MHz]
  Nuclear repulsion =  537.015091096084575

  Charge       = 2
  Multiplicity = 1
  Electrons    = 84
  Nalpha       = 42
  Nbeta        = 42

  ==> Algorithm <==

  SCF Algorithm Type is DF.
  DIIS enabled.
  MOM disabled.
  Fractional occupation disabled.
  Guess Type is SAD.
  Energy threshold   = 1.00e-06
  Density threshold  = 1.00e-06
  Integral threshold = 1.00e-12

  ==> Primary Basis <==

  Basis Set: DEF2-TZVPPD
    Blend: DEF2-TZVPPD
    Number of shells: 98
    Number of basis functions: 312
    Number of Cartesian functions: 381
    Spherical Harmonics?: true
    Max angular momentum: 4

  Core potential: DEF2-TZVPPD
    Number of shells: 16
    Number of ECP primitives: 56
    Number of ECP core electrons: 112
    Max angular momentum: 3

  ==> DFT Potential <==

   => Composite Functional: M11-D3BJ <= 

    M11 Meta-GGA XC Functional
(10.1021/jz201170d)
    R. Peverati and D. G. Truhlar, J. Phys. Chem. Lett., 2, 2810, 2011


    Deriv               =              1
    GGA                 =           TRUE
    Meta                =           TRUE

    Exchange Hybrid     =           TRUE
    MP2 Hybrid          =          FALSE

   => Exchange Functionals <=

    1.0000   XC_HYB_MGGA_X_M11 [omega = 0.2500]

   => Exact (HF) Exchange <=

    0.5720            HF,LR [omega = 0.2500]
    0.4280               HF 

   => Correlation Functionals <=

    1.0000    XC_MGGA_C_M11

   => LibXC Density Thresholds  <==

    XC_MGGA_C_M11:  1.00E-15 
    XC_HYB_MGGA_X_M11:  1.00E-11 

   => Molecular Quadrature <=

    Radial Scheme          =       TREUTLER
    Pruning Scheme         =           NONE
    Nuclear Scheme         =       TREUTLER

    BS radius alpha        =              1
    Pruning alpha          =              1
    Radial Points          =             75
    Spherical Points       =            302
    Total Points           =         169506
    Total Blocks           =           1381
    Max Points             =            256
    Max Functions          =            296
    Weights Tolerance      =       1.00E-15

   => Loading Basis Set <=

    Name: (DEF2-TZVPPD AUX)
    Role: JKFIT
    Keyword: DF_BASIS_SCF
    atoms 1-4 entry AG         line  4364 file /mnt/storage/home/zw18965/.conda/envs/p4env/share/psi4/basis/def2-universal-jkfit.gbs 
    atoms 5   entry N          line   258 file /mnt/storage/home/zw18965/.conda/envs/p4env/share/psi4/basis/def2-universal-jkfit.gbs 
    atoms 6-8 entry H          line    18 file /mnt/storage/home/zw18965/.conda/envs/p4env/share/psi4/basis/def2-universal-jkfit.gbs 

  ==> Integral Setup <==

  DFHelper Memory: AOs need 1.598 GiB; user supplied 98.320 GiB. Using in-core AOs.

  ==> MemDFJK: Density-Fitted J/K Matrices <==

    J tasked:                   Yes
    K tasked:                   Yes
    wK tasked:                  Yes
    Omega:                2.500E-01
    OpenMP threads:              28
    Memory [MiB]:            100680
    Algorithm:                 Core
    Schwarz Cutoff:           1E-12
    Mask sparsity (%):       7.8033
    Fitting Condition:        1E-10

   => Auxiliary Basis Set <=

  Basis Set: (DEF2-TZVPPD AUX)
    Blend: DEF2-UNIVERSAL-JKFIT
    Number of shells: 239
    Number of basis functions: 1151
    Number of Cartesian functions: 1689
    Spherical Harmonics?: true
    Max angular momentum: 6

  Cached 100.0% of DFT collocation blocks in 2.262 [GiB].

  Minimum eigenvalue in the overlap matrix is 2.0631835883E-04.
  Reciprocal condition number of the overlap matrix is 2.4659055484E-05.
    Using symmetric orthogonalization.

  ==> Pre-Iterations <==

  SCF Guess: Superposition of Atomic Densities via on-the-fly atomic UHF (no occupation information).

   -------------------------
    Irrep   Nso     Nmo    
   -------------------------
     A'       182     182 
     A"       130     130 
   -------------------------
    Total     312     312
   -------------------------

  ==> Iterations <==

                           Total Energy        Delta E     RMS |[F,P]|

   @DF-RKS iter SAD:  -642.85171834388802   -6.42852e+02   0.00000e+00 
   @DF-RKS iter   1:  -643.26462400841172   -4.12906e-01   3.23255e-03 DIIS
   @DF-RKS iter   2:  -643.27321778145813   -8.59377e-03   3.16861e-03 DIIS
   @DF-RKS iter   3:  -643.46259890488068   -1.89381e-01   2.11746e-04 DIIS
   @DF-RKS iter   4:  -643.46424009075747   -1.64119e-03   1.35017e-04 DIIS
   @DF-RKS iter   5:  -643.46459598905142   -3.55898e-04   3.04357e-05 DIIS
   @DF-RKS iter   6:  -643.46467464959164   -7.86605e-05   1.49415e-05 DIIS
   @DF-RKS iter   7:  -643.46468765987174   -1.30103e-05   9.22431e-06 DIIS
   @DF-RKS iter   8:  -643.46469145326250   -3.79339e-06   1.99057e-06 DIIS
   @DF-RKS iter   9:  -643.46469182715452   -3.73892e-07   9.17077e-07 DIIS
  Energy and wave function converged.


  ==> Post-Iterations <==

   Electrons on quadrature grid:
      Ntotal   =   83.9999882715 ; deviation = -1.173e-05 

    Orbital Energies [Eh]
    ---------------------

    Doubly Occupied:                                                      

       1Ap   -14.886619     2Ap    -4.216649     3Ap    -4.216334  
       1App   -4.216326     4Ap    -4.209808     5Ap    -2.814695  
       2App   -2.811997     6Ap    -2.811997     3App   -2.810039  
       7Ap    -2.810033     8Ap    -2.809836     4App   -2.809241  
       9Ap    -2.808588     5App   -2.808585    10Ap    -2.804375  
       6App   -2.802495    11Ap    -2.802494    12Ap    -1.289312  
      13Ap    -0.875306     7App   -0.875301    14Ap    -0.852416  
      15Ap    -0.830437     8App   -0.827838    16Ap    -0.827827  
      17Ap    -0.820238     9App   -0.820237    18Ap    -0.809999  
      19Ap    -0.804026    10App   -0.804022    11App   -0.786767  
      20Ap    -0.785959    12App   -0.785950    13App   -0.782467  
      21Ap    -0.782465    22Ap    -0.781061    14App   -0.781061  
      23Ap    -0.779141    15App   -0.762288    16App   -0.760080  
      24Ap    -0.760075    25Ap    -0.725100    26Ap    -0.642318  

    Virtual:                                                              

      27Ap    -0.331065    17App   -0.331050    28Ap    -0.315624  
      29Ap    -0.257103    18App   -0.233951    30Ap    -0.233951  
      31Ap    -0.223432    19App   -0.223424    32Ap    -0.216962  
      33Ap    -0.177155    34Ap    -0.170238    20App   -0.170235  
      21App   -0.153508    35Ap    -0.152879    22App   -0.152875  
      36Ap    -0.141949    37Ap    -0.121204    23App   -0.121202  
      38Ap    -0.109147    39Ap    -0.082372    40Ap    -0.066427  
      41Ap    -0.065194    24App   -0.065165    25App   -0.060034  
      42Ap    -0.060008    26App   -0.050751    43Ap    -0.050749  
      44Ap    -0.049951    27App   -0.030246    45Ap    -0.030185  
      46Ap    -0.026628    28App    0.024082    47Ap     0.024083  
      48Ap     0.057795    29App    0.058137    30App    0.070532  
      49Ap     0.071480    31App    0.071494    50Ap     0.082703  
      32App    0.082705    51Ap     0.091632    52Ap     0.137503  
      33App    0.137539    53Ap     0.162303    54Ap     0.166882  
      34App    0.166893    35App    0.213556    55Ap     0.213652  
      56Ap     0.219553    36App    0.241429    57Ap     0.241442  
      58Ap     0.272754    59Ap     0.288407    37App    0.288420  
      60Ap     0.306360    38App    0.308334    61Ap     0.372094  
      39App    0.372098    40App    0.376215    62Ap     0.376216  
      63Ap     0.398712    41App    0.398804    64Ap     0.404068  
      65Ap     0.420900    66Ap     0.452140    42App    0.452168  
      67Ap     0.463906    43App    0.464019    68Ap     0.474909  
      44App    0.481109    45App    0.516332    69Ap     0.516370  
      70Ap     0.573418    71Ap     0.595209    46App    0.595243  
      72Ap     0.633414    47App    0.866245    73Ap     0.870208  
      48App    0.870250    74Ap     0.890403    75Ap     0.996153  
      49App    0.996288    76Ap     1.025525    50App    1.025532  
      77Ap     1.226431    51App    1.278408    78Ap     1.278430  
      79Ap     1.315730    52App    1.316157    80Ap     1.316163  
      81Ap     1.320884    82Ap     1.330247    53App    1.330260  
      83Ap     1.334149    54App    1.344203    84Ap     1.346798  
      55App    1.346812    56App    1.357929    85Ap     1.357955  
      86Ap     1.359471    87Ap     1.367816    88Ap     1.372662  
      57App    1.372688    58App    1.373309    59App    1.397250  
      89Ap     1.397273    90Ap     1.399074    60App    1.399520  
      91Ap     1.402563    61App    1.402608    92Ap     1.404889  
      62App    1.404946    63App    1.417851    93Ap     1.425469  
      64App    1.425595    94Ap     1.443481    95Ap     1.448596  
      65App    1.451249    96Ap     1.451257    66App    1.526411  
      97Ap     1.526417    98Ap     1.533515    67App    1.553149  
      99Ap     1.553183   100Ap     1.629669    68App    1.633032  
     101Ap     1.633089    69App    1.654126   102Ap     1.713128  
      70App    1.713135   103Ap     1.831172   104Ap     1.852868  
      71App    1.852902    72App    1.874317    73App    1.894244  
     105Ap     1.894285   106Ap     1.917493    74App    1.917497  
     107Ap     1.948070   108Ap     1.950405    75App    1.950529  
     109Ap     1.958483    76App    1.958573   110Ap     1.960993  
      77App    1.971795   111Ap     1.983421    78App    1.983437  
     112Ap     2.082885   113Ap     2.084812    79App    2.084820  
     114Ap     2.211076    80App    2.351243   115Ap     2.351312  
     116Ap     2.385777   117Ap     2.447029   118Ap     2.548684  
     119Ap     2.550451   120Ap     2.575957    81App    2.576113  
      82App    2.726768   121Ap     2.726955   122Ap     2.846130  
      83App    3.023763   123Ap     3.062810    84App    3.062838  
     124Ap     3.148230    85App    3.148335    86App    3.285911  
     125Ap     3.285948    87App    3.293549   126Ap     3.616282  
     127Ap     3.670126    88App    3.670545   128Ap     3.746683  
      89App    3.746817   129Ap     3.767920    90App    3.917416  
     130Ap     3.917665    91App    4.137032    92App    4.200228  
     131Ap     4.200419   132Ap     4.295548   133Ap     4.463903  
     134Ap     4.503670    93App    4.503705   135Ap     4.522785  
     136Ap     4.524527    94App    4.524562   137Ap     4.538249  
      95App    4.543242   138Ap     4.543358    96App    4.543381  
     139Ap     4.548424    97App    4.554109   140Ap     4.562636  
      98App    4.562659   141Ap     4.581898    99App    4.581931  
     100App    4.584519   142Ap     4.596106   101App    4.597207  
     143Ap     4.597218   102App    4.612819   144Ap     4.612846  
     145Ap     4.639769   103App    4.639772   146Ap     4.650754  
     147Ap     4.733014   104App    4.733079   105App    4.737867  
     148Ap     4.737980   149Ap     4.754637   106App    4.754697  
     107App    4.925132   150Ap     4.925302   151Ap     4.961106  
     152Ap     5.179252   108App    5.307068   153Ap     5.307605  
     154Ap     5.307657   109App    5.307822   155Ap     5.308118  
     110App    5.308130   111App    5.308223   156Ap     5.308315  
     112App    5.308470   157Ap     5.308489   113App    5.308584  
     114App    5.308802   158Ap     5.309281   115App    5.309420  
     159Ap     5.309587   116App    5.310342   160Ap     5.310416  
     161Ap     5.310597   117App    5.310745   118App    5.311207  
     162Ap     5.311384   163Ap     5.312775   119App    5.312859  
     120App    5.315536   164Ap     5.315710   165Ap     5.316136  
     121App    5.317387   166Ap     5.317409   122App    5.317727  
     167Ap     5.317812   123App    5.318253   168Ap     5.318295  
     169Ap     5.321581   170Ap     5.330007   171Ap     5.331155  
     124App    5.331225   125App    5.490006   172Ap     5.579163  
     126App    5.579250   173Ap     5.668779   127App    5.669004  
     174Ap     6.072859   128App    6.313194   175Ap     6.313399  
     176Ap    32.242934   177Ap    33.103215   178Ap    33.405728  
     179Ap    33.472938   129App   33.472952   180Ap   110.200655  
     181Ap   110.301572   182Ap   110.320073   130App  110.320080  

    Final Occupation by Irrep:
             Ap   App 
    DOCC [    26,   16 ]

  @DF-RKS Final Energy:  -643.46469182715452

   => Energetics <=

    Nuclear Repulsion Energy =            537.0150910960845749
    One-Electron Energy =               -2164.9335110931315285
    Two-Electron Energy =                1015.8488247659204262
    DFT Exchange-Correlation Energy =     -31.3890822660281792
    Empirical Dispersion Energy =          -0.0060143300000000
    VV10 Nonlocal Energy =                  0.0000000000000000
    Total Energy =                       -643.4646918271545246

Computation Completed


Properties will be evaluated at   0.000000,   0.000000,   0.000000 [a0]

Properties computed using the SCF density matrix

  Nuclear Dipole Moment: [e a0]
     X:     0.0000      Y:    43.1818      Z:    -0.0000

  Electronic Dipole Moment: [e a0]
     X:     0.0001      Y:   -41.6651      Z:     0.0000

  Dipole Moment: [e a0]
     X:     0.0001      Y:     1.5167      Z:    -0.0000     Total:     1.5167

  Dipole Moment: [D]
     X:     0.0002      Y:     3.8550      Z:    -0.0000     Total:     3.8550


*** tstop() called on compute405.bc4.acrc.priv at Tue Nov  2 11:06:16 2021
Module time:
	user time   =     313.79 seconds =       5.23 minutes
	system time =      12.29 seconds =       0.20 minutes
	total time  =         25 seconds =       0.42 minutes
Total time:
	user time   =     313.79 seconds =       5.23 minutes
	system time =      12.29 seconds =       0.20 minutes
	total time  =         25 seconds =       0.42 minutes

    Psi4 stopped on: Tuesday, 02 November 2021 11:06AM
    Psi4 wall time for execution: 0:00:24.72

*** Psi4 exiting successfully. Buy a developer a beer!
