Failed to converge: 
Failed to converge: 
Failed to converge: 
Failed to converge: 
Failed to converge: 
Failed to converge: 
Failed to converge: 
Failed to converge: 
Failed to converge: 
Failed to converge: 
Failed to converge: 
Failed to converge: 
Failed to converge: 
Failed to converge: 
Failed to converge: 
Failed to converge: 
Failed to converge: 
Failed to converge: 
Failed to converge: 
Failed to converge: 
Failed to converge: 
Failed to converge: 
Failed to converge: 
Failed to converge: 
Failed to converge: 
Failed to converge: 
Failed to converge: 
Failed to converge: 
Failed to converge: 
Failed to converge: 
Failed to converge: 
Failed to converge: 
Failed to converge: 
Failed to converge: 
Failed to converge: 
Failed to converge: 
Failed to converge: 
Failed to converge: 
Failed to converge: 
Failed to converge: 
Failed to converge: 
Failed to converge: 
Failed to converge: 
Failed to converge: 
Failed to converge: 
Failed to converge: 
-----------------------------------------------------------------


    Psi4 started on: Thursday, 28 October 2021 03:26PM

    Process ID: 198110
    Host:       bp1-compute00024.data.bp.acrc.priv
    PSIDATADIR: /work/zw18965/.conda/envs/p4env/share/psi4
    Memory:     500.0 MiB
    Threads:    24
    
  ==> Input File <==

--------------------------------------------------------------------------
memory 144 GB

molecule {
0 1
Au       0.000000    0.000000    0.196853 
F        0.000000    0.000000   -1.727931 
 }

set basis Def2-TZVPPD

energy("M11-D3BJ")
--------------------------------------------------------------------------

  Memory set to 134.110 GiB by Python driver.

*** tstart() called on bp1-compute00024.data.bp.acrc.priv
*** at Thu Oct 28 15:26:43 2021

   => Loading Basis Set <=

    Name: DEF2-TZVPPD
    Role: ORBITAL
    Keyword: BASIS
    atoms 1 entry AU         line  2995 (ECP: line  4084) file /work/zw18965/.conda/envs/p4env/share/psi4/basis/def2-tzvppd.gbs 
    atoms 2 entry F          line   257 file /work/zw18965/.conda/envs/p4env/share/psi4/basis/def2-tzvppd.gbs 

    !!!  WARNING: ECP capability is in beta. Please check occupations closely.  !!!


         ---------------------------------------------------------
                                   SCF
               by Justin Turney, Rob Parrish, Andy Simmonett
                          and Daniel G. A. Smith
                              RKS Reference
                       24 Threads, 137329 MiB Core
         ---------------------------------------------------------

  ==> Geometry <==

    Molecular point group: c2v
    Full point group: C_inf_v

    Geometry (in Angstrom), charge = 0, multiplicity = 1:

       Center              X                  Y                   Z               Mass       
    ------------   -----------------  -----------------  -----------------  -----------------
         AU           0.000000000000     0.000000000000     0.169322932800   196.966568790000
         F            0.000000000000     0.000000000000    -1.755461067200    18.998403162730

  Running in c2v symmetry.

  Rotational constants: A = ************  B =      0.26261  C =      0.26261 [cm^-1]
  Rotational constants: A = ************  B =   7872.75793  C =   7872.75793 [MHz]
  Nuclear repulsion =   47.012705334505057

  Charge       = 0
  Multiplicity = 1
  Electrons    = 28
  Nalpha       = 14
  Nbeta        = 14

  ==> Algorithm <==

  SCF Algorithm Type is DF.
  DIIS enabled.
  MOM disabled.
  Fractional occupation disabled.
  Guess Type is SAD.
  Energy threshold   = 1.00e-06
  Density threshold  = 1.00e-06
  Integral threshold = 0.00e+00

  ==> Primary Basis <==

  Basis Set: DEF2-TZVPPD
    Blend: DEF2-TZVPPD
    Number of shells: 31
    Number of basis function: 99
    Number of Cartesian functions: 120
    Spherical Harmonics?: true
    Max angular momentum: 4

  Core potential: DEF2-TZVPPD
    Number of shells: 4
    Number of ECP primitives: 14
    Number of ECP core electrons: 60
    Max angular momentum: 3

  ==> DFT Potential <==

   => Composite Functional: M11-D3BJ <= 

    M11 Meta-GGA XC Functional

    R. Peverati and D. G. Truhlar, J. Phys. Chem. Lett., 2, 2810, 2011


    Deriv               =              1
    GGA                 =           TRUE
    Meta                =           TRUE

    Exchange Hybrid     =           TRUE
    MP2 Hybrid          =          FALSE

   => Exchange Functionals <=

    1.0000   XC_HYB_MGGA_X_M11 [omega = 0.2500]

   => Exact (HF) Exchange <=

    0.5720            HF,LR [omega = 0.2500]
    0.4280               HF 

   => Correlation Functionals <=

    1.0000    XC_MGGA_C_M11

   => Molecular Quadrature <=

    Radial Scheme          =       TREUTLER
    Pruning Scheme         =           FLAT
    Nuclear Scheme         =       TREUTLER

    BS radius alpha        =              1
    Pruning alpha          =              1
    Radial Points          =             75
    Spherical Points       =            302
    Total Points           =          44769
    Total Blocks           =            427
    Max Points             =            256
    Max Functions          =             98

   => M11-D3(BJ): Empirical Dispersion <=

    Grimme's -D3 (BJ-damping) Dispersion Correction
    Grimme S.; Ehrlich S.; Goerigk L. (2011), J. Comput. Chem., 32: 1456
    Parametrisation from:    L. Goerigk, J. Phys. Chem. Lett. 6, 3891-3896, 2015

        s6 =       1.000000
        s8 =       2.811200
        a1 =       0.000000
        a2 =      10.138900

   => Loading Basis Set <=

    Name: (DEF2-TZVPPD AUX)
    Role: JKFIT
    Keyword: DF_BASIS_SCF
    atoms 1 entry AU         line  6149 file /work/zw18965/.conda/envs/p4env/share/psi4/basis/def2-tzvpp-jkfit.gbs 
    atoms 2 entry F          line   383 file /work/zw18965/.conda/envs/p4env/share/psi4/basis/def2-tzvpp-jkfit.gbs 

  ==> Pre-Iterations <==

   -------------------------------------------------------
    Irrep   Nso     Nmo     Nalpha   Nbeta   Ndocc  Nsocc
   -------------------------------------------------------
     A1        42      42       0       0       0       0
     A2        11      11       0       0       0       0
     B1        23      23       0       0       0       0
     B2        23      23       0       0       0       0
   -------------------------------------------------------
    Total      99      99      14      14      14       0
   -------------------------------------------------------

  ==> Integral Setup <==

  ==> DiskDFJK: Density-Fitted J/K Matrices <==

    J tasked:                  Yes
    K tasked:                  Yes
    wK tasked:                 Yes
    Omega:               2.500E-01
    OpenMP threads:             24
    Integrals threads:          24
    Memory [MiB]:           102713
    Algorithm:                Core
    Integral Cache:           NONE
    Schwarz Cutoff:          1E-12
    Fitting Condition:       1E-10

   => Auxiliary Basis Set <=

  Basis Set: (DEF2-TZVPPD AUX)
    Blend: DEF2-TZVPP-JKFIT
    Number of shells: 76
    Number of basis function: 324
    Number of Cartesian functions: 458
    Spherical Harmonics?: true
    Max angular momentum: 6

  Cached 100.0% of DFT collocation blocks in 0.277 [GiB].

  Minimum eigenvalue in the overlap matrix is 3.0912702842E-03.
  Using Symmetric Orthogonalization.

  SCF Guess: Superposition of Atomic Densities via on-the-fly atomic UHF.

  ==> Iterations <==

                           Total Energy        Delta E     RMS |[F,P]|

   @DF-RKS iter SAD:  -234.81504475388817   -2.34815e+02   0.00000e+00 
   @DF-RKS iter   1:  -235.26599057418824   -4.50946e-01   1.16634e-02 DIIS
   @DF-RKS iter   2:  -234.98034411011025    2.85646e-01   2.24765e-02 DIIS
   @DF-RKS iter   3:  -235.42752345431555   -4.47179e-01   1.43089e-03 DIIS
   @DF-RKS iter   4:  -235.43171727130027   -4.19382e-03   8.36650e-04 DIIS
   @DF-RKS iter   5:  -235.43392840300754   -2.21113e-03   4.50340e-04 DIIS
   @DF-RKS iter   6:  -235.43532718153372   -1.39878e-03   1.80473e-04 DIIS
   @DF-RKS iter   7:  -235.43574291379022   -4.15732e-04   8.69958e-05 DIIS
   @DF-RKS iter   8:  -235.43578431086320   -4.13971e-05   2.79266e-05 DIIS
   @DF-RKS iter   9:  -235.43579056521963   -6.25436e-06   5.31100e-06 DIIS
   @DF-RKS iter  10:  -235.43579067241529   -1.07196e-07   5.12575e-07 DIIS
  Energy and wave function converged.


  ==> Post-Iterations <==

    Orbital Energies [Eh]
    ---------------------

    Doubly Occupied:                                                      

       1A1   -24.952116     2A1    -4.336733     3A1    -2.517197  
       1B2    -2.492890     1B1    -2.492890     4A1    -1.209682  
       5A1    -0.556815     2B2    -0.522968     2B1    -0.522968  
       6A1    -0.455496     1A2    -0.455479     3B2    -0.424461  
       3B1    -0.424461     7A1    -0.407329  

    Virtual:                                                              

       8A1    -0.069842     4B2     0.028579     4B1     0.028580  
       9A1     0.043113    10A1     0.092444     5B2     0.148009  
       5B1     0.148010    11A1     0.181466     6B1     0.230832  
       6B2     0.230832    12A1     0.296782    13A1     0.367646  
       2A2     0.367651    14A1     0.372560     7B2     0.418160  
       7B1     0.418160    15A1     0.485208     3A2     0.611312  
      16A1     0.611358    17A1     0.716344     8B2     0.730072  
       8B1     0.730073     9B2     0.870971     9B1     0.870971  
      18A1     1.053923    10B2     1.096148    10B1     1.096148  
      19A1     1.129451    11B2     1.199484    11B1     1.199484  
      20A1     1.231704     4A2     1.231716    21A1     1.326343  
      22A1     1.384455    12B2     1.388052    12B1     1.388052  
      23A1     1.560395     5A2     1.560417    13B2     1.619029  
      13B1     1.619029    24A1     1.764616    25A1     2.276855  
      26A1     2.403979     6A2     2.404340    14B2     2.473081  
      14B1     2.473081    27A1     2.890686    15B2     3.412802  
      15B1     3.412802    28A1     3.579233    16B2     3.659362  
      16B1     3.659362    29A1     3.677048     7A2     3.677079  
      17B2     3.800782    17B1     3.800782    30A1     3.933408  
      31A1     4.057268    32A1     4.186734     8A2     4.186743  
      18B2     4.194789    18B1     4.194789     9A2     4.204835  
      33A1     4.204964    19B2     4.230451    19B1     4.230451  
      34A1     4.804829    10A2     6.905997    35A1     6.906871  
      20B1     6.915405    20B2     6.915405    21B2     6.989515  
      21B1     6.989515    36A1     7.117716    37A1     8.425059  
      11A2     8.425636    22B1     8.501611    22B2     8.501611  
      38A1     8.832654    23B2    27.229585    23B1    27.229586  
      39A1    30.194951    40A1    43.971101    41A1    56.699251  
      42A1   204.901430  

    Final Occupation by Irrep:
             A1    A2    B1    B2 
    DOCC [     7,    1,    3,    3 ]

  @DF-RKS Final Energy:  -235.43579067241529

   => Energetics <=

    Nuclear Repulsion Energy =             47.0127053345050570
    One-Electron Energy =                -472.1683884779756681
    Two-Electron Energy =                 201.3347488720159788
    DFT Exchange-Correlation Energy =     -11.6147723509607044
    Empirical Dispersion Energy =          -0.0000840500000000
    VV10 Nonlocal Energy =                  0.0000000000000000
    Total Energy =                       -235.4357906724152940

Computation Completed


Properties will be evaluated at   0.000000,   0.000000,   0.000000 [a0]

Properties computed using the SCF density matrix

  Nuclear Dipole Moment: [e a0]
     X:     0.0000      Y:     0.0000      Z:   -23.7766

  Electronic Dipole Moment: [e a0]
     X:     0.0000      Y:     0.0000      Z:    25.6490

  Dipole Moment: [e a0]
     X:     0.0000      Y:     0.0000      Z:     1.8724     Total:     1.8724

  Dipole Moment: [D]
     X:     0.0000      Y:     0.0000      Z:     4.7592     Total:     4.7592


*** tstop() called on bp1-compute00024.data.bp.acrc.priv at Thu Oct 28 15:26:49 2021
Module time:
	user time   =      80.68 seconds =       1.34 minutes
	system time =       2.52 seconds =       0.04 minutes
	total time  =          6 seconds =       0.10 minutes
Total time:
	user time   =      80.68 seconds =       1.34 minutes
	system time =       2.52 seconds =       0.04 minutes
	total time  =          6 seconds =       0.10 minutes

    Psi4 stopped on: Thursday, 28 October 2021 03:26PM
    Psi4 wall time for execution: 0:00:05.95

*** Psi4 exiting successfully. Buy a developer a beer!
