
    -----------------------------------------------------------------------
          Psi4: An Open-Source Ab Initio Electronic Structure Package
                               Psi4 1.4.1 release

                         Git: Rev {HEAD} cd00f19 


    D. G. A. Smith, L. A. Burns, A. C. Simmonett, R. M. Parrish,
    M. C. Schieber, R. Galvelis, P. Kraus, H. Kruse, R. Di Remigio,
    A. Alenaizan, A. M. James, S. Lehtola, J. P. Misiewicz, M. Scheurer,
    R. A. Shaw, J. B. Schriber, Y. Xie, Z. L. Glick, D. A. Sirianni,
    J. S. O'Brien, J. M. Waldrop, A. Kumar, E. G. Hohenstein,
    B. P. Pritchard, B. R. Brooks, H. F. Schaefer III, A. Yu. Sokolov,
    K. Patkowski, A. E. DePrince III, U. Bozkaya, R. A. King,
    F. A. Evangelista, J. M. Turney, T. D. Crawford, C. D. Sherrill,
    J. Chem. Phys. 152(18) 184108 (2020). https://doi.org/10.1063/5.0006002

                            Additional Code Authors
    E. T. Seidl, C. L. Janssen, E. F. Valeev, M. L. Leininger,
    J. F. Gonthier, R. M. Richard, H. R. McAlexander, M. Saitow, X. Wang,
    P. Verma, and M. H. Lechner

             Previous Authors, Complete List of Code Contributors,
                       and Citations for Specific Modules
    https://github.com/psi4/psi4/blob/master/codemeta.json
    https://github.com/psi4/psi4/graphs/contributors
    http://psicode.org/psi4manual/master/introduction.html#citing-psifour

    -----------------------------------------------------------------------


    Psi4 started on: Friday, 05 November 2021 04:12AM

    Process ID: 24570
    Host:       compute087.bc4.acrc.priv
    PSIDATADIR: /mnt/storage/home/zw18965/.conda/envs/p4env/share/psi4
    Memory:     500.0 MiB
    Threads:    28
    
  ==> Input File <==

--------------------------------------------------------------------------
memory 120 GB

molecule {
2 1
Au       0.000000    1.548281   -0.453246 
Au       1.340851   -0.774141   -0.453246 
Au      -1.340851   -0.774141   -0.453246 
Au       0.000000    0.000000    1.783664 
N        0.000000    0.000000   -3.226055 
H       -0.813891    0.469900   -3.635956 
H        0.813891    0.469900   -3.635956 
H       -0.000000   -0.939800   -3.635956 
 }

set basis Def2-TZVPPD

energy("M11-D3BJ")
--------------------------------------------------------------------------

  Memory set to 111.759 GiB by Python driver.

Scratch directory: /tmp/

*** tstart() called on compute087.bc4.acrc.priv
*** at Fri Nov  5 04:12:20 2021

   => Loading Basis Set <=

    Name: DEF2-TZVPPD
    Role: ORBITAL
    Keyword: BASIS
    atoms 1-4 entry AU         line  2995 (ECP: line  4084) file /mnt/storage/home/zw18965/.conda/envs/p4env/share/psi4/basis/def2-tzvppd.gbs 
    atoms 5   entry N          line   181 file /mnt/storage/home/zw18965/.conda/envs/p4env/share/psi4/basis/def2-tzvppd.gbs 
    atoms 6-8 entry H          line    14 file /mnt/storage/home/zw18965/.conda/envs/p4env/share/psi4/basis/def2-tzvppd.gbs 

    !!!  WARNING: ECP capability is in beta. Please check occupations closely.  !!!

   => M11-D3(BJ): Empirical Dispersion <=

    Grimme's -D3 (BJ-damping) Dispersion Correction
    Grimme S.; Ehrlich S.; Goerigk L. (2011), J. Comput. Chem., 32: 1456
    Parametrisation from:    L. Goerigk, J. Phys. Chem. Lett. 6, 3891-3896, 2015

        s6 =       1.000000
        s8 =       2.811200
        a1 =       0.000000
        a2 =      10.138900


         ---------------------------------------------------------
                                   SCF
               by Justin Turney, Rob Parrish, Andy Simmonett
                          and Daniel G. A. Smith
                              RKS Reference
                       28 Threads, 114440 MiB Core
         ---------------------------------------------------------

  ==> Geometry <==

    Molecular point group: cs
    Full point group: Cs

    Geometry (in Angstrom), charge = 2, multiplicity = 1:

       Center              X                  Y                   Z               Mass       
    ------------   -----------------  -----------------  -----------------  -----------------
         AU          -1.548281244712     0.487202496432     0.000000000000   196.966568790000
         AU           0.774140755288     0.487202496432     1.340851000000   196.966568790000
         AU           0.774140755288     0.487202496432    -1.340851000000   196.966568790000
         AU          -0.000000244712    -1.749707503568     0.000000000000   196.966568790000
         N           -0.000000244712     3.260011496432     0.000000000000    14.003074004430
         H           -0.469900244712     3.669912496432    -0.813891000000     1.007825032230
         H           -0.469900244712     3.669912496432     0.813891000000     1.007825032230
         H            0.939799755288     3.669912496432     0.000000000000     1.007825032230

  Running in cs symmetry.

  Rotational constants: A =      0.01188  B =      0.01026  C =      0.01026 [cm^-1]
  Rotational constants: A =    356.11124  B =    307.70961  C =    307.70960 [MHz]
  Nuclear repulsion =  547.114038071774644

  Charge       = 2
  Multiplicity = 1
  Electrons    = 84
  Nalpha       = 42
  Nbeta        = 42

  ==> Algorithm <==

  SCF Algorithm Type is DF.
  DIIS enabled.
  MOM disabled.
  Fractional occupation disabled.
  Guess Type is SAD.
  Energy threshold   = 1.00e-06
  Density threshold  = 1.00e-06
  Integral threshold = 1.00e-12

  ==> Primary Basis <==

  Basis Set: DEF2-TZVPPD
    Blend: DEF2-TZVPPD
    Number of shells: 102
    Number of basis functions: 324
    Number of Cartesian functions: 393
    Spherical Harmonics?: true
    Max angular momentum: 4

  Core potential: DEF2-TZVPPD
    Number of shells: 16
    Number of ECP primitives: 56
    Number of ECP core electrons: 240
    Max angular momentum: 3

  ==> DFT Potential <==

   => Composite Functional: M11-D3BJ <= 

    M11 Meta-GGA XC Functional
(10.1021/jz201170d)
    R. Peverati and D. G. Truhlar, J. Phys. Chem. Lett., 2, 2810, 2011


    Deriv               =              1
    GGA                 =           TRUE
    Meta                =           TRUE

    Exchange Hybrid     =           TRUE
    MP2 Hybrid          =          FALSE

   => Exchange Functionals <=

    1.0000   XC_HYB_MGGA_X_M11 [omega = 0.2500]

   => Exact (HF) Exchange <=

    0.5720            HF,LR [omega = 0.2500]
    0.4280               HF 

   => Correlation Functionals <=

    1.0000    XC_MGGA_C_M11

   => LibXC Density Thresholds  <==

    XC_MGGA_C_M11:  1.00E-15 
    XC_HYB_MGGA_X_M11:  1.00E-11 

   => Molecular Quadrature <=

    Radial Scheme          =       TREUTLER
    Pruning Scheme         =           NONE
    Nuclear Scheme         =       TREUTLER

    BS radius alpha        =              1
    Pruning alpha          =              1
    Radial Points          =             75
    Spherical Points       =            302
    Total Points           =         171371
    Total Blocks           =           1392
    Max Points             =            256
    Max Functions          =            314
    Weights Tolerance      =       1.00E-15

   => Loading Basis Set <=

    Name: (DEF2-TZVPPD AUX)
    Role: JKFIT
    Keyword: DF_BASIS_SCF
    atoms 1-4 entry AU         line  8426 file /mnt/storage/home/zw18965/.conda/envs/p4env/share/psi4/basis/def2-universal-jkfit.gbs 
    atoms 5   entry N          line   258 file /mnt/storage/home/zw18965/.conda/envs/p4env/share/psi4/basis/def2-universal-jkfit.gbs 
    atoms 6-8 entry H          line    18 file /mnt/storage/home/zw18965/.conda/envs/p4env/share/psi4/basis/def2-universal-jkfit.gbs 

  ==> Integral Setup <==

  DFHelper Memory: AOs need 1.718 GiB; user supplied 81.213 GiB. Using in-core AOs.

  ==> MemDFJK: Density-Fitted J/K Matrices <==

    J tasked:                   Yes
    K tasked:                   Yes
    wK tasked:                  Yes
    Omega:                2.500E-01
    OpenMP threads:              28
    Memory [MiB]:             83162
    Algorithm:                 Core
    Schwarz Cutoff:           1E-12
    Mask sparsity (%):       5.3974
    Fitting Condition:        1E-10

   => Auxiliary Basis Set <=

  Basis Set: (DEF2-TZVPPD AUX)
    Blend: DEF2-UNIVERSAL-JKFIT
    Number of shells: 247
    Number of basis functions: 1119
    Number of Cartesian functions: 1613
    Spherical Harmonics?: true
    Max angular momentum: 6

  Cached 100.0% of DFT collocation blocks in 2.606 [GiB].

  Minimum eigenvalue in the overlap matrix is 2.0604335840E-04.
  Reciprocal condition number of the overlap matrix is 2.4647332526E-05.
    Using symmetric orthogonalization.

  ==> Pre-Iterations <==

  SCF Guess: Superposition of Atomic Densities via on-the-fly atomic UHF (no occupation information).

   -------------------------
    Irrep   Nso     Nmo    
   -------------------------
     A'       189     189 
     A"       135     135 
   -------------------------
    Total     324     324
   -------------------------

  ==> Iterations <==

                           Total Energy        Delta E     RMS |[F,P]|

   @DF-RKS iter SAD:  -597.91738324581956   -5.97917e+02   0.00000e+00 
   @DF-RKS iter   1:  -598.13354220373481   -2.16159e-01   3.35424e-03 DIIS
   @DF-RKS iter   2:  -598.11424258671843    1.92996e-02   3.55892e-03 DIIS
   @DF-RKS iter   3:  -598.35854922619740   -2.44307e-01   2.81017e-04 DIIS
   @DF-RKS iter   4:  -598.36104481781513   -2.49559e-03   1.74136e-04 DIIS
   @DF-RKS iter   5:  -598.36193112647334   -8.86309e-04   4.74340e-05 DIIS
   @DF-RKS iter   6:  -598.36212352129849   -1.92395e-04   2.21899e-05 DIIS
   @DF-RKS iter   7:  -598.36215820752443   -3.46862e-05   8.74887e-06 DIIS
   @DF-RKS iter   8:  -598.36216651848599   -8.31096e-06   3.32519e-06 DIIS
   @DF-RKS iter   9:  -598.36216771586578   -1.19738e-06   2.18974e-06 DIIS
   @DF-RKS iter  10:  -598.36216819451170   -4.78646e-07   7.65260e-07 DIIS
  Energy and wave function converged.


  ==> Post-Iterations <==

   Electrons on quadrature grid:
      Ntotal   =   84.0000232619 ; deviation = 2.326e-05 

    Orbital Energies [Eh]
    ---------------------

    Doubly Occupied:                                                      

       1Ap   -14.884669     2Ap    -4.650759     3Ap    -4.650365  
       1App   -4.650362     4Ap    -4.646192     5Ap    -2.829996  
       6Ap    -2.822651     2App   -2.822648     7Ap    -2.819740  
       3App   -2.816016     8Ap    -2.816010     4App   -2.813461  
       9Ap    -2.813459    10Ap    -2.813405     5App   -2.813006  
       6App   -2.809501    11Ap    -2.809498    12Ap    -1.285263  
      13Ap    -0.891271    14Ap    -0.874463     7App   -0.874460  
      15Ap    -0.847422     8App   -0.844658    16Ap    -0.844658  
      17Ap    -0.827776     9App   -0.827775    18Ap    -0.806193  
      19Ap    -0.799898    10App   -0.799892    20Ap    -0.770371  
      11App   -0.764187    21Ap    -0.764186    12App   -0.763796  
      22Ap    -0.762672    13App   -0.762655    23Ap    -0.760319  
      14App   -0.760312    24Ap    -0.756069    25Ap    -0.723808  
      15App   -0.723807    16App   -0.723464    26Ap    -0.680761  

    Virtual:                                                              

      27Ap    -0.378295    17App   -0.378290    28Ap    -0.369062  
      29Ap    -0.263477    30Ap    -0.243910    18App   -0.243908  
      19App   -0.226845    31Ap    -0.226844    32Ap    -0.226370  
      33Ap    -0.190073    34Ap    -0.186794    20App   -0.186792  
      35Ap    -0.153561    36Ap    -0.150436    21App   -0.150435  
      22App   -0.149971    37Ap    -0.120755    23App   -0.120749  
      38Ap    -0.099093    39Ap    -0.079331    40Ap    -0.078626  
      24App   -0.078619    25App   -0.066148    41Ap    -0.066147  
      42Ap    -0.057247    43Ap    -0.052843    26App   -0.052825  
      44Ap    -0.008193    45Ap    -0.006793    27App   -0.006781  
      46Ap     0.010924    28App    0.025046    47Ap     0.025048  
      29App    0.053896    48Ap     0.057242    30App    0.057254  
      31App    0.061903    49Ap     0.061908    50Ap     0.075485  
      32App    0.083926    51Ap     0.083944    52Ap     0.106886  
      33App    0.106899    53Ap     0.121407    34App    0.121420  
      54Ap     0.137032    35App    0.169195    55Ap     0.169210  
      36App    0.189952    56Ap     0.194233    37App    0.212491  
      57Ap     0.212507    38App    0.218023    58Ap     0.218041  
      59Ap     0.242989    39App    0.242998    40App    0.257721  
      60Ap     0.257744    61Ap     0.260078    62Ap     0.273495  
      63Ap     0.295379    64Ap     0.295433    41App    0.295451  
      65Ap     0.313914    42App    0.313938    43App    0.318845  
      44App    0.327438    66Ap     0.327469    67Ap     0.331228  
      68Ap     0.416080    69Ap     0.476105    70Ap     0.483156  
      45App    0.483186    71Ap     0.563491    46App    0.563516  
      72Ap     0.592885    73Ap     0.645715    74Ap     0.688238  
      47App    0.688240    48App    0.700832    75Ap     0.700839  
      76Ap     0.707013    49App    0.764647    77Ap     0.764661  
      78Ap     0.768069    79Ap     0.790439    50App    0.790459  
      51App    0.822399    80Ap     0.839282    52App    0.865557  
      81Ap     0.876656    53App    0.882807    82Ap     0.882839  
      54App    0.906394    83Ap     0.906458    55App    0.933939  
      84Ap     0.933957    56App    0.934693    85Ap     0.935626  
      86Ap     0.951902    57App    0.951932    58App    0.962386  
      87Ap     0.985709    59App    0.985760    88Ap     1.020375  
      60App    1.030539    89Ap     1.030547    90Ap     1.041635  
      61App    1.041660    91Ap     1.066664    62App    1.079716  
      92Ap     1.084504    63App    1.084520    93Ap     1.104598  
      64App    1.104602    94Ap     1.132058    65App    1.164735  
      95Ap     1.164758    66App    1.192124    96Ap     1.192644  
      67App    1.197747    97Ap     1.197770    98Ap     1.231699  
      68App    1.231754    69App    1.249957    99Ap     1.249990  
     100Ap     1.267597    70App    1.267598   101Ap     1.270582  
     102Ap     1.316362    71App    1.319941   103Ap     1.319992  
      72App    1.341262   104Ap     1.357130    73App    1.366037  
     105Ap     1.366086   106Ap     1.399526    74App    1.399542  
     107Ap     1.423162   108Ap     1.442550    75App    1.442730  
     109Ap     1.501223   110Ap     1.518163    76App    1.518184  
     111Ap     1.595432    77App    1.629067   112Ap     1.629143  
      78App    1.757752   113Ap     1.757769    79App    1.769692  
     114Ap     1.981860   115Ap     2.280329    80App    2.352831  
     116Ap     2.352911   117Ap     2.378126   118Ap     2.510803  
     119Ap     2.548050    81App    2.560369   120Ap     2.560407  
      82App    2.735457   121Ap     2.735587   122Ap     2.858535  
      83App    3.025991    84App    3.069992   123Ap     3.070002  
     124Ap     3.124457    85App    3.124467   125Ap     3.198216  
     126Ap     3.220225    86App    3.223101   127Ap     3.223116  
      87App    3.283642   128Ap     3.284532    88App    3.284622  
      89App    3.318521    90App    3.347475   129Ap     3.347506  
     130Ap     3.366995    91App    3.368610   131Ap     3.368626  
     132Ap     3.406449    92App    3.406452    93App    3.421485  
     133Ap     3.448630   134Ap     3.529626    94App    3.529661  
     135Ap     3.530419    95App    3.534330   136Ap     3.541360  
      96App    3.541476    97App    3.559639   137Ap     3.559763  
     138Ap     3.614430   139Ap     3.632882    98App    3.632990  
     140Ap     3.642735   141Ap     3.702388    99App    3.702639  
     100App    3.724484   142Ap     3.735822   101App    3.735944  
     143Ap     3.768109   102App    3.768115   144Ap     3.798583  
     145Ap     3.860352   103App    3.860395   104App    3.867608  
     146Ap     3.867659   147Ap     3.867732   105App    3.869045  
     148Ap     3.869045   106App    3.871480   149Ap     3.871576  
     107App    3.871743   150Ap     3.872592   151Ap     3.875026  
     108App    3.878030   152Ap     3.878031   109App    3.879818  
     153Ap     3.883444   110App    3.883472   111App    3.884892  
     112App    3.885211   154Ap     3.885307   155Ap     3.886862  
     156Ap     3.901950   113App    3.901981   157Ap     3.907093  
     158Ap     3.907696   114App    3.907712   115App    3.908429  
     116App    3.914956   159Ap     3.914965   160Ap     3.925128  
     117App    3.937873   161Ap     3.937921   162Ap     3.985687  
     118App    4.002349   163Ap     4.002371   119App    4.098829  
     164Ap     4.098863   120App    4.111943   121App    4.127577  
     122App    4.227609   165Ap     4.227758   166Ap     4.294559  
     167Ap     4.460924   123App    4.622041   168Ap     4.622129  
     124App    4.942518   169Ap     4.942694   170Ap     4.975328  
     171Ap     5.206077   125App    5.539647   126App    5.564152  
     172Ap     5.564282   173Ap     5.667286   127App    5.667393  
     174Ap     6.106465   128App    6.303013   175Ap     6.303181  
     176Ap    27.303664   129App   27.303765   177Ap    27.493739  
     130App   27.493779   178Ap    28.109896   131App   28.441562  
     132App   28.986435   179Ap    28.986481   180Ap    29.301689  
     181Ap    29.535685   182Ap    29.642254   133App   29.642308  
     183Ap    32.269216   184Ap    43.667662   185Ap    44.149747  
     134App   44.198261   186Ap    44.198263   187Ap   204.589558  
     188Ap   204.805817   189Ap   204.824406   135App  204.824408  

    Final Occupation by Irrep:
             Ap   App 
    DOCC [    26,   16 ]

  @DF-RKS Final Energy:  -598.36216819451170

   => Energetics <=

    Nuclear Repulsion Energy =            547.1140380717746439
    One-Electron Energy =               -2093.9161009718418427
    Two-Electron Energy =                 977.0086656846530104
    DFT Exchange-Correlation Energy =     -28.5613007790977314
    Empirical Dispersion Energy =          -0.0074702000000000
    VV10 Nonlocal Energy =                  0.0000000000000000
    Total Energy =                       -598.3621681945116961

Computation Completed


Properties will be evaluated at   0.000000,   0.000000,   0.000000 [a0]

Properties computed using the SCF density matrix

  Nuclear Dipole Moment: [e a0]
     X:    -0.0000      Y:    53.5849      Z:     0.0000

  Electronic Dipole Moment: [e a0]
     X:    -0.0002      Y:   -51.9088      Z:     0.0000

  Dipole Moment: [e a0]
     X:    -0.0002      Y:     1.6762      Z:     0.0000     Total:     1.6762

  Dipole Moment: [D]
     X:    -0.0005      Y:     4.2604      Z:     0.0000     Total:     4.2604


*** tstop() called on compute087.bc4.acrc.priv at Fri Nov  5 04:12:47 2021
Module time:
	user time   =     348.54 seconds =       5.81 minutes
	system time =      15.78 seconds =       0.26 minutes
	total time  =         27 seconds =       0.45 minutes
Total time:
	user time   =     348.54 seconds =       5.81 minutes
	system time =      15.78 seconds =       0.26 minutes
	total time  =         27 seconds =       0.45 minutes

    Psi4 stopped on: Friday, 05 November 2021 04:12AM
    Psi4 wall time for execution: 0:00:27.49

*** Psi4 exiting successfully. Buy a developer a beer!
