
    -----------------------------------------------------------------------
          Psi4: An Open-Source Ab Initio Electronic Structure Package
                               Psi4 1.3.2 release

                         Git: Rev {HEAD} ecbda83 


    R. M. Parrish, L. A. Burns, D. G. A. Smith, A. C. Simmonett,
    A. E. DePrince III, E. G. Hohenstein, U. Bozkaya, A. Yu. Sokolov,
    R. Di Remigio, R. M. Richard, J. F. Gonthier, A. M. James,
    H. R. McAlexander, A. Kumar, M. Saitow, X. Wang, B. P. Pritchard,
    P. Verma, H. F. Schaefer III, K. Patkowski, R. A. King, E. F. Valeev,
    F. A. Evangelista, J. M. Turney, T. D. Crawford, and C. D. Sherrill,
    J. Chem. Theory Comput. 13(7) pp 3185--3197 (2017).
    (doi: 10.1021/acs.jctc.7b00174)


                         Additional Contributions by
    P. Kraus, H. Kruse, M. H. Lechner, M. C. Schieber, R. A. Shaw,
    A. Alenaizan, R. Galvelis, Z. L. Glick, S. Lehtola, and J. P. Misiewicz

    -----------------------------------------------------------------------


    Psi4 started on: Thursday, 28 October 2021 03:27PM

    Process ID: 198808
    Host:       bp1-compute00024.data.bp.acrc.priv
    PSIDATADIR: /work/zw18965/.conda/envs/p4env/share/psi4
    Memory:     500.0 MiB
    Threads:    24
    
  ==> Input File <==

--------------------------------------------------------------------------
memory 144 GB

molecule {
0 1
Cu       0.000000    0.000000    1.107490 
Cu       0.000000    0.000000   -1.107490 
 }

set basis Def2-TZVPPD

energy("M11-D3BJ")
--------------------------------------------------------------------------

  Memory set to 134.110 GiB by Python driver.

*** tstart() called on bp1-compute00024.data.bp.acrc.priv
*** at Thu Oct 28 15:27:30 2021

   => Loading Basis Set <=

    Name: DEF2-TZVPPD
    Role: ORBITAL
    Keyword: BASIS
    atoms 1-2 entry CU         line  1290 file /work/zw18965/.conda/envs/p4env/share/psi4/basis/def2-tzvppd.gbs 


         ---------------------------------------------------------
                                   SCF
               by Justin Turney, Rob Parrish, Andy Simmonett
                          and Daniel G. A. Smith
                              RKS Reference
                       24 Threads, 137329 MiB Core
         ---------------------------------------------------------

  ==> Geometry <==

    Molecular point group: d2h
    Full point group: D_inf_h

    Geometry (in Angstrom), charge = 0, multiplicity = 1:

       Center              X                  Y                   Z               Mass       
    ------------   -----------------  -----------------  -----------------  -----------------
         CU           0.000000000000     0.000000000000     1.107490000000    62.929597720000
         CU           0.000000000000     0.000000000000    -1.107490000000    62.929597720000

  Running in d2h symmetry.

  Rotational constants: A = ************  B =      0.10920  C =      0.10920 [cm^-1]
  Rotational constants: A = ************  B =   3273.80359  C =   3273.80359 [MHz]
  Nuclear repulsion =  200.921919915064706

  Charge       = 0
  Multiplicity = 1
  Electrons    = 58
  Nalpha       = 29
  Nbeta        = 29

  ==> Algorithm <==

  SCF Algorithm Type is DF.
  DIIS enabled.
  MOM disabled.
  Fractional occupation disabled.
  Guess Type is SAD.
  Energy threshold   = 1.00e-06
  Density threshold  = 1.00e-06
  Integral threshold = 0.00e+00

  ==> Primary Basis <==

  Basis Set: DEF2-TZVPPD
    Blend: DEF2-TZVPPD
    Number of shells: 38
    Number of basis function: 134
    Number of Cartesian functions: 166
    Spherical Harmonics?: true
    Max angular momentum: 4

  ==> DFT Potential <==

   => Composite Functional: M11-D3BJ <= 

    M11 Meta-GGA XC Functional

    R. Peverati and D. G. Truhlar, J. Phys. Chem. Lett., 2, 2810, 2011


    Deriv               =              1
    GGA                 =           TRUE
    Meta                =           TRUE

    Exchange Hybrid     =           TRUE
    MP2 Hybrid          =          FALSE

   => Exchange Functionals <=

    1.0000   XC_HYB_MGGA_X_M11 [omega = 0.2500]

   => Exact (HF) Exchange <=

    0.5720            HF,LR [omega = 0.2500]
    0.4280               HF 

   => Correlation Functionals <=

    1.0000    XC_MGGA_C_M11

   => Molecular Quadrature <=

    Radial Scheme          =       TREUTLER
    Pruning Scheme         =           FLAT
    Nuclear Scheme         =       TREUTLER

    BS radius alpha        =              1
    Pruning alpha          =              1
    Radial Points          =             75
    Spherical Points       =            302
    Total Points           =          45300
    Total Blocks           =            426
    Max Points             =            256
    Max Functions          =            129

   => M11-D3(BJ): Empirical Dispersion <=

    Grimme's -D3 (BJ-damping) Dispersion Correction
    Grimme S.; Ehrlich S.; Goerigk L. (2011), J. Comput. Chem., 32: 1456
    Parametrisation from:    L. Goerigk, J. Phys. Chem. Lett. 6, 3891-3896, 2015

        s6 =       1.000000
        s8 =       2.811200
        a1 =       0.000000
        a2 =      10.138900

   => Loading Basis Set <=

    Name: (DEF2-TZVPPD AUX)
    Role: JKFIT
    Keyword: DF_BASIS_SCF
    atoms 1-2 entry CU         line  2361 file /work/zw18965/.conda/envs/p4env/share/psi4/basis/def2-tzvpp-jkfit.gbs 

  ==> Pre-Iterations <==

   -------------------------------------------------------
    Irrep   Nso     Nmo     Nalpha   Nbeta   Ndocc  Nsocc
   -------------------------------------------------------
     Ag        27      27       0       0       0       0
     B1g        8       8       0       0       0       0
     B2g       16      16       0       0       0       0
     B3g       16      16       0       0       0       0
     Au         8       8       0       0       0       0
     B1u       27      27       0       0       0       0
     B2u       16      16       0       0       0       0
     B3u       16      16       0       0       0       0
   -------------------------------------------------------
    Total     134     134      29      29      29       0
   -------------------------------------------------------

  ==> Integral Setup <==

  ==> DiskDFJK: Density-Fitted J/K Matrices <==

    J tasked:                  Yes
    K tasked:                  Yes
    wK tasked:                 Yes
    Omega:               2.500E-01
    OpenMP threads:             24
    Integrals threads:          24
    Memory [MiB]:           102675
    Algorithm:                Core
    Integral Cache:           NONE
    Schwarz Cutoff:          1E-12
    Fitting Condition:       1E-10

   => Auxiliary Basis Set <=

  Basis Set: (DEF2-TZVPPD AUX)
    Blend: DEF2-TZVPP-JKFIT
    Number of shells: 116
    Number of basis function: 528
    Number of Cartesian functions: 754
    Spherical Harmonics?: true
    Max angular momentum: 6

  Cached 100.0% of DFT collocation blocks in 0.314 [GiB].

  Minimum eigenvalue in the overlap matrix is 7.7263331766E-04.
  Using Symmetric Orthogonalization.

  SCF Guess: Superposition of Atomic Densities via on-the-fly atomic UHF.

  ==> Iterations <==

                           Total Energy        Delta E     RMS |[F,P]|

   @DF-RKS iter SAD: -3275.09464696009172   -3.27509e+03   0.00000e+00 
    Occupation by irrep:
             Ag   B1g   B2g   B3g    Au   B1u   B2u   B3u 
    DOCC [     9,    1,    3,    3,    0,    7,    3,    3 ]

   @DF-RKS iter   1: -3275.35285066384722   -2.58204e-01   1.12010e-01 DIIS
    Occupation by irrep:
             Ag   B1g   B2g   B3g    Au   B1u   B2u   B3u 
    DOCC [     8,    1,    3,    3,    1,    7,    3,    3 ]

   @DF-RKS iter   2: -3192.93460659699804    8.24182e+01   2.37273e-01 DIIS
   @DF-RKS iter   3: -3278.13444706421478   -8.51998e+01   6.95807e-02 DIIS
   @DF-RKS iter   4: -3280.01976809899725   -1.88532e+00   3.63077e-02 DIIS
   @DF-RKS iter   5: -3280.62116643507670   -6.01398e-01   9.03552e-03 DIIS
   @DF-RKS iter   6: -3280.65782807594815   -3.66616e-02   1.23701e-03 DIIS
   @DF-RKS iter   7: -3280.65903283367879   -1.20476e-03   2.00081e-04 DIIS
   @DF-RKS iter   8: -3280.65921477256006   -1.81939e-04   1.10706e-04 DIIS
   @DF-RKS iter   9: -3280.65927380236189   -5.90298e-05   3.07698e-05 DIIS
   @DF-RKS iter  10: -3280.65928497947152   -1.11771e-05   2.36193e-05 DIIS
   @DF-RKS iter  11: -3280.65928654663912   -1.56717e-06   3.89424e-06 DIIS
   @DF-RKS iter  12: -3280.65928668069955   -1.34060e-07   1.25330e-06 DIIS
   @DF-RKS iter  13: -3280.65928668678725   -6.08770e-09   1.83395e-07 DIIS
  Energy and wave function converged.


  ==> Post-Iterations <==

    Orbital Energies [Eh]
    ---------------------

    Doubly Occupied:                                                      

       1B1u -323.898669     1Ag  -323.898661     2B1u  -39.026680  
       2Ag   -39.026604     3B1u  -34.291426     3Ag   -34.291416  
       1B3g  -34.290898     1B2g  -34.290898     1B2u  -34.290890  
       1B3u  -34.290890     4Ag    -4.382255     4B1u   -4.381497  
       5Ag    -2.907102     2B3u   -2.901188     2B2u   -2.901188  
       5B1u   -2.900630     2B2g   -2.900613     2B3g   -2.900613  
       6Ag    -0.409535     3B3u   -0.398138     3B2u   -0.398138  
       7Ag    -0.379990     1B1g   -0.379974     6B1u   -0.371677  
       1Au    -0.371663     3B2g   -0.357704     3B3g   -0.357704  
       7B1u   -0.353801     8Ag    -0.262420  

    Virtual:                                                              

       8B1u   -0.011092     4B2u    0.030019     4B3u    0.030019  
       9Ag     0.030327     4B2g    0.056757     4B3g    0.056757  
       9B1u    0.057073    10Ag     0.149134     5B2u    0.156125  
       5B3u    0.156125    11Ag     0.179762    10B1u    0.209928  
       5B2g    0.228188     5B3g    0.228188    12Ag     0.232785  
       2B1g    0.232785    11B1u    0.270150     6B3u    0.280332  
       6B2u    0.280332    12B1u    0.289330     2Au     0.289331  
      13Ag     0.356751     6B3g    0.374770     6B2g    0.374770  
      13B1u    0.575507    14Ag     0.727338     7B2u    0.745237  
       7B3u    0.745237     7B3g    0.816016     7B2g    0.816016  
      14B1u    0.870763     8B3u    0.941535     8B2u    0.941535  
      15Ag     0.970987     3B1g    0.971009    15B1u    1.054390  
       3Au     1.054398    16Ag     1.089614     8B2g    1.211024  
       8B3g    1.211024    16B1u    1.431281    17Ag     3.077909  
       9B3u    3.091532     9B2u    3.091532    17B1u    3.173228  
       9B2g    3.177259     9B3g    3.177259    18Ag     3.249571  
      18B1u    3.527835    10B3u    3.553823    10B2u    3.553823  
      19Ag     3.568991    20Ag     3.580569     4B1g    3.580624  
      11B3u    3.592756    11B2u    3.592756    10B2g    3.593374  
      10B3g    3.593374    19B1u    3.597738     4Au     3.597781  
      11B2g    3.620944    11B3g    3.620944    20B1u    3.759434  
       5B1g    3.805751    21Ag     3.805880     5Au     3.845154  
      21B1u    3.845262    12B2u    3.881130    12B3u    3.881130  
      12B3g    3.940490    12B2g    3.940490    22Ag     4.143583  
      22B1u    4.230116    23Ag    13.023436    13B3u   13.023483  
      13B2u   13.023483     6B1g   13.023978     6Au    13.024011  
      13B2g   13.024133    13B3g   13.024133    24Ag    13.024213  
      23B1u   13.024248    14B2u   13.025140    14B3u   13.025140  
      14B3g   13.025146    14B2g   13.025146    24B1u   13.025793  
      25Ag    13.026200    25B1u   13.026202     7Au    13.026378  
       7B1g   13.026379    26Ag    13.222176    15B3u   13.228204  
      15B2u   13.228204     8B1g   13.231036    27Ag    13.231185  
      16B3u   13.232277    16B2u   13.232277    15B2g   13.232451  
      15B3g   13.232451     8Au    13.234665    26B1u   13.234812  
      16B2g   13.259600    16B3g   13.259600    27B1u   13.379411  

    Final Occupation by Irrep:
             Ag   B1g   B2g   B3g    Au   B1u   B2u   B3u 
    DOCC [     8,    1,    3,    3,    1,    7,    3,    3 ]

  @DF-RKS Final Energy: -3280.65928668678725

   => Energetics <=

    Nuclear Repulsion Energy =            200.9219199150647057
    One-Electron Energy =               -4977.5488591796838591
    Two-Electron Energy =                1569.2697058462608766
    DFT Exchange-Correlation Energy =     -73.3015236984290084
    Empirical Dispersion Energy =          -0.0005295700000000
    VV10 Nonlocal Energy =                  0.0000000000000000
    Total Energy =                      -3280.6592866867867997

Computation Completed


Properties will be evaluated at   0.000000,   0.000000,   0.000000 [a0]

Properties computed using the SCF density matrix

  Nuclear Dipole Moment: [e a0]
     X:     0.0000      Y:     0.0000      Z:    -0.0000

  Electronic Dipole Moment: [e a0]
     X:     0.0000      Y:     0.0000      Z:     0.0000

  Dipole Moment: [e a0]
     X:     0.0000      Y:     0.0000      Z:    -0.0000     Total:     0.0000

  Dipole Moment: [D]
     X:     0.0000      Y:     0.0000      Z:    -0.0000     Total:     0.0000


*** tstop() called on bp1-compute00024.data.bp.acrc.priv at Thu Oct 28 15:27:34 2021
Module time:
	user time   =      75.65 seconds =       1.26 minutes
	system time =       2.78 seconds =       0.05 minutes
	total time  =          4 seconds =       0.07 minutes
Total time:
	user time   =      75.65 seconds =       1.26 minutes
	system time =       2.78 seconds =       0.05 minutes
	total time  =          4 seconds =       0.07 minutes

    Psi4 stopped on: Thursday, 28 October 2021 03:27PM
    Psi4 wall time for execution: 0:00:04.50

*** Psi4 exiting successfully. Buy a developer a beer!
