
    -----------------------------------------------------------------------
          Psi4: An Open-Source Ab Initio Electronic Structure Package
                               Psi4 1.3.2 release

                         Git: Rev {HEAD} ecbda83 


    R. M. Parrish, L. A. Burns, D. G. A. Smith, A. C. Simmonett,
    A. E. DePrince III, E. G. Hohenstein, U. Bozkaya, A. Yu. Sokolov,
    R. Di Remigio, R. M. Richard, J. F. Gonthier, A. M. James,
    H. R. McAlexander, A. Kumar, M. Saitow, X. Wang, B. P. Pritchard,
    P. Verma, H. F. Schaefer III, K. Patkowski, R. A. King, E. F. Valeev,
    F. A. Evangelista, J. M. Turney, T. D. Crawford, and C. D. Sherrill,
    J. Chem. Theory Comput. 13(7) pp 3185--3197 (2017).
    (doi: 10.1021/acs.jctc.7b00174)


                         Additional Contributions by
    P. Kraus, H. Kruse, M. H. Lechner, M. C. Schieber, R. A. Shaw,
    A. Alenaizan, R. Galvelis, Z. L. Glick, S. Lehtola, and J. P. Misiewicz

    -----------------------------------------------------------------------


    Psi4 started on: Thursday, 28 October 2021 03:27PM

    Process ID: 122397
    Host:       bp1-compute00157.data.bp.acrc.priv
    PSIDATADIR: /work/zw18965/.conda/envs/p4env/share/psi4
    Memory:     500.0 MiB
    Threads:    24
    
  ==> Input File <==

--------------------------------------------------------------------------
memory 144 GB

molecule {
0 2
Cu       0.000000    0.000000    0.000000 
Cu       0.000000    0.000000    2.291099 
Cu       0.000000    0.000000   -2.291099 
 }

set reference uks
set basis Def2-TZVPPD

energy("M11-D3BJ")
--------------------------------------------------------------------------

  Memory set to 134.110 GiB by Python driver.

*** tstart() called on bp1-compute00157.data.bp.acrc.priv
*** at Thu Oct 28 15:27:45 2021

   => Loading Basis Set <=

    Name: DEF2-TZVPPD
    Role: ORBITAL
    Keyword: BASIS
    atoms 1-3 entry CU         line  1290 file /work/zw18965/.conda/envs/p4env/share/psi4/basis/def2-tzvppd.gbs 


         ---------------------------------------------------------
                                   SCF
               by Justin Turney, Rob Parrish, Andy Simmonett
                          and Daniel G. A. Smith
                              UKS Reference
                       24 Threads, 137329 MiB Core
         ---------------------------------------------------------

  ==> Geometry <==

    Molecular point group: d2h
    Full point group: D_inf_h

    Geometry (in Angstrom), charge = 0, multiplicity = 2:

       Center              X                  Y                   Z               Mass       
    ------------   -----------------  -----------------  -----------------  -----------------
         CU           0.000000000000     0.000000000000     0.000000000000    62.929597720000
         CU           0.000000000000     0.000000000000     2.291099000000    62.929597720000
         CU           0.000000000000     0.000000000000    -2.291099000000    62.929597720000

  Running in d2h symmetry.

  Rotational constants: A = ************  B =      0.02552  C =      0.02552 [cm^-1]
  Rotational constants: A = ************  B =    764.97023  C =    764.97023 [MHz]
  Nuclear repulsion =  485.616328859501607

  Charge       = 0
  Multiplicity = 2
  Electrons    = 87
  Nalpha       = 44
  Nbeta        = 43

  ==> Algorithm <==

  SCF Algorithm Type is DF.
  DIIS enabled.
  MOM disabled.
  Fractional occupation disabled.
  Guess Type is SAD.
  Energy threshold   = 1.00e-06
  Density threshold  = 1.00e-06
  Integral threshold = 0.00e+00

  ==> Primary Basis <==

  Basis Set: DEF2-TZVPPD
    Blend: DEF2-TZVPPD
    Number of shells: 57
    Number of basis function: 201
    Number of Cartesian functions: 249
    Spherical Harmonics?: true
    Max angular momentum: 4

  ==> DFT Potential <==

   => Composite Functional: M11-D3BJ <= 

    M11 Meta-GGA XC Functional

    R. Peverati and D. G. Truhlar, J. Phys. Chem. Lett., 2, 2810, 2011


    Deriv               =              1
    GGA                 =           TRUE
    Meta                =           TRUE

    Exchange Hybrid     =           TRUE
    MP2 Hybrid          =          FALSE

   => Exchange Functionals <=

    1.0000   XC_HYB_MGGA_X_M11 [omega = 0.2500]

   => Exact (HF) Exchange <=

    0.5720            HF,LR [omega = 0.2500]
    0.4280               HF 

   => Correlation Functionals <=

    1.0000    XC_MGGA_C_M11

   => Molecular Quadrature <=

    Radial Scheme          =       TREUTLER
    Pruning Scheme         =           FLAT
    Nuclear Scheme         =       TREUTLER

    BS radius alpha        =              1
    Pruning alpha          =              1
    Radial Points          =             75
    Spherical Points       =            302
    Total Points           =          67950
    Total Blocks           =            622
    Max Points             =            253
    Max Functions          =            170

   => M11-D3(BJ): Empirical Dispersion <=

    Grimme's -D3 (BJ-damping) Dispersion Correction
    Grimme S.; Ehrlich S.; Goerigk L. (2011), J. Comput. Chem., 32: 1456
    Parametrisation from:    L. Goerigk, J. Phys. Chem. Lett. 6, 3891-3896, 2015

        s6 =       1.000000
        s8 =       2.811200
        a1 =       0.000000
        a2 =      10.138900

   => Loading Basis Set <=

    Name: (DEF2-TZVPPD AUX)
    Role: JKFIT
    Keyword: DF_BASIS_SCF
    atoms 1-3 entry CU         line  2361 file /work/zw18965/.conda/envs/p4env/share/psi4/basis/def2-tzvpp-jkfit.gbs 

  ==> Pre-Iterations <==

   -------------------------------------------------------
    Irrep   Nso     Nmo     Nalpha   Nbeta   Ndocc  Nsocc
   -------------------------------------------------------
     Ag        44      44       0       0       0       0
     B1g       14      14       0       0       0       0
     B2g       22      22       0       0       0       0
     B3g       22      22       0       0       0       0
     Au        10      10       0       0       0       0
     B1u       37      37       0       0       0       0
     B2u       26      26       0       0       0       0
     B3u       26      26       0       0       0       0
   -------------------------------------------------------
    Total     201     201      44      43      43       1
   -------------------------------------------------------

  ==> Integral Setup <==

  ==> DiskDFJK: Density-Fitted J/K Matrices <==

    J tasked:                  Yes
    K tasked:                  Yes
    wK tasked:                 Yes
    Omega:               2.500E-01
    OpenMP threads:             24
    Integrals threads:          24
    Memory [MiB]:           102374
    Algorithm:                Core
    Integral Cache:           NONE
    Schwarz Cutoff:          1E-12
    Fitting Condition:       1E-10

   => Auxiliary Basis Set <=

  Basis Set: (DEF2-TZVPPD AUX)
    Blend: DEF2-TZVPP-JKFIT
    Number of shells: 174
    Number of basis function: 792
    Number of Cartesian functions: 1131
    Spherical Harmonics?: true
    Max angular momentum: 6

  Cached 100.0% of DFT collocation blocks in 0.608 [GiB].

  Minimum eigenvalue in the overlap matrix is 3.3211269377E-04.
  Using Symmetric Orthogonalization.

  SCF Guess: Superposition of Atomic Densities via on-the-fly atomic UHF.

  ==> Iterations <==

                           Total Energy        Delta E     RMS |[F,P]|

   @DF-UKS iter SAD: -4912.86432450966913   -4.91286e+03   0.00000e+00 
    Occupation by irrep:
             Ag   B1g   B2g   B3g    Au   B1u   B2u   B3u 
    DOCC [    13,    1,    3,    4,    0,   10,    6,    6 ]
    SOCC [     0,    0,    0,    0,    0,    1,    0,    0 ]

   @DF-UKS iter   1: -4913.09440682599779   -2.30082e-01   9.07704e-02 DIIS
    Occupation by irrep:
             Ag   B1g   B2g   B3g    Au   B1u   B2u   B3u 
    DOCC [    13,    2,    4,    4,    1,    9,    5,    5 ]
    SOCC [     0,    0,    0,    0,    0,    1,    0,    0 ]

   @DF-UKS iter   2: -4781.98725373326943    1.31107e+02   1.96272e-01 DIIS
    Occupation by irrep:
             Ag   B1g   B2g   B3g    Au   B1u   B2u   B3u 
    DOCC [    12,    1,    4,    3,    1,   10,    6,    6 ]
    SOCC [     0,    0,    0,    0,    0,    1,    0,    0 ]

   @DF-UKS iter   3: -4917.50349009836464   -1.35516e+02   5.29327e-02 DIIS
    Occupation by irrep:
             Ag   B1g   B2g   B3g    Au   B1u   B2u   B3u 
    DOCC [    13,    2,    4,    4,    1,    9,    5,    5 ]
    SOCC [     0,    0,    0,    0,    0,    1,    0,    0 ]

   @DF-UKS iter   4: -4881.81759202115882    3.56859e+01   8.50052e-02 DIIS
   @DF-UKS iter   5: -4918.95460265381098   -3.71370e+01   4.49907e-02 DIIS
   @DF-UKS iter   6: -4920.44312945034653   -1.48853e+00   2.10300e-02 DIIS
   @DF-UKS iter   7: -4920.94741313276063   -5.04284e-01   3.94956e-03 DIIS
   @DF-UKS iter   8: -4920.97617209420969   -2.87590e-02   1.09438e-03 DIIS
   @DF-UKS iter   9: -4920.97831071248584   -2.13862e-03   1.88433e-04 DIIS
   @DF-UKS iter  10: -4920.97884669093037   -5.35978e-04   1.48566e-04 DIIS
   @DF-UKS iter  11: -4920.97909797300599   -2.51282e-04   7.23322e-05 DIIS
   @DF-UKS iter  12: -4920.97916969309699   -7.17201e-05   3.13407e-05 DIIS
   @DF-UKS iter  13: -4920.97917851962848   -8.82653e-06   3.58268e-06 DIIS
   @DF-UKS iter  14: -4920.97917879292800   -2.73300e-07   1.36742e-06 DIIS
   @DF-UKS iter  15: -4920.97917883877108   -4.58431e-08   5.26286e-07 DIIS
  Energy and wave function converged.


  ==> Post-Iterations <==

   @Spin Contamination Metric:   4.905853757E-02
   @S^2 Expected:                7.500000000E-01
   @S^2 Observed:                7.990585376E-01
   @S   Expected:                5.000000000E-01
   @S   Observed:                5.000000000E-01

    Orbital Energies [Eh]
    ---------------------

    Alpha Occupied:                                                       

       1B1u -323.915877     1Ag  -323.915874     2Ag  -323.894053  
       2B1u  -39.041909     3Ag   -39.041872     4Ag   -39.024093  
       5Ag   -34.306865     3B1u  -34.306861     1B3g  -34.305946  
       1B2g  -34.305946     1B2u  -34.305942     1B3u  -34.305942  
       4B1u  -34.289172     2B3u  -34.287998     2B2u  -34.287998  
       5B1u   -4.398674     6Ag    -4.398623     7Ag    -4.377600  
       6B1u   -2.920665     8Ag    -2.920097     2B3g   -2.917028  
       2B2g   -2.917028     3B2u   -2.917027     3B3u   -2.917027  
       7B1u   -2.900282     4B3u   -2.895754     4B2u   -2.895754  
       9Ag    -0.428603     3B3g   -0.410177     3B2g   -0.410177  
       8B1u   -0.396648     5B2u   -0.396121     5B3u   -0.396121  
      10Ag    -0.393626     1B1g   -0.393612     9B1u   -0.392656  
       1Au    -0.392642    11Ag    -0.369037     2B1g   -0.369019  
       4B3g   -0.356156     4B2g   -0.356156    12Ag    -0.353612  
      13Ag    -0.290279    10B1u   -0.239841  

    Alpha Virtual:                                                        

      14Ag     0.005747    11B1u    0.023002     6B3u    0.024844  
       6B2u    0.024844     5B3g    0.052856     5B2g    0.052856  
      15Ag     0.073187     7B2u    0.091803     7B3u    0.091803  
      12B1u    0.102478    16Ag     0.124916     8B3u    0.147663  
       8B2u    0.147664    13B1u    0.155649     6B3g    0.176953  
       6B2g    0.176953    17Ag     0.203940    18Ag     0.221202  
       3B1g    0.221202     2Au     0.251922    14B1u    0.251922  
       9B3u    0.254862     9B2u    0.254862    19Ag     0.274430  
      15B1u    0.276317     7B3g    0.280709     7B2g    0.280709  
      20Ag     0.326697     4B1g    0.326698    16B1u    0.327903  
      10B2u    0.385034    10B3u    0.385034    21Ag     0.408322  
       8B3g    0.492681     8B2g    0.492681    22Ag     0.549199  
      17B1u    0.615901    18B1u    0.702373    11B2u    0.732727  
      11B3u    0.732728     9B3g    0.762769     9B2g    0.762769  
      12B2u    0.823346    12B3u    0.823346    23Ag     0.839365  
      24Ag     0.953137     5B1g    0.953163    10B3g    0.977279  
      10B2g    0.977279    19B1u    0.977825    20B1u    0.993582  
       3Au     0.993607    13B2u    1.055467    13B3u    1.055467  
      25Ag     1.065835    26Ag     1.070482     6B1g    1.070514  
      11B3g    1.280264    11B2g    1.280264    21B1u    1.315049  
      27Ag     1.601423    14B2u    3.063261    14B3u    3.063261  
      28Ag     3.086408    12B3g    3.157599    12B2g    3.157599  
      22B1u    3.181771    15B2u    3.187263    15B3u    3.187263  
      23B1u    3.242695    29Ag     3.304273    24B1u    3.464103  
      30Ag     3.515659    16B2u    3.555204    16B3u    3.555204  
      13B3g    3.559591    13B2g    3.559591    25B1u    3.568191  
       4Au     3.568282    31Ag     3.569209     7B1g    3.569298  
      17B2u    3.570904    17B3u    3.570904    14B3g    3.570905  
      14B2g    3.570905    26B1u    3.599303     5Au     3.599418  
      18B2u    3.602909    18B3u    3.602909    27B1u    3.612711  
      19B2u    3.614936    19B3u    3.614936    32Ag     3.711199  
       8B1g    3.785230    33Ag     3.785299     6Au     3.805422  
      28B1u    3.805475    15B3g    3.850256    15B2g    3.850256  
       9B1g    3.858121    34Ag     3.858205    29B1u    3.901750  
      20B2u    3.911052    20B3u    3.911052    16B3g    4.010581  
      16B2g    4.010581    35Ag     4.133823    30B1u    4.221506  
      36Ag     4.566480    21B2u   13.006996    21B3u   13.006996  
       7Au    13.007307    10B1g   13.007365    31B1u   13.007618  
      37Ag    13.007677    17B3g   13.007779    17B2g   13.007779  
      22B3u   13.008185    22B2u   13.008185    18B2g   13.008205  
      18B3g   13.008205    32B1u   13.008372    38Ag    13.008980  
      33B1u   13.009076    39Ag    13.009080     8Au    13.009207  
      11B1g   13.009207    19B2g   13.030157    19B3g   13.030157  
      12B1g   13.030307    40Ag    13.030831    20B3g   13.031763  
      20B2g   13.031763    41Ag    13.032558    13B1g   13.032735  
      42Ag    13.033783    23B2u   13.216601    23B3u   13.216601  
       9Au    13.216703    34B1u   13.216810    14B1g   13.217745  
      43Ag    13.217852    24B3u   13.217993    24B2u   13.217993  
      21B3g   13.217994    21B2g   13.217994    35B1u   13.224307  
      22B3g   13.232304    22B2g   13.232304    25B3u   13.236429  
      25B2u   13.236429    10Au    13.237116    36B1u   13.237268  
      26B2u   13.253917    26B3u   13.253917    44Ag    13.309322  
      37B1u   13.352530  

    Beta Occupied:                                                        

       1B1u -323.914919     1Ag  -323.914916     2Ag  -323.894130  
       2B1u  -39.041536     3Ag   -39.041500     4Ag   -39.024647  
       5Ag   -34.307077     3B1u  -34.307073     1B2g  -34.306235  
       1B3g  -34.306235     1B3u  -34.306232     1B2u  -34.306232  
       4B1u  -34.289083     2B3u  -34.288234     2B2u  -34.288234  
       5B1u   -4.396000     6Ag    -4.395946     7Ag    -4.378756  
       6B1u   -2.919742     8Ag    -2.919198     3B3u   -2.916525  
       3B2u   -2.916525     2B2g   -2.916507     2B3g   -2.916507  
       7B1u   -2.899911     4B3u   -2.896737     4B2u   -2.896737  
       9Ag    -0.427197     3B2g   -0.409078     3B3g   -0.409078  
       8B1u   -0.396496     5B3u   -0.394863     5B2u   -0.394863  
      10Ag    -0.392527     1B1g   -0.392515     9B1u   -0.391494  
       1Au    -0.391483    11Ag    -0.369818     2B1g   -0.369800  
       4B3g   -0.356899     4B2g   -0.356898    12Ag    -0.350776  
      13Ag    -0.256969  

    Beta Virtual:                                                         

      10B1u   -0.053589    14Ag    -0.023039    11B1u   -0.005407  
       6B2u    0.008624     6B3u    0.008624     5B3g    0.028074  
       5B2g    0.028074    15Ag     0.060130     7B3u    0.069729  
       7B2u    0.069729    12B1u    0.094303    16Ag     0.129173  
      13B1u    0.144777     8B3u    0.154831     8B2u    0.154831  
       6B3g    0.186039     6B2g    0.186039    17Ag     0.189662  
      18Ag     0.213936     3B1g    0.213938    14B1u    0.237585  
       2Au     0.237586     9B2u    0.248519     9B3u    0.248519  
      19Ag     0.256796     7B3g    0.258977     7B2g    0.258977  
      15B1u    0.266010    16B1u    0.306772    20Ag     0.316170  
       4B1g    0.316171    10B2u    0.370620    10B3u    0.370620  
      21Ag     0.407986     8B3g    0.487279     8B2g    0.487279  
      22Ag     0.541606    17B1u    0.612346    18B1u    0.700362  
      11B2u    0.734619    11B3u    0.734619     9B3g    0.760625  
       9B2g    0.760625    12B2u    0.823003    12B3u    0.823003  
      23Ag     0.837308    24Ag     0.958252     5B1g    0.958282  
      19B1u    0.973773    10B3g    0.982331    10B2g    0.982331  
      20B1u    1.002818     3Au     1.002863    13B2u    1.058794  
      13B3u    1.058794    25Ag     1.072282     6B1g    1.072314  
      26Ag     1.073847    11B3g    1.280483    11B2g    1.280483  
      21B1u    1.317006    27Ag     1.597782    14B2u    3.064379  
      14B3u    3.064379    28Ag     3.091917    12B3g    3.158066  
      12B2g    3.158066    22B1u    3.184282    15B2u    3.187777  
      15B3u    3.187777    23B1u    3.247041    29Ag     3.306665  
      24B1u    3.469327    30Ag     3.517605    16B2u    3.555716  
      16B3u    3.555716    13B3g    3.561869    13B2g    3.561869  
      25B1u    3.570725     4Au     3.570789    31Ag     3.571742  
       7B1g    3.571803    17B2u    3.572786    17B3u    3.572786  
      14B3g    3.572788    14B2g    3.572788    26B1u    3.599728  
       5Au     3.599840    18B2u    3.602409    18B3u    3.602409  
      27B1u    3.613453    19B2u    3.617014    19B3u    3.617014  
      32Ag     3.709244     8B1g    3.784520    33Ag     3.784612  
       6Au     3.803886    28B1u    3.803965    15B3g    3.851545  
      15B2g    3.851545     9B1g    3.857720    34Ag     3.857808  
      29B1u    3.902646    20B2u    3.911993    20B3u    3.911993  
      16B3g    4.011321    16B2g    4.011321    35Ag     4.137444  
      30B1u    4.223248    36Ag     4.567738    21B2u   13.006557  
      21B3u   13.006557     7Au    13.007247    10B1g   13.007305  
      17B3g   13.007349    17B2g   13.007349    31B1u   13.007559  
      37Ag    13.007617    32B1u   13.007761    38Ag    13.008359  
      22B3u   13.008502    22B2u   13.008502    18B2g   13.008507  
      18B3g   13.008507    33B1u   13.009417    39Ag    13.009418  
      11B1g   13.009544     8Au    13.009544    19B2g   13.029563  
      19B3g   13.029564    12B1g   13.029616    40Ag    13.030137  
      20B3g   13.031198    20B2g   13.031198    41Ag    13.032743  
      13B1g   13.032924    42Ag    13.033236     9Au    13.215245  
      23B3u   13.215248    23B2u   13.215248    21B3g   13.215350  
      21B2g   13.215350    24B3u   13.215350    24B2u   13.215350  
      34B1u   13.215360    14B1g   13.216279    43Ag    13.216394  
      35B1u   13.223275    22B2g   13.230723    22B3g   13.230723  
      25B3u   13.236421    25B2u   13.236421    10Au    13.236921  
      36B1u   13.237073    26B3u   13.254012    26B2u   13.254012  
      44Ag    13.307434    37B1u   13.352108  

    Final Occupation by Irrep:
             Ag   B1g   B2g   B3g    Au   B1u   B2u   B3u 
    DOCC [    13,    2,    4,    4,    1,    9,    5,    5 ]
    SOCC [     0,    0,    0,    0,    0,    1,    0,    0 ]

  @DF-UKS Final Energy: -4920.97917883877108

   => Energetics <=

    Nuclear Repulsion Energy =            485.6163288595016070
    One-Electron Energy =               -7833.9765579440445435
    Two-Electron Energy =                2537.3273378608819257
    DFT Exchange-Correlation Energy =    -109.9448306451105282
    Empirical Dispersion Energy =          -0.0014569700000000
    VV10 Nonlocal Energy =                  0.0000000000000000
    Total Energy =                      -4920.9791788387710767

  UHF NO Occupations:
  HONO-2 :    4B2g 1.9998803
  HONO-1 :   13 Ag 1.9758236
  HONO-0 :   10B1u 1.0000000
  LUNO+0 :   14 Ag 0.0241764
  LUNO+1 :    5B2g 0.0001197
  LUNO+2 :    5B3g 0.0001197
  LUNO+3 :   11B1u 0.0001097


Computation Completed


Properties will be evaluated at   0.000000,   0.000000,   0.000000 [a0]

Properties computed using the SCF density matrix

  Nuclear Dipole Moment: [e a0]
     X:     0.0000      Y:     0.0000      Z:     0.0000

  Electronic Dipole Moment: [e a0]
     X:     0.0000      Y:     0.0000      Z:     0.0000

  Dipole Moment: [e a0]
     X:     0.0000      Y:     0.0000      Z:     0.0000     Total:     0.0000

  Dipole Moment: [D]
     X:     0.0000      Y:     0.0000      Z:     0.0000     Total:     0.0000


*** tstop() called on bp1-compute00157.data.bp.acrc.priv at Thu Oct 28 15:28:06 2021
Module time:
	user time   =     449.69 seconds =       7.49 minutes
	system time =      27.10 seconds =       0.45 minutes
	total time  =         21 seconds =       0.35 minutes
Total time:
	user time   =     449.69 seconds =       7.49 minutes
	system time =      27.10 seconds =       0.45 minutes
	total time  =         21 seconds =       0.35 minutes

    Psi4 stopped on: Thursday, 28 October 2021 03:28PM
    Psi4 wall time for execution: 0:00:21.07

*** Psi4 exiting successfully. Buy a developer a beer!
