
    -----------------------------------------------------------------------
          Psi4: An Open-Source Ab Initio Electronic Structure Package
                               Psi4 1.3.2 release

                         Git: Rev {HEAD} ecbda83 


    R. M. Parrish, L. A. Burns, D. G. A. Smith, A. C. Simmonett,
    A. E. DePrince III, E. G. Hohenstein, U. Bozkaya, A. Yu. Sokolov,
    R. Di Remigio, R. M. Richard, J. F. Gonthier, A. M. James,
    H. R. McAlexander, A. Kumar, M. Saitow, X. Wang, B. P. Pritchard,
    P. Verma, H. F. Schaefer III, K. Patkowski, R. A. King, E. F. Valeev,
    F. A. Evangelista, J. M. Turney, T. D. Crawford, and C. D. Sherrill,
    J. Chem. Theory Comput. 13(7) pp 3185--3197 (2017).
    (doi: 10.1021/acs.jctc.7b00174)


                         Additional Contributions by
    P. Kraus, H. Kruse, M. H. Lechner, M. C. Schieber, R. A. Shaw,
    A. Alenaizan, R. Galvelis, Z. L. Glick, S. Lehtola, and J. P. Misiewicz

    -----------------------------------------------------------------------


    Psi4 started on: Thursday, 28 October 2021 03:27PM

    Process ID: 122223
    Host:       bp1-compute00157.data.bp.acrc.priv
    PSIDATADIR: /work/zw18965/.conda/envs/p4env/share/psi4
    Memory:     500.0 MiB
    Threads:    24
    
  ==> Input File <==

--------------------------------------------------------------------------
memory 144 GB

molecule {
1 1
Cu       0.000000    1.349261   -0.000000 
Cu       1.168494   -0.674630    0.000000 
Cu      -1.168494   -0.674630   -0.000000 
 }

set basis Def2-TZVPPD

energy("M11-D3BJ")
--------------------------------------------------------------------------

  Memory set to 134.110 GiB by Python driver.

*** tstart() called on bp1-compute00157.data.bp.acrc.priv
*** at Thu Oct 28 15:27:36 2021

   => Loading Basis Set <=

    Name: DEF2-TZVPPD
    Role: ORBITAL
    Keyword: BASIS
    atoms 1-3 entry CU         line  1290 file /work/zw18965/.conda/envs/p4env/share/psi4/basis/def2-tzvppd.gbs 


         ---------------------------------------------------------
                                   SCF
               by Justin Turney, Rob Parrish, Andy Simmonett
                          and Daniel G. A. Smith
                              RKS Reference
                       24 Threads, 137329 MiB Core
         ---------------------------------------------------------

  ==> Geometry <==

    Molecular point group: c2v
    Full point group: C2v

    Geometry (in Angstrom), charge = 1, multiplicity = 1:

       Center              X                  Y                   Z               Mass       
    ------------   -----------------  -----------------  -----------------  -----------------
         CU           0.000000000000     0.000000000000     1.349260666667    62.929597720000
         CU           1.168494000000     0.000000000000    -0.674630333333    62.929597720000
         CU          -1.168494000000    -0.000000000000    -0.674630333333    62.929597720000

  Running in c2v symmetry.

  Rotational constants: A =      0.09810  B =      0.09810  C =      0.04905 [cm^-1]
  Rotational constants: A =   2940.89335  B =   2940.89328  C =   1470.44666 [MHz]
  Nuclear repulsion =  571.296940641642436

  Charge       = 1
  Multiplicity = 1
  Electrons    = 86
  Nalpha       = 43
  Nbeta        = 43

  ==> Algorithm <==

  SCF Algorithm Type is DF.
  DIIS enabled.
  MOM disabled.
  Fractional occupation disabled.
  Guess Type is SAD.
  Energy threshold   = 1.00e-06
  Density threshold  = 1.00e-06
  Integral threshold = 0.00e+00

  ==> Primary Basis <==

  Basis Set: DEF2-TZVPPD
    Blend: DEF2-TZVPPD
    Number of shells: 57
    Number of basis function: 201
    Number of Cartesian functions: 249
    Spherical Harmonics?: true
    Max angular momentum: 4

  ==> DFT Potential <==

   => Composite Functional: M11-D3BJ <= 

    M11 Meta-GGA XC Functional

    R. Peverati and D. G. Truhlar, J. Phys. Chem. Lett., 2, 2810, 2011


    Deriv               =              1
    GGA                 =           TRUE
    Meta                =           TRUE

    Exchange Hybrid     =           TRUE
    MP2 Hybrid          =          FALSE

   => Exchange Functionals <=

    1.0000   XC_HYB_MGGA_X_M11 [omega = 0.2500]

   => Exact (HF) Exchange <=

    0.5720            HF,LR [omega = 0.2500]
    0.4280               HF 

   => Correlation Functionals <=

    1.0000    XC_MGGA_C_M11

   => Molecular Quadrature <=

    Radial Scheme          =       TREUTLER
    Pruning Scheme         =           FLAT
    Nuclear Scheme         =       TREUTLER

    BS radius alpha        =              1
    Pruning alpha          =              1
    Radial Points          =             75
    Spherical Points       =            302
    Total Points           =          67950
    Total Blocks           =            596
    Max Points             =            254
    Max Functions          =            191

   => M11-D3(BJ): Empirical Dispersion <=

    Grimme's -D3 (BJ-damping) Dispersion Correction
    Grimme S.; Ehrlich S.; Goerigk L. (2011), J. Comput. Chem., 32: 1456
    Parametrisation from:    L. Goerigk, J. Phys. Chem. Lett. 6, 3891-3896, 2015

        s6 =       1.000000
        s8 =       2.811200
        a1 =       0.000000
        a2 =      10.138900

   => Loading Basis Set <=

    Name: (DEF2-TZVPPD AUX)
    Role: JKFIT
    Keyword: DF_BASIS_SCF
    atoms 1-3 entry CU         line  2361 file /work/zw18965/.conda/envs/p4env/share/psi4/basis/def2-tzvpp-jkfit.gbs 

  ==> Pre-Iterations <==

   -------------------------------------------------------
    Irrep   Nso     Nmo     Nalpha   Nbeta   Ndocc  Nsocc
   -------------------------------------------------------
     A1        70      70       0       0       0       0
     A2        32      32       0       0       0       0
     B1        59      59       0       0       0       0
     B2        40      40       0       0       0       0
   -------------------------------------------------------
    Total     201     201      43      43      43       0
   -------------------------------------------------------

  ==> Integral Setup <==

  ==> DiskDFJK: Density-Fitted J/K Matrices <==

    J tasked:                  Yes
    K tasked:                  Yes
    wK tasked:                 Yes
    Omega:               2.500E-01
    OpenMP threads:             24
    Integrals threads:          24
    Memory [MiB]:           102338
    Algorithm:                Core
    Integral Cache:           NONE
    Schwarz Cutoff:          1E-12
    Fitting Condition:       1E-10

   => Auxiliary Basis Set <=

  Basis Set: (DEF2-TZVPPD AUX)
    Blend: DEF2-TZVPP-JKFIT
    Number of shells: 174
    Number of basis function: 792
    Number of Cartesian functions: 1131
    Spherical Harmonics?: true
    Max angular momentum: 6

  Cached 100.0% of DFT collocation blocks in 0.643 [GiB].

  Minimum eigenvalue in the overlap matrix is 7.6765794614E-04.
  Using Symmetric Orthogonalization.

  SCF Guess: Superposition of Atomic Densities via on-the-fly atomic UHF.

  ==> Iterations <==

                           Total Energy        Delta E     RMS |[F,P]|

   @DF-RKS iter SAD: -4913.39937847192778   -4.91340e+03   0.00000e+00 
    Occupation by irrep:
             A1    A2    B1    B2 
    DOCC [    19,    4,   13,    7 ]

   @DF-RKS iter   1: -4913.38756109406950    1.18174e-02   6.54183e-02 DIIS
    Occupation by irrep:
             A1    A2    B1    B2 
    DOCC [    18,    5,   13,    7 ]

   @DF-RKS iter   2: -4785.17860697344895    1.28209e+02   1.47530e-01 DIIS
   @DF-RKS iter   3: -4918.19250610544805   -1.33014e+02   3.35631e-02 DIIS
   @DF-RKS iter   4: -4920.53502520222628   -2.34252e+00   1.25430e-02 DIIS
   @DF-RKS iter   5: -4920.76275472041925   -2.27730e-01   5.38187e-03 DIIS
   @DF-RKS iter   6: -4920.80566595595519   -4.29112e-02   1.57918e-03 DIIS
   @DF-RKS iter   7: -4920.81013617663120   -4.47022e-03   1.06897e-04 DIIS
   @DF-RKS iter   8: -4920.81015763383766   -2.14572e-05   1.06279e-04 DIIS
   @DF-RKS iter   9: -4920.81018469401261   -2.70602e-05   1.65753e-05 DIIS
   @DF-RKS iter  10: -4920.81019276378083   -8.06977e-06   7.08598e-06 DIIS
   @DF-RKS iter  11: -4920.81019372479568   -9.61015e-07   2.92798e-06 DIIS
   @DF-RKS iter  12: -4920.81019386270145   -1.37906e-07   5.87900e-07 DIIS
  Energy and wave function converged.


  ==> Post-Iterations <==

    Orbital Energies [Eh]
    ---------------------

    Doubly Occupied:                                                      

       1A1  -324.121926     1B1  -324.121921     2A1  -324.121914  
       3A1   -39.248480     2B1   -39.248475     4A1   -39.248392  
       3B1   -34.513775     4B1   -34.513756     5A1   -34.513752  
       6A1   -34.513220     5B1   -34.513214     7A1   -34.513201  
       1B2   -34.512504     1A2   -34.512499     2B2   -34.512490  
       8A1    -4.604828     9A1    -4.604236     6B1    -4.604226  
      10A1    -3.128917     7B1    -3.127328    11A1    -3.127318  
       8B1    -3.124917    12A1    -3.123746     9B1    -3.123742  
       3B2    -3.123276     4B2    -3.122799     2A2    -3.122789  
      13A1    -0.644652     5B2    -0.625901    10B1    -0.625881  
      14A1    -0.625870    15A1    -0.613052     3A2    -0.609389  
       6B2    -0.609380    16A1    -0.590517    11B1    -0.590508  
       4A2    -0.588227    17A1    -0.582809    12B1    -0.582799  
       7B2    -0.582449     5A2    -0.582441    13B1    -0.564425  
      18A1    -0.507395  

    Virtual:                                                              

      19A1    -0.189554    14B1    -0.189552     8B2    -0.149436  
      20A1    -0.139049    15B1    -0.109513    21A1    -0.109512  
       9B2    -0.087553     6A2    -0.087552    22A1    -0.072694  
      16B1    -0.072694    17B1    -0.049368    10B2    -0.023687  
      23A1    -0.015462    24A1     0.010514    25A1     0.012979  
      18B1     0.012980     7A2     0.060785    11B2     0.060786  
      26A1     0.066789    19B1     0.066794    27A1     0.069376  
       8A2     0.087601    12B2     0.087601    28A1     0.102090  
      20B1     0.102091    21B1     0.102426    13B2     0.109613  
      29A1     0.148670    22B1     0.148671     9A2     0.165424  
      30A1     0.188091    31A1     0.201927    23B1     0.201932  
      10A2     0.206123    14B2     0.206123    24B1     0.314639  
      32A1     0.377738    25B1     0.377752    33A1     0.519193  
      15B2     0.532666    26B1     0.570337    34A1     0.570377  
      16B2     0.625669    11A2     0.625696    27B1     0.683028  
      35A1     0.683030    36A1     0.683944    17B2     0.708628  
      12A2     0.742766    18B2     0.742788    28B1     0.791936  
      37A1     0.826953    38A1     0.849404    29B1     0.849405  
      13A2     0.924415    30B1     0.948430    39A1     0.948433  
      19B2     0.996963    14A2     0.996978    40A1     1.182281  
      31B1     1.182317    32B1     1.185715    20B2     2.857841  
      41A1     2.933966    42A1     2.937056    33B1     2.937107  
      15A2     2.963411    21B2     2.963434    34B1     3.001594  
      43A1     3.001612    44A1     3.005300    35B1     3.113728  
      45A1     3.312404    46A1     3.317787    36B1     3.317794  
      22B2     3.339182    16A2     3.341751    23B2     3.341758  
      47A1     3.361154    37B1     3.361190    24B2     3.364752  
      17A2     3.367485    25B2     3.367532    38B1     3.369426  
      39B1     3.371898    48A1     3.371908    40B1     3.376731  
      49A1     3.376739    18A2     3.377027    26B2     3.381814  
      19A2     3.381878    50A1     3.399826    41B1     3.456039  
      42B1     3.515292    51A1     3.515318    27B2     3.613499  
      20A2     3.613619    52A1     3.614693    28B2     3.655186  
      53A1     3.660026    43B1     3.660029    21A2     3.677776  
      29B2     3.732477    22A2     3.732486    54A1     3.868256  
      44B1     3.868265    55A1     3.905124    45B1     3.907302  
      56A1     4.155228    46B1     4.155348    57A1    12.798401  
      47B1    12.798908    58A1    12.799069    48B1    12.799122  
      30B2    12.799460    23A2    12.799644    31B2    12.799675  
      59A1    12.799778    49B1    12.799916    24A2    12.800093  
      32B2    12.800269    25A2    12.800324    60A1    12.800603  
      61A1    12.800835    50B1    12.800877    26A2    12.800973  
      33B2    12.801101    51B1    12.801130    27A2    12.801194  
      62A1    12.801234    28A2    12.801632    34B2    12.801694  
      52B1    12.801780    35B2    12.801914    63A1    12.801996  
      53B1    12.803152    64A1    12.803234    65A1    13.007284  
      54B1    13.007312    36B2    13.007319    37B2    13.007883  
      29A2    13.007896    66A1    13.008499    30A2    13.008629  
      38B2    13.008631    55B1    13.009283    56B1    13.010637  
      67A1    13.010647    39B2    13.013461    31A2    13.018261  
      68A1    13.021628    57B1    13.024045    69A1    13.024055  
      32A2    13.027057    40B2    13.027075    58B1    13.102056  
      70A1    13.106333    59B1    13.106366  

    Final Occupation by Irrep:
             A1    A2    B1    B2 
    DOCC [    18,    5,   13,    7 ]

  @DF-RKS Final Energy: -4920.81019386270145

   => Energetics <=

    Nuclear Repulsion Energy =            571.2969406416424363
    One-Electron Energy =               -7986.8344454052821675
    Two-Electron Energy =                2604.6581498864725290
    DFT Exchange-Correlation Energy =    -109.9292775055341451
    Empirical Dispersion Energy =          -0.0015614800000000
    VV10 Nonlocal Energy =                  0.0000000000000000
    Total Energy =                      -4920.8101938627014533

Computation Completed


Properties will be evaluated at   0.000000,   0.000000,   0.000000 [a0]

Properties computed using the SCF density matrix

  Nuclear Dipole Moment: [e a0]
     X:     0.0000      Y:     0.0000      Z:    -0.0000

  Electronic Dipole Moment: [e a0]
     X:     0.0000      Y:     0.0000      Z:     0.0002

  Dipole Moment: [e a0]
     X:     0.0000      Y:     0.0000      Z:     0.0002     Total:     0.0002

  Dipole Moment: [D]
     X:     0.0000      Y:     0.0000      Z:     0.0005     Total:     0.0005


*** tstop() called on bp1-compute00157.data.bp.acrc.priv at Thu Oct 28 15:27:41 2021
Module time:
	user time   =     104.16 seconds =       1.74 minutes
	system time =       5.10 seconds =       0.08 minutes
	total time  =          5 seconds =       0.08 minutes
Total time:
	user time   =     104.16 seconds =       1.74 minutes
	system time =       5.10 seconds =       0.08 minutes
	total time  =          5 seconds =       0.08 minutes

    Psi4 stopped on: Thursday, 28 October 2021 03:27PM
    Psi4 wall time for execution: 0:00:05.63

*** Psi4 exiting successfully. Buy a developer a beer!
