
    -----------------------------------------------------------------------
          Psi4: An Open-Source Ab Initio Electronic Structure Package
                               Psi4 1.4.1 release

                         Git: Rev {HEAD} cd00f19 


    D. G. A. Smith, L. A. Burns, A. C. Simmonett, R. M. Parrish,
    M. C. Schieber, R. Galvelis, P. Kraus, H. Kruse, R. Di Remigio,
    A. Alenaizan, A. M. James, S. Lehtola, J. P. Misiewicz, M. Scheurer,
    R. A. Shaw, J. B. Schriber, Y. Xie, Z. L. Glick, D. A. Sirianni,
    J. S. O'Brien, J. M. Waldrop, A. Kumar, E. G. Hohenstein,
    B. P. Pritchard, B. R. Brooks, H. F. Schaefer III, A. Yu. Sokolov,
    K. Patkowski, A. E. DePrince III, U. Bozkaya, R. A. King,
    F. A. Evangelista, J. M. Turney, T. D. Crawford, C. D. Sherrill,
    J. Chem. Phys. 152(18) 184108 (2020). https://doi.org/10.1063/5.0006002

                            Additional Code Authors
    E. T. Seidl, C. L. Janssen, E. F. Valeev, M. L. Leininger,
    J. F. Gonthier, R. M. Richard, H. R. McAlexander, M. Saitow, X. Wang,
    P. Verma, and M. H. Lechner

             Previous Authors, Complete List of Code Contributors,
                       and Citations for Specific Modules
    https://github.com/psi4/psi4/blob/master/codemeta.json
    https://github.com/psi4/psi4/graphs/contributors
    http://psicode.org/psi4manual/master/introduction.html#citing-psifour

    -----------------------------------------------------------------------


    Psi4 started on: Tuesday, 02 November 2021 11:06AM

    Process ID: 16109
    Host:       compute405.bc4.acrc.priv
    PSIDATADIR: /mnt/storage/home/zw18965/.conda/envs/p4env/share/psi4
    Memory:     500.0 MiB
    Threads:    28
    
  ==> Input File <==

--------------------------------------------------------------------------
memory 144 GB

molecule {
2 1
Cu      -0.000001   -0.000007    1.488630 
Cu       0.000001   -1.403449   -0.496203 
Cu       1.215485    0.701727   -0.496214 
Cu      -1.215485    0.701729   -0.496213 
 }

set basis Def2-TZVPPD

energy("M11-D3BJ")
--------------------------------------------------------------------------

  Memory set to 134.110 GiB by Python driver.

Scratch directory: /tmp/

*** tstart() called on compute405.bc4.acrc.priv
*** at Tue Nov  2 11:06:41 2021

   => Loading Basis Set <=

    Name: DEF2-TZVPPD
    Role: ORBITAL
    Keyword: BASIS
    atoms 1-4 entry CU         line  1290 file /mnt/storage/home/zw18965/.conda/envs/p4env/share/psi4/basis/def2-tzvppd.gbs 

   => M11-D3(BJ): Empirical Dispersion <=

    Grimme's -D3 (BJ-damping) Dispersion Correction
    Grimme S.; Ehrlich S.; Goerigk L. (2011), J. Comput. Chem., 32: 1456
    Parametrisation from:    L. Goerigk, J. Phys. Chem. Lett. 6, 3891-3896, 2015

        s6 =       1.000000
        s8 =       2.811200
        a1 =       0.000000
        a2 =      10.138900


         ---------------------------------------------------------
                                   SCF
               by Justin Turney, Rob Parrish, Andy Simmonett
                          and Daniel G. A. Smith
                              RKS Reference
                       28 Threads, 137329 MiB Core
         ---------------------------------------------------------

  ==> Geometry <==

    Molecular point group: c1
    Full point group: C1

    Geometry (in Angstrom), charge = 2, multiplicity = 1:

       Center              X                  Y                   Z               Mass       
    ------------   -----------------  -----------------  -----------------  -----------------
         CU          -0.000001000000    -0.000007000000     1.488630000000    62.929597720000
         CU           0.000001000000    -1.403449000000    -0.496203000000    62.929597720000
         CU           1.215485000000     0.701727000000    -0.496214000000    62.929597720000
         CU          -1.215485000000     0.701729000000    -0.496213000000    62.929597720000

  Running in c1 symmetry.

  Rotational constants: A =      0.04533  B =      0.04533  C =      0.04533 [cm^-1]
  Rotational constants: A =   1359.04280  B =   1359.01729  C =   1358.97410 [MHz]
  Nuclear repulsion = 1098.446239671754938

  Charge       = 2
  Multiplicity = 1
  Electrons    = 114
  Nalpha       = 57
  Nbeta        = 57

  ==> Algorithm <==

  SCF Algorithm Type is DF.
  DIIS enabled.
  MOM disabled.
  Fractional occupation disabled.
  Guess Type is SAD.
  Energy threshold   = 1.00e-06
  Density threshold  = 1.00e-06
  Integral threshold = 1.00e-12

  ==> Primary Basis <==

  Basis Set: DEF2-TZVPPD
    Blend: DEF2-TZVPPD
    Number of shells: 76
    Number of basis functions: 268
    Number of Cartesian functions: 332
    Spherical Harmonics?: true
    Max angular momentum: 4

  ==> DFT Potential <==

   => Composite Functional: M11-D3BJ <= 

    M11 Meta-GGA XC Functional
(10.1021/jz201170d)
    R. Peverati and D. G. Truhlar, J. Phys. Chem. Lett., 2, 2810, 2011


    Deriv               =              1
    GGA                 =           TRUE
    Meta                =           TRUE

    Exchange Hybrid     =           TRUE
    MP2 Hybrid          =          FALSE

   => Exchange Functionals <=

    1.0000   XC_HYB_MGGA_X_M11 [omega = 0.2500]

   => Exact (HF) Exchange <=

    0.5720            HF,LR [omega = 0.2500]
    0.4280               HF 

   => Correlation Functionals <=

    1.0000    XC_MGGA_C_M11

   => LibXC Density Thresholds  <==

    XC_MGGA_C_M11:  1.00E-15 
    XC_HYB_MGGA_X_M11:  1.00E-11 

   => Molecular Quadrature <=

    Radial Scheme          =       TREUTLER
    Pruning Scheme         =           NONE
    Nuclear Scheme         =       TREUTLER

    BS radius alpha        =              1
    Pruning alpha          =              1
    Radial Points          =             75
    Spherical Points       =            302
    Total Points           =          86913
    Total Blocks           =            769
    Max Points             =            256
    Max Functions          =            249
    Weights Tolerance      =       1.00E-15

   => Loading Basis Set <=

    Name: (DEF2-TZVPPD AUX)
    Role: JKFIT
    Keyword: DF_BASIS_SCF
    atoms 1-4 entry CU         line  2356 file /mnt/storage/home/zw18965/.conda/envs/p4env/share/psi4/basis/def2-universal-jkfit.gbs 

  ==> Integral Setup <==

  DFHelper Memory: AOs need 1.074 GiB; user supplied 99.613 GiB. Using in-core AOs.

  ==> MemDFJK: Density-Fitted J/K Matrices <==

    J tasked:                   Yes
    K tasked:                   Yes
    wK tasked:                  Yes
    Omega:                2.500E-01
    OpenMP threads:              28
    Memory [MiB]:            102003
    Algorithm:                 Core
    Schwarz Cutoff:           1E-12
    Mask sparsity (%):       8.8800
    Fitting Condition:        1E-10

   => Auxiliary Basis Set <=

  Basis Set: (DEF2-TZVPPD AUX)
    Blend: DEF2-UNIVERSAL-JKFIT
    Number of shells: 232
    Number of basis functions: 1056
    Number of Cartesian functions: 1508
    Spherical Harmonics?: true
    Max angular momentum: 6

  Cached 100.0% of DFT collocation blocks in 0.970 [GiB].

  Minimum eigenvalue in the overlap matrix is 7.1201892812E-04.
  Reciprocal condition number of the overlap matrix is 9.2568595854E-05.
    Using symmetric orthogonalization.

  ==> Pre-Iterations <==

  SCF Guess: Superposition of Atomic Densities via on-the-fly atomic UHF (no occupation information).

   -------------------------
    Irrep   Nso     Nmo    
   -------------------------
     A        268     268 
   -------------------------
    Total     268     268
   -------------------------

  ==> Iterations <==

                           Total Energy        Delta E     RMS |[F,P]|

   @DF-RKS iter SAD: -6551.90815124101118   -6.55191e+03   0.00000e+00 
   @DF-RKS iter   1: -6551.23669852914099    6.71453e-01   2.92576e-02 DIIS
   @DF-RKS iter   2: -6387.81789890188065    1.63419e+02   7.01858e-02 DIIS
   @DF-RKS iter   3: -6558.66221462584053   -1.70844e+02   1.11243e-02 DIIS
   @DF-RKS iter   4: -6560.57270503810196   -1.91049e+00   4.32399e-03 DIIS
   @DF-RKS iter   5: -6560.73219977712870   -1.59495e-01   2.01275e-03 DIIS
   @DF-RKS iter   6: -6560.76804741672640   -3.58476e-02   7.13507e-04 DIIS
   @DF-RKS iter   7: -6560.77363411469014   -5.58670e-03   2.65585e-05 DIIS
   @DF-RKS iter   8: -6560.77366919058568   -3.50759e-05   3.16065e-05 DIIS
   @DF-RKS iter   9: -6560.77368924829443   -2.00577e-05   8.48162e-06 DIIS
   @DF-RKS iter  10: -6560.77370364227318   -1.43940e-05   4.02972e-06 DIIS
   @DF-RKS iter  11: -6560.77370494207389   -1.29980e-06   7.16239e-07 DIIS
   @DF-RKS iter  12: -6560.77370501271344   -7.06395e-08   3.50961e-07 DIIS
  Energy and wave function converged.


  ==> Post-Iterations <==

   Electrons on quadrature grid:
      Ntotal   =  113.9999894818 ; deviation = -1.052e-05 

    Orbital Energies [Eh]
    ---------------------

    Doubly Occupied:                                                      

       1A   -324.326884     2A   -324.326875     3A   -324.326870  
       4A   -324.326849     5A    -39.453692     6A    -39.453685  
       7A    -39.453671     8A    -39.453590     9A    -34.719705  
      10A    -34.719703    11A    -34.719697    12A    -34.719687  
      13A    -34.719684    14A    -34.719682    15A    -34.719666  
      16A    -34.719665    17A    -34.719583    18A    -34.719575  
      19A    -34.719566    20A    -34.719545    21A     -4.811216  
      22A     -4.810728    23A     -4.810722    24A     -4.810715  
      25A     -3.334970    26A     -3.332874    27A     -3.332874  
      28A     -3.332873    29A     -3.332190    30A     -3.332188  
      31A     -3.330799    32A     -3.330797    33A     -3.330792  
      34A     -3.330417    35A     -3.330412    36A     -3.330411  
      37A     -0.864694    38A     -0.836372    39A     -0.836369  
      40A     -0.836367    41A     -0.826828    42A     -0.826826  
      43A     -0.817303    44A     -0.817299    45A     -0.817296  
      46A     -0.797019    47A     -0.797017    48A     -0.797010  
      49A     -0.793574    50A     -0.793570    51A     -0.791818  
      52A     -0.791813    53A     -0.791803    54A     -0.773434  
      55A     -0.773427    56A     -0.773425    57A     -0.740640  

    Virtual:                                                              

      58A     -0.372372    59A     -0.372370    60A     -0.372368  
      61A     -0.301080    62A     -0.266490    63A     -0.266489  
      64A     -0.266488    65A     -0.259817    66A     -0.259816  
      67A     -0.200537    68A     -0.200536    69A     -0.200534  
      70A     -0.175501    71A     -0.175498    72A     -0.175498  
      73A     -0.143900    74A     -0.124527    75A     -0.124524  
      76A     -0.124523    77A     -0.123543    78A     -0.123182  
      79A     -0.123181    80A     -0.098981    81A     -0.098973  
      82A     -0.098972    83A     -0.051151    84A     -0.051109  
      85A     -0.051090    86A     -0.037111    87A     -0.037108  
      88A     -0.037107    89A     -0.023126    90A     -0.023124  
      91A     -0.023121    92A     -0.009876    93A     -0.009873  
      94A     -0.000833    95A     -0.000828    96A     -0.000825  
      97A      0.024720    98A      0.063836    99A      0.063838  
     100A      0.063840   101A      0.063954   102A      0.063955  
     103A      0.150231   104A      0.150232   105A      0.150240  
     106A      0.186452   107A      0.186471   108A      0.186508  
     109A      0.351412   110A      0.417981   111A      0.417999  
     112A      0.426296   113A      0.426306   114A      0.426316  
     115A      0.484962   116A      0.484977   117A      0.484984  
     118A      0.530024   119A      0.530036   120A      0.530046  
     121A      0.541817   122A      0.592614   123A      0.592631  
     124A      0.592633   125A      0.626381   126A      0.626405  
     127A      0.715439   128A      0.715464   129A      0.715487  
     130A      0.734576   131A      0.734583   132A      0.734608  
     133A      0.778806   134A      0.778842   135A      0.957585  
     136A      0.957671   137A      0.957678   138A      0.974099  
     139A      0.974106   140A      0.974116   141A      2.712526  
     142A      2.712531   143A      2.712571   144A      2.740208  
     145A      2.740222   146A      2.752454   147A      2.858184  
     148A      2.858205   149A      2.858261   150A      2.893482  
     151A      2.921857   152A      2.921866   153A      2.921889  
     154A      3.122005   155A      3.122014   156A      3.122054  
     157A      3.127038   158A      3.149207   159A      3.149260  
     160A      3.149262   161A      3.155884   162A      3.155912  
     163A      3.155938   164A      3.157898   165A      3.157915  
     166A      3.161579   167A      3.163825   168A      3.163851  
     169A      3.163866   170A      3.164236   171A      3.164254  
     172A      3.164262   173A      3.171301   174A      3.171317  
     175A      3.178736   176A      3.178750   177A      3.178771  
     178A      3.195532   179A      3.204902   180A      3.204916  
     181A      3.204942   182A      3.330092   183A      3.330113  
     184A      3.330117   185A      3.409146   186A      3.409165  
     187A      3.409227   188A      3.463765   189A      3.463833  
     190A      3.473182   191A      3.473231   192A      3.473251  
     193A      3.621878   194A      3.639283   195A      3.639312  
     196A      3.639318   197A      3.669503   198A      3.669564  
     199A      3.697427   200A      3.697458   201A      3.697483  
     202A      4.071177   203A      4.071254   204A      4.071313  
     205A     12.592597   206A     12.592628   207A     12.592669  
     208A     12.592690   209A     12.592691   210A     12.592749  
     211A     12.592768   212A     12.592827   213A     12.592878  
     214A     12.592918   215A     12.592951   216A     12.592977  
     217A     12.592998   218A     12.593037   219A     12.593039  
     220A     12.593062   221A     12.593094   222A     12.593112  
     223A     12.593122   224A     12.593153   225A     12.593159  
     226A     12.593179   227A     12.593256   228A     12.593331  
     229A     12.593341   230A     12.593566   231A     12.593615  
     232A     12.593656   233A     12.593895   234A     12.593932  
     235A     12.594088   236A     12.594138   237A     12.594185  
     238A     12.595811   239A     12.595866   240A     12.595899  
     241A     12.801673   242A     12.802004   243A     12.802011  
     244A     12.802022   245A     12.802529   246A     12.802550  
     247A     12.802563   248A     12.804302   249A     12.804694  
     250A     12.804707   251A     12.804719   252A     12.807293  
     253A     12.807295   254A     12.808829   255A     12.808855  
     256A     12.808858   257A     12.812133   258A     12.812935  
     259A     12.812955   260A     12.812987   261A     12.817005  
     262A     12.817010   263A     12.865842   264A     12.865862  
     265A     12.865873   266A     12.873365   267A     12.873373  
     268A     12.873384  

    Final Occupation by Irrep:
              A 
    DOCC [    57 ]

  @DF-RKS Final Energy: -6560.77370501271344

   => Energetics <=

    Nuclear Repulsion Energy =           1098.4462396717549382
    One-Electron Energy =              -11298.7015086262672412
    Two-Electron Energy =                3786.0262843940640778
    DFT Exchange-Correlation Energy =    -146.5416003222657366
    Empirical Dispersion Energy =          -0.0031201300000000
    VV10 Nonlocal Energy =                  0.0000000000000000
    Total Energy =                      -6560.7737050127134353

Computation Completed


Properties will be evaluated at   0.000000,   0.000000,   0.000000 [a0]

Properties computed using the SCF density matrix

  Nuclear Dipole Moment: [e a0]
     X:     0.0000      Y:    -0.0000      Z:     0.0000

  Electronic Dipole Moment: [e a0]
     X:    -0.0000      Y:    -0.0000      Z:     0.0001

  Dipole Moment: [e a0]
     X:    -0.0000      Y:    -0.0000      Z:     0.0001     Total:     0.0001

  Dipole Moment: [D]
     X:    -0.0001      Y:    -0.0001      Z:     0.0002     Total:     0.0002


*** tstop() called on compute405.bc4.acrc.priv at Tue Nov  2 11:06:51 2021
Module time:
	user time   =     171.60 seconds =       2.86 minutes
	system time =       8.42 seconds =       0.14 minutes
	total time  =         10 seconds =       0.17 minutes
Total time:
	user time   =     171.60 seconds =       2.86 minutes
	system time =       8.42 seconds =       0.14 minutes
	total time  =         10 seconds =       0.17 minutes

    Psi4 stopped on: Tuesday, 02 November 2021 11:06AM
    Psi4 wall time for execution: 0:00:09.74

*** Psi4 exiting successfully. Buy a developer a beer!
