
    -----------------------------------------------------------------------
          Psi4: An Open-Source Ab Initio Electronic Structure Package
                               Psi4 1.4.1 release

                         Git: Rev {HEAD} cd00f19 


    D. G. A. Smith, L. A. Burns, A. C. Simmonett, R. M. Parrish,
    M. C. Schieber, R. Galvelis, P. Kraus, H. Kruse, R. Di Remigio,
    A. Alenaizan, A. M. James, S. Lehtola, J. P. Misiewicz, M. Scheurer,
    R. A. Shaw, J. B. Schriber, Y. Xie, Z. L. Glick, D. A. Sirianni,
    J. S. O'Brien, J. M. Waldrop, A. Kumar, E. G. Hohenstein,
    B. P. Pritchard, B. R. Brooks, H. F. Schaefer III, A. Yu. Sokolov,
    K. Patkowski, A. E. DePrince III, U. Bozkaya, R. A. King,
    F. A. Evangelista, J. M. Turney, T. D. Crawford, C. D. Sherrill,
    J. Chem. Phys. 152(18) 184108 (2020). https://doi.org/10.1063/5.0006002

                            Additional Code Authors
    E. T. Seidl, C. L. Janssen, E. F. Valeev, M. L. Leininger,
    J. F. Gonthier, R. M. Richard, H. R. McAlexander, M. Saitow, X. Wang,
    P. Verma, and M. H. Lechner

             Previous Authors, Complete List of Code Contributors,
                       and Citations for Specific Modules
    https://github.com/psi4/psi4/blob/master/codemeta.json
    https://github.com/psi4/psi4/graphs/contributors
    http://psicode.org/psi4manual/master/introduction.html#citing-psifour

    -----------------------------------------------------------------------


    Psi4 started on: Tuesday, 02 November 2021 11:06AM

    Process ID: 16000
    Host:       compute405.bc4.acrc.priv
    PSIDATADIR: /mnt/storage/home/zw18965/.conda/envs/p4env/share/psi4
    Memory:     500.0 MiB
    Threads:    28
    
  ==> Input File <==

--------------------------------------------------------------------------
memory 144 GB

molecule {
2 1
Cu       0.253817    1.375381    0.000000 
Cu       0.253817   -0.687598    1.191098 
Cu       0.253817   -0.687598   -1.191098 
Cu      -1.745352    0.000159    0.000000 
N        2.725949   -0.000959   -0.000000 
H        3.150217   -0.936878   -0.000000 
H        3.150637    0.466806   -0.810419 
H        3.150637    0.466806    0.810419 
 }

set basis Def2-TZVPPD

energy("M11-D3BJ")
--------------------------------------------------------------------------

  Memory set to 134.110 GiB by Python driver.

Scratch directory: /tmp/

*** tstart() called on compute405.bc4.acrc.priv
*** at Tue Nov  2 11:06:19 2021

   => Loading Basis Set <=

    Name: DEF2-TZVPPD
    Role: ORBITAL
    Keyword: BASIS
    atoms 1-4 entry CU         line  1290 file /mnt/storage/home/zw18965/.conda/envs/p4env/share/psi4/basis/def2-tzvppd.gbs 
    atoms 5   entry N          line   181 file /mnt/storage/home/zw18965/.conda/envs/p4env/share/psi4/basis/def2-tzvppd.gbs 
    atoms 6-8 entry H          line    14 file /mnt/storage/home/zw18965/.conda/envs/p4env/share/psi4/basis/def2-tzvppd.gbs 

   => M11-D3(BJ): Empirical Dispersion <=

    Grimme's -D3 (BJ-damping) Dispersion Correction
    Grimme S.; Ehrlich S.; Goerigk L. (2011), J. Comput. Chem., 32: 1456
    Parametrisation from:    L. Goerigk, J. Phys. Chem. Lett. 6, 3891-3896, 2015

        s6 =       1.000000
        s8 =       2.811200
        a1 =       0.000000
        a2 =      10.138900


         ---------------------------------------------------------
                                   SCF
               by Justin Turney, Rob Parrish, Andy Simmonett
                          and Daniel G. A. Smith
                              RKS Reference
                       28 Threads, 137329 MiB Core
         ---------------------------------------------------------

  ==> Geometry <==

    Molecular point group: cs
    Full point group: Cs

    Geometry (in Angstrom), charge = 2, multiplicity = 1:

       Center              X                  Y                   Z               Mass       
    ------------   -----------------  -----------------  -----------------  -----------------
         CU           0.306727314614     1.375362665601     0.000000000000    62.929597720000
         CU           0.306727314614    -0.687616334399     1.191098000000    62.929597720000
         CU           0.306727314614    -0.687616334399    -1.191098000000    62.929597720000
         CU          -1.692441685386     0.000140665601     0.000000000000    62.929597720000
         N            2.778859314614    -0.000977334399     0.000000000000    14.003074004430
         H            3.203127314614    -0.936896334399     0.000000000000     1.007825032230
         H            3.203547314614     0.466787665601    -0.810419000000     1.007825032230
         H            3.203547314614     0.466787665601     0.810419000000     1.007825032230

  Running in cs symmetry.

  Rotational constants: A =      0.04686  B =      0.03260  C =      0.03260 [cm^-1]
  Rotational constants: A =   1404.79352  B =    977.43796  C =    977.41725 [MHz]
  Nuclear repulsion = 1311.373965716146131

  Charge       = 2
  Multiplicity = 1
  Electrons    = 124
  Nalpha       = 62
  Nbeta        = 62

  ==> Algorithm <==

  SCF Algorithm Type is DF.
  DIIS enabled.
  MOM disabled.
  Fractional occupation disabled.
  Guess Type is SAD.
  Energy threshold   = 1.00e-06
  Density threshold  = 1.00e-06
  Integral threshold = 1.00e-12

  ==> Primary Basis <==

  Basis Set: DEF2-TZVPPD
    Blend: DEF2-TZVPPD
    Number of shells: 110
    Number of basis functions: 356
    Number of Cartesian functions: 429
    Spherical Harmonics?: true
    Max angular momentum: 4

  ==> DFT Potential <==

   => Composite Functional: M11-D3BJ <= 

    M11 Meta-GGA XC Functional
(10.1021/jz201170d)
    R. Peverati and D. G. Truhlar, J. Phys. Chem. Lett., 2, 2810, 2011


    Deriv               =              1
    GGA                 =           TRUE
    Meta                =           TRUE

    Exchange Hybrid     =           TRUE
    MP2 Hybrid          =          FALSE

   => Exchange Functionals <=

    1.0000   XC_HYB_MGGA_X_M11 [omega = 0.2500]

   => Exact (HF) Exchange <=

    0.5720            HF,LR [omega = 0.2500]
    0.4280               HF 

   => Correlation Functionals <=

    1.0000    XC_MGGA_C_M11

   => LibXC Density Thresholds  <==

    XC_MGGA_C_M11:  1.00E-15 
    XC_HYB_MGGA_X_M11:  1.00E-11 

   => Molecular Quadrature <=

    Radial Scheme          =       TREUTLER
    Pruning Scheme         =           NONE
    Nuclear Scheme         =       TREUTLER

    BS radius alpha        =              1
    Pruning alpha          =              1
    Radial Points          =             75
    Spherical Points       =            302
    Total Points           =         172119
    Total Blocks           =           1390
    Max Points             =            256
    Max Functions          =            309
    Weights Tolerance      =       1.00E-15

   => Loading Basis Set <=

    Name: (DEF2-TZVPPD AUX)
    Role: JKFIT
    Keyword: DF_BASIS_SCF
    atoms 1-4 entry CU         line  2356 file /mnt/storage/home/zw18965/.conda/envs/p4env/share/psi4/basis/def2-universal-jkfit.gbs 
    atoms 5   entry N          line   258 file /mnt/storage/home/zw18965/.conda/envs/p4env/share/psi4/basis/def2-universal-jkfit.gbs 
    atoms 6-8 entry H          line    18 file /mnt/storage/home/zw18965/.conda/envs/p4env/share/psi4/basis/def2-universal-jkfit.gbs 

  ==> Integral Setup <==

  DFHelper Memory: AOs need 2.058 GiB; user supplied 98.146 GiB. Using in-core AOs.

  ==> MemDFJK: Density-Fitted J/K Matrices <==

    J tasked:                   Yes
    K tasked:                   Yes
    wK tasked:                  Yes
    Omega:                2.500E-01
    OpenMP threads:              28
    Memory [MiB]:            100501
    Algorithm:                 Core
    Schwarz Cutoff:           1E-12
    Mask sparsity (%):      11.4837
    Fitting Condition:        1E-10

   => Auxiliary Basis Set <=

  Basis Set: (DEF2-TZVPPD AUX)
    Blend: DEF2-UNIVERSAL-JKFIT
    Number of shells: 275
    Number of basis functions: 1187
    Number of Cartesian functions: 1661
    Spherical Harmonics?: true
    Max angular momentum: 6

  Cached 100.0% of DFT collocation blocks in 2.437 [GiB].

  Minimum eigenvalue in the overlap matrix is 1.5828041556E-04.
  Reciprocal condition number of the overlap matrix is 1.6731804680E-05.
    Using symmetric orthogonalization.

  ==> Pre-Iterations <==

  SCF Guess: Superposition of Atomic Densities via on-the-fly atomic UHF (no occupation information).

   -------------------------
    Irrep   Nso     Nmo    
   -------------------------
     A'       207     207 
     A"       149     149 
   -------------------------
    Total     356     356
   -------------------------

  ==> Iterations <==

                           Total Energy        Delta E     RMS |[F,P]|

   @DF-RKS iter SAD: -6608.48004885591399   -6.60848e+03   0.00000e+00 
    Occupation by irrep:
             Ap   App 
    DOCC [    40,   22 ]

   @DF-RKS iter   1: -6606.12614754487277    2.35390e+00   3.17384e-02 DIIS
    Occupation by irrep:
             Ap   App 
    DOCC [    39,   23 ]

   @DF-RKS iter   2: -6365.73685209709311    2.40389e+02   7.67245e-02 DIIS
    Occupation by irrep:
             Ap   App 
    DOCC [    40,   22 ]

   @DF-RKS iter   3: -6594.05536743469838   -2.28319e+02   1.98159e-02 DIIS
   @DF-RKS iter   4: -6507.61693140590978    8.64384e+01   4.88338e-02 DIIS
    Occupation by irrep:
             Ap   App 
    DOCC [    39,   23 ]

   @DF-RKS iter   5: -6598.68430837773849   -9.10674e+01   2.49494e-02 DIIS
   @DF-RKS iter   6: -6578.57412406920685    2.01102e+01   3.10063e-02 DIIS
   @DF-RKS iter   7: -6616.50587199454185   -3.79317e+01   8.15488e-03 DIIS
   @DF-RKS iter   8: -6616.88861411278867   -3.82742e-01   5.40820e-03 DIIS
   @DF-RKS iter   9: -6617.12042802715769   -2.31814e-01   4.62112e-03 DIIS
   @DF-RKS iter  10: -6617.31593729205451   -1.95509e-01   2.47388e-03 DIIS
   @DF-RKS iter  11: -6617.37482322438609   -5.88859e-02   6.09866e-04 DIIS
   @DF-RKS iter  12: -6617.38121505212075   -6.39183e-03   1.74744e-04 DIIS
   @DF-RKS iter  13: -6617.38190342669077   -6.88375e-04   5.24245e-05 DIIS
   @DF-RKS iter  14: -6617.38205574277526   -1.52316e-04   1.92002e-05 DIIS
   @DF-RKS iter  15: -6617.38207704801243   -2.13052e-05   1.02358e-05 DIIS
   @DF-RKS iter  16: -6617.38208228598523   -5.23797e-06   2.99501e-06 DIIS
   @DF-RKS iter  17: -6617.38208267893060   -3.92945e-07   1.14292e-06 DIIS
   @DF-RKS iter  18: -6617.38208279832907   -1.19398e-07   3.86310e-07 DIIS
  Energy and wave function converged.


  ==> Post-Iterations <==

   Electrons on quadrature grid:
      Ntotal   =  123.9999915486 ; deviation = -8.451e-06 

    Orbital Energies [Eh]
    ---------------------

    Doubly Occupied:                                                      

       1App -324.293988     1Ap  -324.293986     2Ap  -324.293979  
       3Ap  -324.286146     2App  -39.420756     4Ap   -39.420754  
       5Ap   -39.420707     6Ap   -39.414356     3App  -34.687335  
       7Ap   -34.687318     4App  -34.687316     5App  -34.686578  
       8Ap   -34.686576     9Ap   -34.686564     6App  -34.686231  
      10Ap   -34.686230    11Ap   -34.686223    12Ap   -34.680224  
       7App  -34.680037    13Ap   -34.680037    14Ap   -14.923064  
      15Ap    -4.778828    16Ap    -4.778310     8App   -4.778309  
      17Ap    -4.770712    18Ap    -3.302724     9App   -3.301333  
      19Ap    -3.301332    10App   -3.299369    11App   -3.298630  
      20Ap    -3.298626    21Ap    -3.298615    22Ap    -3.297801  
      12App   -3.297799    23Ap    -3.291614    24Ap    -3.290664  
      13App   -3.290664    25Ap    -1.323612    26Ap    -0.909780  
      14App   -0.909779    27Ap    -0.834133    28Ap    -0.814131  
      29Ap    -0.803426    15App   -0.803425    16App   -0.793996  
      30Ap    -0.793993    31Ap    -0.791140    17App   -0.781273  
      32Ap    -0.781269    33Ap    -0.770459    18App   -0.763430  
      19App   -0.763329    34Ap    -0.763321    20App   -0.759448  
      35Ap    -0.759445    21App   -0.756860    36Ap    -0.756859  
      37Ap    -0.747654    22App   -0.740375    38Ap    -0.737179  
      23App   -0.737178    39Ap    -0.677721  

    Virtual:                                                              

      40Ap    -0.346471    24App   -0.346467    41Ap    -0.323266  
      42Ap    -0.282497    25App   -0.250178    43Ap    -0.250177  
      44Ap    -0.237170    26App   -0.237167    45Ap    -0.229368  
      46Ap    -0.192755    47Ap    -0.192725    27App   -0.192722  
      48Ap    -0.165305    28App   -0.165303    29App   -0.165029  
      49Ap    -0.156850    50Ap    -0.143331    30App   -0.143316  
      51Ap    -0.133945    31App   -0.116053    52Ap    -0.116046  
      53Ap    -0.111734    32App   -0.111726    54Ap    -0.107779  
      55Ap    -0.101065    33App   -0.065344    56Ap    -0.065334  
      57Ap    -0.065057    58Ap    -0.048977    34App   -0.048951  
      35App   -0.040859    59Ap    -0.040834    60Ap    -0.034020  
      36App   -0.026407    61Ap    -0.022407    37App   -0.022402  
      62Ap    -0.003216    38App   -0.000543    63Ap    -0.000542  
      39App    0.003571    64Ap     0.030147    40App    0.030148  
      65Ap     0.040184    66Ap     0.042434    67Ap     0.053139  
      41App    0.053156    68Ap     0.057850    42App    0.057861  
      69Ap     0.067464    43App    0.081535    70Ap     0.081535  
      71Ap     0.099769    44App    0.099771    45App    0.104392  
      72Ap     0.104553    73Ap     0.140220    46App    0.140224  
      74Ap     0.165176    75Ap     0.168345    47App    0.168374  
      48App    0.177986    76Ap     0.207079    77Ap     0.209703  
      49App    0.209706    50App    0.216501    78Ap     0.216502  
      79Ap     0.256657    51App    0.256729    80Ap     0.268254  
      81Ap     0.324972    82Ap     0.443858    52App    0.443864  
      83Ap     0.459984    84Ap     0.470566    85Ap     0.481480  
      53App    0.481528    86Ap     0.486662    54App    0.486689  
      87Ap     0.513951    55App    0.541175    88Ap     0.541237  
      89Ap     0.567930    56App    0.575762    90Ap     0.575791  
      91Ap     0.589322    57App    0.592380    92Ap     0.592444  
      93Ap     0.610669    58App    0.643145    94Ap     0.669912  
      59App    0.669924    60App    0.690445    95Ap     0.690475  
      96Ap     0.707041    61App    0.750714    97Ap     0.763299  
      62App    0.763372    98Ap     0.787185    63App    0.787199  
      99Ap     0.810863   100Ap     0.830031    64App    0.830072  
      65App    0.846968    66App    0.918928   101Ap     0.918978  
     102Ap     0.950478    67App    0.981746   103Ap     0.981754  
      68App    1.008989    69App    1.010849   104Ap     1.010884  
     105Ap     1.035631    70App    1.035665   106Ap     1.051066  
     107Ap     1.078237    71App    1.078257   108Ap     1.255482  
     109Ap     1.398950    72App    1.398950   110Ap     1.460736  
      73App    1.565857   111Ap     1.565906   112Ap     2.183698  
     113Ap     2.326828   114Ap     2.353049    74App    2.353174  
     115Ap     2.513424    75App    2.705437   116Ap     2.705504  
     117Ap     2.767667   118Ap     2.771841    76App    2.771880  
     119Ap     2.828163   120Ap     2.831935    77App    2.831963  
     121Ap     2.863732   122Ap     2.876699    78App    2.876704  
      79App    2.944550    80App    2.966525   123Ap     2.966537  
     124Ap     2.985363    81App    3.002519   125Ap     3.033463  
      82App    3.033531    83App    3.097179   126Ap     3.097180  
     127Ap     3.102895    84App    3.157276   128Ap     3.157276  
     129Ap     3.160469   130Ap     3.180800    85App    3.191656  
     131Ap     3.191661    86App    3.192059   132Ap     3.194959  
      87App    3.194966    88App    3.196887    89App    3.201632  
     133Ap     3.201640    90App    3.203237    91App    3.203447  
     134Ap     3.203480    92App    3.204833   135Ap     3.204864  
     136Ap     3.208181    93App    3.208701   137Ap     3.208732  
     138Ap     3.229410   139Ap     3.232728    94App    3.232751  
     140Ap     3.240248    95App    3.247565   141Ap     3.247596  
      96App    3.253718    97App    3.269795   142Ap     3.289666  
      98App    3.289678   143Ap     3.291969   144Ap     3.381514  
      99App    3.406294   145Ap     3.406307   146Ap     3.470190  
     100App    3.470210   147Ap     3.510230   101App    3.510332  
     148Ap     3.511077   102App    3.511201   149Ap     3.548803  
     103App    3.548866   150Ap     3.647408   151Ap     3.654606  
     104App    3.654714   152Ap     3.694776   105App    3.705026  
     153Ap     3.705054   154Ap     3.720530   155Ap     3.722824  
     106App    3.722933   156Ap     3.732938   107App    3.732979  
     108App    3.733258   109App    3.773609   157Ap     3.773762  
     158Ap     3.932851   159Ap     3.954582   110App    3.954697  
     111App    4.103904   160Ap     4.151851   112App    4.190157  
     161Ap     4.190172   113App    4.225430   162Ap     4.225541  
     163Ap     4.282131   164Ap     4.435188   165Ap     4.595304  
     114App    4.595328   115App    4.892805   166Ap     4.892913  
     167Ap     4.928828   168Ap     5.161656   116App    5.458585  
     117App    5.549415   169Ap     5.549421   118App    5.651821  
     170Ap     5.651865   171Ap     6.046912   119App    6.285226  
     172Ap     6.285606   173Ap    12.623913   120App   12.624116  
     174Ap    12.624379   121App   12.624395   175Ap    12.624703  
     122App   12.624839   176Ap    12.624856   123App   12.624916  
     124App   12.625081   177Ap    12.625178   178Ap    12.625258  
     125App   12.625372   126App   12.625730   179Ap    12.625797  
     127App   12.625877   180Ap    12.625986   128App   12.626160  
     181Ap    12.626223   129App   12.626365   182Ap    12.626421  
     130App   12.626505   131App   12.626876   183Ap    12.626996  
     184Ap    12.627460   132App   12.627833   185Ap    12.627848  
     186Ap    12.629071   187Ap    12.634842   133App   12.634855  
     188Ap    12.634903   134App   12.635024   189Ap    12.635213  
     135App   12.635254   190Ap    12.635687   191Ap    12.636162  
     136App   12.636193   137App   12.834764   192Ap    12.836159  
     193Ap    12.837736   138App   12.837763   194Ap    12.838460  
     139App   12.838468   140App   12.839761   195Ap    12.841465  
     141App   12.841484   196Ap    12.843520   197Ap    12.844488  
     142App   12.844491   143App   12.846278   198Ap    12.846663  
     144App   12.846670   199Ap    12.848285   145App   12.850140  
     200Ap    12.850143   201Ap    12.853225   146App   12.855165  
     202Ap    12.855168   203Ap    12.865781   204Ap    12.906960  
     147App   12.906975   148App   12.912645   205Ap    12.913268  
     206Ap    12.923134   149App   12.923154   207Ap    32.260920  

    Final Occupation by Irrep:
             Ap   App 
    DOCC [    39,   23 ]

  @DF-RKS Final Energy: -6617.38208279832907

   => Energetics <=

    Nuclear Repulsion Energy =           1311.3739657161461309
    One-Electron Energy =              -11800.9233105245075421
    Two-Electron Energy =                4022.6877746982495410
    DFT Exchange-Correlation Energy =    -150.5165866682175135
    Empirical Dispersion Energy =          -0.0039260200000000
    VV10 Nonlocal Energy =                  0.0000000000000000
    Total Energy =                      -6617.3820827983290656

Computation Completed


Properties will be evaluated at   0.000000,   0.000000,   0.000000 [a0]

Properties computed using the SCF density matrix

  Nuclear Dipole Moment: [e a0]
     X:    12.5982      Y:    -0.0044      Z:    -0.0000

  Electronic Dipole Moment: [e a0]
     X:   -11.1320      Y:     0.0038      Z:     0.0000

  Dipole Moment: [e a0]
     X:     1.4662      Y:    -0.0006      Z:    -0.0000     Total:     1.4662

  Dipole Moment: [D]
     X:     3.7268      Y:    -0.0014      Z:    -0.0000     Total:     3.7268


*** tstop() called on compute405.bc4.acrc.priv at Tue Nov  2 11:06:38 2021
Module time:
	user time   =     388.59 seconds =       6.48 minutes
	system time =      19.72 seconds =       0.33 minutes
	total time  =         19 seconds =       0.32 minutes
Total time:
	user time   =     388.59 seconds =       6.48 minutes
	system time =      19.72 seconds =       0.33 minutes
	total time  =         19 seconds =       0.32 minutes

    Psi4 stopped on: Tuesday, 02 November 2021 11:06AM
    Psi4 wall time for execution: 0:00:19.06

*** Psi4 exiting successfully. Buy a developer a beer!
