Traceback (most recent call last):
  File "/work/zw18965/.conda/envs/p4env/bin/psi4", line 287, in <module>
    exec(content)
  File "<string>", line 27, in <module>
  File "/work/zw18965/.conda/envs/p4env/lib//python3.7/site-packages/psi4/driver/driver.py", line 521, in energy
    optstash = driver_util._set_convergence_criterion('energy', lowername, 6, 8, 6, 8, 6)
  File "/work/zw18965/.conda/envs/p4env/lib//python3.7/site-packages/psi4/driver/driver_util.py", line 77, in _set_convergence_criterion
    _method_exists(ptype, method_name)
  File "/work/zw18965/.conda/envs/p4env/lib//python3.7/site-packages/psi4/driver/driver_util.py", line 49, in _method_exists
    raise ValidationError('%s method "%s" is not available.%s' % (Cptype, method_name, alternatives))

psi4.driver.p4util.exceptions.ValidationError: Energy method "scan-d3bj" is not available. Did you mean? scf-d3bj

Printing out the relevant lines from the Psithon --> Python processed input file:
    Ag       0.000000    0.000000    0.317712 
    F        0.000000    0.000000   -1.659163 
     """)
    core.IO.set_default_namespace("")
    core.set_global_option("BASIS", "Def2-TZVPPD")
--> energy("SCAN-D3BJ")

8965/.conda/envs/p4env/share/psi4
    Memory:     500.0 MiB
    Threads:    24
    
  ==> Input File <==

--------------------------------------------------------------------------
memory 144 GB

molecule {
0 1
Ag       0.000000    0.000000    0.317712 
F        0.000000    0.000000   -1.659163 
 }

set basis Def2-TZVPPD

energy("SCAN-D3BJ")
--------------------------------------------------------------------------

  Memory set to 134.110 GiB by Python driver.

Traceback (most recent call last):
  File "/work/zw18965/.conda/envs/p4env/bin/psi4", line 287, in <module>
    exec(content)
  File "<string>", line 27, in <module>
  File "/work/zw18965/.conda/envs/p4env/lib//python3.7/site-packages/psi4/driver/driver.py", line 521, in energy
    optstash = driver_util._set_convergence_criterion('energy', lowername, 6, 8, 6, 8, 6)
  File "/work/zw18965/.conda/envs/p4env/lib//python3.7/site-packages/psi4/driver/driver_util.py", line 77, in _set_convergence_criterion
    _method_exists(ptype, method_name)
  File "/work/zw18965/.conda/envs/p4env/lib//python3.7/site-packages/psi4/driver/driver_util.py", line 49, in _method_exists
    raise ValidationError('%s method "%s" is not available.%s' % (Cptype, method_name, alternatives))

psi4.driver.p4util.exceptions.ValidationError: Energy method "scan-d3bj" is not available. Did you mean? scf-d3bj


Printing out the relevant lines from the Psithon --> Python processed input file:
    Ag       0.000000    0.000000    0.317712 
    F        0.000000    0.000000   -1.659163 
     """)
    core.IO.set_default_namespace("")
    core.set_global_option("BASIS", "Def2-TZVPPD")
--> energy("SCAN-D3BJ")

    Psi4 stopped on: Thursday, 28 October 2021 03:29PM
    Psi4 wall time for execution: 0:00:00.06

*** Psi4 encountered an error. Buy a developer more coffee!
*** Resources and help at github.com/psi4/psi4.
