
    -----------------------------------------------------------------------
          Psi4: An Open-Source Ab Initio Electronic Structure Package
                               Psi4 1.4.1 release

                         Git: Rev {HEAD} cd00f19 


    D. G. A. Smith, L. A. Burns, A. C. Simmonett, R. M. Parrish,
    M. C. Schieber, R. Galvelis, P. Kraus, H. Kruse, R. Di Remigio,
    A. Alenaizan, A. M. James, S. Lehtola, J. P. Misiewicz, M. Scheurer,
    R. A. Shaw, J. B. Schriber, Y. Xie, Z. L. Glick, D. A. Sirianni,
    J. S. O'Brien, J. M. Waldrop, A. Kumar, E. G. Hohenstein,
    B. P. Pritchard, B. R. Brooks, H. F. Schaefer III, A. Yu. Sokolov,
    K. Patkowski, A. E. DePrince III, U. Bozkaya, R. A. King,
    F. A. Evangelista, J. M. Turney, T. D. Crawford, C. D. Sherrill,
    J. Chem. Phys. 152(18) 184108 (2020). https://doi.org/10.1063/5.0006002

                            Additional Code Authors
    E. T. Seidl, C. L. Janssen, E. F. Valeev, M. L. Leininger,
    J. F. Gonthier, R. M. Richard, H. R. McAlexander, M. Saitow, X. Wang,
    P. Verma, and M. H. Lechner

             Previous Authors, Complete List of Code Contributors,
                       and Citations for Specific Modules
    https://github.com/psi4/psi4/blob/master/codemeta.json
    https://github.com/psi4/psi4/graphs/contributors
    http://psicode.org/psi4manual/master/introduction.html#citing-psifour

    -----------------------------------------------------------------------


    Psi4 started on: Tuesday, 02 November 2021 11:12AM

    Process ID: 17810
    Host:       compute405.bc4.acrc.priv
    PSIDATADIR: /mnt/storage/home/zw18965/.conda/envs/p4env/share/psi4
    Memory:     500.0 MiB
    Threads:    28
    
  ==> Input File <==

--------------------------------------------------------------------------
memory 144 GB

molecule {
1 1
Ag       0.000000    0.000000    0.000000 
Ag       0.000000    0.000000    2.629319 
Ag       0.000000    0.000000   -2.629319 
 }

set basis Def2-TZVPPD

energy("SCAN-D3BJ")
--------------------------------------------------------------------------

  Memory set to 134.110 GiB by Python driver.

Scratch directory: /tmp/

*** tstart() called on compute405.bc4.acrc.priv
*** at Tue Nov  2 11:12:38 2021

   => Loading Basis Set <=

    Name: DEF2-TZVPPD
    Role: ORBITAL
    Keyword: BASIS
    atoms 1-3 entry AG         line  2174 (ECP: line  3646) file /mnt/storage/home/zw18965/.conda/envs/p4env/share/psi4/basis/def2-tzvppd.gbs 

    !!!  WARNING: ECP capability is in beta. Please check occupations closely.  !!!

   => SCAN-D3(BJ): Empirical Dispersion <=

    Grimme's -D3 (BJ-damping) Dispersion Correction
    Grimme S.; Ehrlich S.; Goerigk L. (2011), J. Comput. Chem., 32: 1456
    Parametrisation from:    J.G. Brandenburg, J. E. Bates, J. Sun, J.P. Perdew, Phys. Rev. B 94, 115144, 2016

        s6 =       1.000000
        s8 =       0.000000
        a1 =       0.538000
        a2 =       5.420000


         ---------------------------------------------------------
                                   SCF
               by Justin Turney, Rob Parrish, Andy Simmonett
                          and Daniel G. A. Smith
                              RKS Reference
                       28 Threads, 137329 MiB Core
         ---------------------------------------------------------

  ==> Geometry <==

    Molecular point group: d2h
    Full point group: D_inf_h

    Geometry (in Angstrom), charge = 1, multiplicity = 1:

       Center              X                  Y                   Z               Mass       
    ------------   -----------------  -----------------  -----------------  -----------------
         AG           0.000000000000     0.000000000000     0.000000000000   106.905091600000
         AG           0.000000000000     0.000000000000     2.629319000000   106.905091600000
         AG           0.000000000000     0.000000000000    -2.629319000000   106.905091600000

  Running in d2h symmetry.

  Rotational constants: A = ************  B =      0.01140  C =      0.01140 [cm^-1]
  Rotational constants: A = ************  B =    341.90248  C =    341.90248 [MHz]
  Nuclear repulsion =  181.637310889121835

  Charge       = 1
  Multiplicity = 1
  Electrons    = 56
  Nalpha       = 28
  Nbeta        = 28

  ==> Algorithm <==

  SCF Algorithm Type is DF.
  DIIS enabled.
  MOM disabled.
  Fractional occupation disabled.
  Guess Type is SAD.
  Energy threshold   = 1.00e-06
  Density threshold  = 1.00e-06
  Integral threshold = 1.00e-12

  ==> Primary Basis <==

  Basis Set: DEF2-TZVPPD
    Blend: DEF2-TZVPPD
    Number of shells: 48
    Number of basis functions: 168
    Number of Cartesian functions: 213
    Spherical Harmonics?: true
    Max angular momentum: 4

  Core potential: DEF2-TZVPPD
    Number of shells: 12
    Number of ECP primitives: 42
    Number of ECP core electrons: 84
    Max angular momentum: 3

  ==> DFT Potential <==

   => Composite Functional: SCAN-D3BJ <= 

    SCAN Meta-GGA XC Functional
(10.1103/PhysRevLett.115.036402)
    J. Sun, A. Ruzsinszky, J. P. Perdew  Phys. Rev. Lett. 115, 036402, 2015


    Deriv               =              1
    GGA                 =           TRUE
    Meta                =           TRUE

    Exchange Hybrid     =          FALSE
    MP2 Hybrid          =          FALSE

   => Exchange Functionals <=

    1.0000   XC_MGGA_X_SCAN

   => Correlation Functionals <=

    1.0000   XC_MGGA_C_SCAN

   => LibXC Density Thresholds  <==

    XC_MGGA_C_SCAN:  1.00E-15 
    XC_MGGA_X_SCAN:  1.00E-15 

   => Molecular Quadrature <=

    Radial Scheme          =       TREUTLER
    Pruning Scheme         =           NONE
    Nuclear Scheme         =       TREUTLER

    BS radius alpha        =              1
    Pruning alpha          =              1
    Radial Points          =             75
    Spherical Points       =            302
    Total Points           =          62716
    Total Blocks           =            621
    Max Points             =            256
    Max Functions          =            148
    Weights Tolerance      =       1.00E-15

   => Loading Basis Set <=

    Name: (DEF2-TZVPPD AUX)
    Role: JKFIT
    Keyword: DF_BASIS_SCF
    atoms 1-3 entry AG         line  4364 file /mnt/storage/home/zw18965/.conda/envs/p4env/share/psi4/basis/def2-universal-jkfit.gbs 

  ==> Integral Setup <==

  DFHelper Memory: AOs need 0.158 GiB; user supplied 100.122 GiB. Using in-core AOs.

  ==> MemDFJK: Density-Fitted J/K Matrices <==

    J tasked:                   Yes
    K tasked:                    No
    wK tasked:                   No
    OpenMP threads:              28
    Memory [MiB]:            102525
    Algorithm:                 Core
    Schwarz Cutoff:           1E-12
    Mask sparsity (%):      12.9535
    Fitting Condition:        1E-10

   => Auxiliary Basis Set <=

  Basis Set: (DEF2-TZVPPD AUX)
    Blend: DEF2-UNIVERSAL-JKFIT
    Number of shells: 147
    Number of basis functions: 765
    Number of Cartesian functions: 1152
    Spherical Harmonics?: true
    Max angular momentum: 6

  Cached 100.0% of DFT collocation blocks in 0.461 [GiB].

  Minimum eigenvalue in the overlap matrix is 1.4961164880E-03.
  Reciprocal condition number of the overlap matrix is 3.7656861840E-04.
    Using symmetric orthogonalization.

  ==> Pre-Iterations <==

  SCF Guess: Superposition of Atomic Densities via on-the-fly atomic UHF (no occupation information).

   -------------------------
    Irrep   Nso     Nmo    
   -------------------------
     Ag        38      38 
     B1g       12      12 
     B2g       18      18 
     B3g       18      18 
     Au         9       9 
     B1u       31      31 
     B2u       21      21 
     B3u       21      21 
   -------------------------
    Total     168     168
   -------------------------

  ==> Iterations <==

                           Total Energy        Delta E     RMS |[F,P]|

   @DF-RKS iter SAD:  -440.39433481707039   -4.40394e+02   0.00000e+00 
   @DF-RKS iter   1:  -440.80223473084544   -4.07900e-01   2.94363e-03 DIIS
   @DF-RKS iter   2:  -440.76315103432256    3.90837e-02   5.57060e-03 DIIS
   @DF-RKS iter   3:  -440.81959055975420   -5.64395e-02   9.89926e-04 DIIS
   @DF-RKS iter   4:  -440.82064295487197   -1.05240e-03   2.09388e-04 DIIS
   @DF-RKS iter   5:  -440.82068599306120   -4.30382e-05   6.12911e-05 DIIS
   @DF-RKS iter   6:  -440.82069151736829   -5.52431e-06   1.93643e-05 DIIS
   @DF-RKS iter   7:  -440.82069211393110   -5.96563e-07   2.89521e-06 DIIS
   @DF-RKS iter   8:  -440.82069213190010   -1.79690e-08   1.66706e-07 DIIS
  Energy and wave function converged.


  ==> Post-Iterations <==

   Electrons on quadrature grid:
      Ntotal   =   55.9999660403 ; deviation = -3.396e-05 

    Orbital Energies [Eh]
    ---------------------

    Doubly Occupied:                                                      

       1Ag    -3.888382     1B1u   -3.888381     2Ag    -3.857539  
       2B1u   -2.479690     3Ag    -2.479377     1B3u   -2.476375  
       1B2u   -2.476375     1B2g   -2.476373     1B3g   -2.476373  
       3B1u   -2.450272     2B3u   -2.441834     2B2u   -2.441834  
       4Ag    -0.519054     2B2g   -0.493231     2B3g   -0.493231  
       4B1u   -0.486129     3B3u   -0.482246     3B2u   -0.482246  
       1B1g   -0.477920     5Ag    -0.477917     1Au    -0.477451  
       5B1u   -0.477449     2B1g   -0.440579     6Ag    -0.440571  
       3B2g   -0.439080     3B3g   -0.439080     7Ag    -0.435975  
       8Ag    -0.379774  

    Virtual:                                                              

       6B1u   -0.344295     9Ag    -0.251261     4B3u   -0.194522  
       4B2u   -0.194522     7B1u   -0.170346     4B2g   -0.149171  
       4B3g   -0.149171     5B3u   -0.079405     5B2u   -0.079405  
      10Ag    -0.052942    11Ag    -0.035402     8B1u   -0.020025  
       9B1u    0.006413     6B3u    0.033715     6B2u    0.033715  
      12Ag     0.046293     5B2g    0.064877     5B3g    0.064877  
       7B3u    0.107042     7B2u    0.107042    13Ag     0.126714  
      10B1u    0.127065    14Ag     0.190749     3B1g    0.190753  
       6B2g    0.216972     6B3g    0.216972     2Au     0.234158  
      11B1u    0.234159    12B1u    0.254375     4B1g    0.320952  
      15Ag     0.320957     8B3u    0.328179     8B2u    0.328179  
      16Ag     0.434164    13B1u    0.501697     7B2g    0.510619  
       7B3g    0.510619    17Ag     0.587316    14B1u    1.254995  
       9B3u    1.332577     9B2u    1.332577     3Au     1.371732  
      15B1u    1.371874    10B2u    1.378459    10B3u    1.378459  
       8B2g    1.378479     8B3g    1.378479     5B1g    1.378521  
      18Ag     1.378658     9B2g    1.393627     9B3g    1.393627  
      19Ag     1.402953    11B3u    1.403071    11B2u    1.403071  
       4Au     1.419588    16B1u    1.419762    12B2u    1.422285  
      12B3u    1.422285    13B3u    1.435003    13B2u    1.435003  
      17B1u    1.465896    10B2g    1.469510    10B3g    1.469510  
      20Ag     1.476756    18B1u    1.547031    14B3u    1.554229  
      14B2u    1.554229    21Ag     1.688858    19B1u    1.743272  
      22Ag     1.827512     6B1g    1.827552    20B1u    1.834579  
       5Au     1.834614    11B2g    1.858441    11B3g    1.858441  
      23Ag     1.897401     7B1g    1.897450    15B3u    1.904274  
      15B2u    1.904274    24Ag     1.963870    21B1u    1.973043  
      12B2g    2.014439    12B3g    2.014439    25Ag     2.141661  
      22B1u    2.151611    26Ag     2.517474    23B1u    4.618628  
      16B3u    4.635977    16B2u    4.635977     6Au     4.668819  
      24B1u    4.669288    17B2u    4.674482    17B3u    4.674482  
      13B2g    4.674497    13B3g    4.674497     8B1g    4.675533  
      27Ag     4.675985    18B3u    4.708961    18B2u    4.708961  
       7Au     4.709409    25B1u    4.710055    14B2g    4.714950  
      14B3g    4.714950    19B3u    4.778577    19B2u    4.778577  
      28Ag     4.836584    26B1u    4.988158    20B3u    5.426508  
      20B2u    5.426508     8Au     5.427084     9B1g    5.427420  
      27B1u    5.427458    29Ag     5.427793    15B2g    5.427838  
      15B3g    5.427838    21B2u    5.428708    21B3u    5.428708  
      16B3g    5.428739    16B2g    5.428739    28B1u    5.430036  
      30Ag     5.430043    29B1u    5.430779    10B1g    5.430837  
       9Au     5.430837    31Ag     5.431009    11B1g    5.461941  
      17B2g    5.462069    17B3g    5.462069    32Ag     5.462461  
      18B3g    5.466071    18B2g    5.466071    33Ag     5.470607  
      12B1g    5.471707    34Ag     5.477466    35Ag    33.240040  
      30B1u   33.378159    36Ag    33.787962    37Ag   110.661231  
      31B1u  110.702550    38Ag   110.849815  

    Final Occupation by Irrep:
             Ag   B1g   B2g   B3g    Au   B1u   B2u   B3u 
    DOCC [     8,    2,    3,    3,    1,    5,    3,    3 ]

  @DF-RKS Final Energy:  -440.82069213190010

   => Energetics <=

    Nuclear Repulsion Energy =            181.6373108891218351
    One-Electron Energy =               -1135.9002512857334750
    Two-Electron Energy =                 555.7894202423613024
    DFT Exchange-Correlation Energy =     -42.3466522576498363
    Empirical Dispersion Energy =          -0.0005197200000000
    VV10 Nonlocal Energy =                  0.0000000000000000
    Total Energy =                       -440.8206921319001594

Computation Completed


Properties will be evaluated at   0.000000,   0.000000,   0.000000 [a0]

Properties computed using the SCF density matrix

  Nuclear Dipole Moment: [e a0]
     X:     0.0000      Y:     0.0000      Z:     0.0000

  Electronic Dipole Moment: [e a0]
     X:     0.0000      Y:     0.0000      Z:     0.0000

  Dipole Moment: [e a0]
     X:     0.0000      Y:     0.0000      Z:     0.0000     Total:     0.0000

  Dipole Moment: [D]
     X:     0.0000      Y:     0.0000      Z:     0.0000     Total:     0.0000


*** tstop() called on compute405.bc4.acrc.priv at Tue Nov  2 11:12:51 2021
Module time:
	user time   =      88.81 seconds =       1.48 minutes
	system time =       3.46 seconds =       0.06 minutes
	total time  =         13 seconds =       0.22 minutes
Total time:
	user time   =      88.81 seconds =       1.48 minutes
	system time =       3.46 seconds =       0.06 minutes
	total time  =         13 seconds =       0.22 minutes

    Psi4 stopped on: Tuesday, 02 November 2021 11:12AM
    Psi4 wall time for execution: 0:00:12.75

*** Psi4 exiting successfully. Buy a developer a beer!
