
    -----------------------------------------------------------------------
          Psi4: An Open-Source Ab Initio Electronic Structure Package
                               Psi4 1.4.1 release

                         Git: Rev {HEAD} cd00f19 


    D. G. A. Smith, L. A. Burns, A. C. Simmonett, R. M. Parrish,
    M. C. Schieber, R. Galvelis, P. Kraus, H. Kruse, R. Di Remigio,
    A. Alenaizan, A. M. James, S. Lehtola, J. P. Misiewicz, M. Scheurer,
    R. A. Shaw, J. B. Schriber, Y. Xie, Z. L. Glick, D. A. Sirianni,
    J. S. O'Brien, J. M. Waldrop, A. Kumar, E. G. Hohenstein,
    B. P. Pritchard, B. R. Brooks, H. F. Schaefer III, A. Yu. Sokolov,
    K. Patkowski, A. E. DePrince III, U. Bozkaya, R. A. King,
    F. A. Evangelista, J. M. Turney, T. D. Crawford, C. D. Sherrill,
    J. Chem. Phys. 152(18) 184108 (2020). https://doi.org/10.1063/5.0006002

                            Additional Code Authors
    E. T. Seidl, C. L. Janssen, E. F. Valeev, M. L. Leininger,
    J. F. Gonthier, R. M. Richard, H. R. McAlexander, M. Saitow, X. Wang,
    P. Verma, and M. H. Lechner

             Previous Authors, Complete List of Code Contributors,
                       and Citations for Specific Modules
    https://github.com/psi4/psi4/blob/master/codemeta.json
    https://github.com/psi4/psi4/graphs/contributors
    http://psicode.org/psi4manual/master/introduction.html#citing-psifour

    -----------------------------------------------------------------------


    Psi4 started on: Tuesday, 02 November 2021 11:11AM

    Process ID: 13970
    Host:       compute130.bc4.acrc.priv
    PSIDATADIR: /mnt/storage/home/zw18965/.conda/envs/p4env/share/psi4
    Memory:     500.0 MiB
    Threads:    28
    
  ==> Input File <==

--------------------------------------------------------------------------
memory 144 GB

molecule {
0 1
Ag      -1.015022   -0.433109    0.700282 
Ag       0.974659   -2.209777    0.043294 
Ag       1.013798    0.433158   -0.699441 
Ag      -0.973435    2.209727   -0.044135 
 }

set basis Def2-TZVPPD

energy("SCAN-D3BJ")
--------------------------------------------------------------------------

  Memory set to 134.110 GiB by Python driver.

Scratch directory: /tmp/

*** tstart() called on compute130.bc4.acrc.priv
*** at Tue Nov  2 11:11:06 2021

   => Loading Basis Set <=

    Name: DEF2-TZVPPD
    Role: ORBITAL
    Keyword: BASIS
    atoms 1-4 entry AG         line  2174 (ECP: line  3646) file /mnt/storage/home/zw18965/.conda/envs/p4env/share/psi4/basis/def2-tzvppd.gbs 

    !!!  WARNING: ECP capability is in beta. Please check occupations closely.  !!!

   => SCAN-D3(BJ): Empirical Dispersion <=

    Grimme's -D3 (BJ-damping) Dispersion Correction
    Grimme S.; Ehrlich S.; Goerigk L. (2011), J. Comput. Chem., 32: 1456
    Parametrisation from:    J.G. Brandenburg, J. E. Bates, J. Sun, J.P. Perdew, Phys. Rev. B 94, 115144, 2016

        s6 =       1.000000
        s8 =       0.000000
        a1 =       0.538000
        a2 =       5.420000


         ---------------------------------------------------------
                                   SCF
               by Justin Turney, Rob Parrish, Andy Simmonett
                          and Daniel G. A. Smith
                              RKS Reference
                       28 Threads, 137329 MiB Core
         ---------------------------------------------------------

  ==> Geometry <==

    Molecular point group: c1
    Full point group: C1

    Geometry (in Angstrom), charge = 0, multiplicity = 1:

       Center              X                  Y                   Z               Mass       
    ------------   -----------------  -----------------  -----------------  -----------------
         AG          -1.015022000000    -0.433108750000     0.700282000000   106.905091600000
         AG           0.974659000000    -2.209776750000     0.043294000000   106.905091600000
         AG           1.013798000000     0.433158250000    -0.699441000000   106.905091600000
         AG          -0.973435000000     2.209727250000    -0.044135000000   106.905091600000

  Running in c1 symmetry.

  Rotational constants: A =      0.04620  B =      0.01352  C =      0.01046 [cm^-1]
  Rotational constants: A =   1385.15368  B =    405.17815  C =    313.48044 [MHz]
  Nuclear repulsion =  390.944057322147103

  Charge       = 0
  Multiplicity = 1
  Electrons    = 76
  Nalpha       = 38
  Nbeta        = 38

  ==> Algorithm <==

  SCF Algorithm Type is DF.
  DIIS enabled.
  MOM disabled.
  Fractional occupation disabled.
  Guess Type is SAD.
  Energy threshold   = 1.00e-06
  Density threshold  = 1.00e-06
  Integral threshold = 1.00e-12

  ==> Primary Basis <==

  Basis Set: DEF2-TZVPPD
    Blend: DEF2-TZVPPD
    Number of shells: 64
    Number of basis functions: 224
    Number of Cartesian functions: 284
    Spherical Harmonics?: true
    Max angular momentum: 4

  Core potential: DEF2-TZVPPD
    Number of shells: 16
    Number of ECP primitives: 56
    Number of ECP core electrons: 112
    Max angular momentum: 3

  ==> DFT Potential <==

   => Composite Functional: SCAN-D3BJ <= 

    SCAN Meta-GGA XC Functional
(10.1103/PhysRevLett.115.036402)
    J. Sun, A. Ruzsinszky, J. P. Perdew  Phys. Rev. Lett. 115, 036402, 2015


    Deriv               =              1
    GGA                 =           TRUE
    Meta                =           TRUE

    Exchange Hybrid     =          FALSE
    MP2 Hybrid          =          FALSE

   => Exchange Functionals <=

    1.0000   XC_MGGA_X_SCAN

   => Correlation Functionals <=

    1.0000   XC_MGGA_C_SCAN

   => LibXC Density Thresholds  <==

    XC_MGGA_C_SCAN:  1.00E-15 
    XC_MGGA_X_SCAN:  1.00E-15 

   => Molecular Quadrature <=

    Radial Scheme          =       TREUTLER
    Pruning Scheme         =           NONE
    Nuclear Scheme         =       TREUTLER

    BS radius alpha        =              1
    Pruning alpha          =              1
    Radial Points          =             75
    Spherical Points       =            302
    Total Points           =          83404
    Total Blocks           =            747
    Max Points             =            254
    Max Functions          =            211
    Weights Tolerance      =       1.00E-15

   => Loading Basis Set <=

    Name: (DEF2-TZVPPD AUX)
    Role: JKFIT
    Keyword: DF_BASIS_SCF
    atoms 1-4 entry AG         line  4364 file /mnt/storage/home/zw18965/.conda/envs/p4env/share/psi4/basis/def2-universal-jkfit.gbs 

  ==> Integral Setup <==

  DFHelper Memory: AOs need 0.390 GiB; user supplied 99.774 GiB. Using in-core AOs.

  ==> MemDFJK: Density-Fitted J/K Matrices <==

    J tasked:                   Yes
    K tasked:                    No
    wK tasked:                   No
    OpenMP threads:              28
    Memory [MiB]:            102168
    Algorithm:                 Core
    Schwarz Cutoff:           1E-12
    Mask sparsity (%):       6.2779
    Fitting Condition:        1E-10

   => Auxiliary Basis Set <=

  Basis Set: (DEF2-TZVPPD AUX)
    Blend: DEF2-UNIVERSAL-JKFIT
    Number of shells: 196
    Number of basis functions: 1020
    Number of Cartesian functions: 1536
    Spherical Harmonics?: true
    Max angular momentum: 6

  Cached 100.0% of DFT collocation blocks in 0.809 [GiB].

  Minimum eigenvalue in the overlap matrix is 2.3974620835E-03.
  Reciprocal condition number of the overlap matrix is 3.8058484238E-04.
    Using symmetric orthogonalization.

  ==> Pre-Iterations <==

  SCF Guess: Superposition of Atomic Densities via on-the-fly atomic UHF (no occupation information).

   -------------------------
    Irrep   Nso     Nmo    
   -------------------------
     A        224     224 
   -------------------------
    Total     224     224
   -------------------------

  ==> Iterations <==

                           Total Energy        Delta E     RMS |[F,P]|

   @DF-RKS iter SAD:  -587.36775076993183   -5.87368e+02   0.00000e+00 
   @DF-RKS iter   1:  -588.07067245938083   -7.02922e-01   2.23937e-03 DIIS
   @DF-RKS iter   2:  -587.86996135630136    2.00711e-01   4.08536e-03 DIIS
   @DF-RKS iter   3:  -588.16141976734173   -2.91458e-01   5.47281e-04 DIIS
   @DF-RKS iter   4:  -588.16559797582408   -4.17821e-03   2.38360e-04 DIIS
   @DF-RKS iter   5:  -588.16645952347199   -8.61548e-04   8.34843e-05 DIIS
   @DF-RKS iter   6:  -588.16655899583589   -9.94724e-05   1.55022e-05 DIIS
   @DF-RKS iter   7:  -588.16656408300821   -5.08717e-06   4.24299e-06 DIIS
   @DF-RKS iter   8:  -588.16656438878829   -3.05780e-07   8.50240e-07 DIIS
  Energy and wave function converged.


  ==> Post-Iterations <==

   Electrons on quadrature grid:
      Ntotal   =   76.0000227356 ; deviation = 2.274e-05 

    Orbital Energies [Eh]
    ---------------------

    Doubly Occupied:                                                      

       1A     -3.704482     2A     -3.704078     3A     -3.680750  
       4A     -3.680707     5A     -2.296818     6A     -2.292147  
       7A     -2.291506     8A     -2.290947     9A     -2.290222  
      10A     -2.289796    11A     -2.269712    12A     -2.269569  
      13A     -2.267399    14A     -2.267326    15A     -2.264527  
      16A     -2.264488    17A     -0.337038    18A     -0.335729  
      19A     -0.316238    20A     -0.314747    21A     -0.312656  
      22A     -0.305131    23A     -0.293737    24A     -0.292917  
      25A     -0.278614    26A     -0.278120    27A     -0.274298  
      28A     -0.267361    29A     -0.266832    30A     -0.266616  
      31A     -0.263084    32A     -0.261743    33A     -0.260039  
      34A     -0.258513    35A     -0.256796    36A     -0.247495  
      37A     -0.240946    38A     -0.169313  

    Virtual:                                                              

      39A     -0.128702    40A     -0.085940    41A     -0.059253  
      42A     -0.033435    43A     -0.024884    44A     -0.007390  
      45A      0.002785    46A      0.029533    47A      0.045839  
      48A      0.060730    49A      0.078116    50A      0.092760  
      51A      0.094008    52A      0.107162    53A      0.121660  
      54A      0.149765    55A      0.152628    56A      0.160998  
      57A      0.163721    58A      0.174527    59A      0.175800  
      60A      0.184124    61A      0.206651    62A      0.217920  
      63A      0.232541    64A      0.244393    65A      0.297309  
      66A      0.332465    67A      0.346329    68A      0.362693  
      69A      0.368708    70A      0.386921    71A      0.391149  
      72A      0.436871    73A      0.447569    74A      0.456103  
      75A      0.530080    76A      0.549869    77A      0.550446  
      78A      0.556052    79A      0.582917    80A      0.586688  
      81A      0.594150    82A      0.629028    83A      0.644955  
      84A      0.657106    85A      0.668163    86A      0.681266  
      87A      0.739680    88A      0.790447    89A      1.444023  
      90A      1.494166    91A      1.515982    92A      1.520830  
      93A      1.522045    94A      1.529405    95A      1.532391  
      96A      1.544977    97A      1.545600    98A      1.550157  
      99A      1.562277   100A      1.574852   101A      1.575176  
     102A      1.579862   103A      1.583711   104A      1.591678  
     105A      1.596591   106A      1.597908   107A      1.598043  
     108A      1.601401   109A      1.601728   110A      1.608206  
     111A      1.616816   112A      1.624579   113A      1.630113  
     114A      1.634152   115A      1.643748   116A      1.652491  
     117A      1.657230   118A      1.682202   119A      1.698711  
     120A      1.699430   121A      1.712153   122A      1.722103  
     123A      1.727189   124A      1.727881   125A      1.742909  
     126A      1.829624   127A      1.883183   128A      1.948344  
     129A      1.979879   130A      2.047809   131A      2.063503  
     132A      2.076302   133A      2.078015   134A      2.092302  
     135A      2.093294   136A      2.102675   137A      2.107774  
     138A      2.119707   139A      2.129101   140A      2.135346  
     141A      2.135470   142A      2.172214   143A      2.189854  
     144A      2.193990   145A      2.195615   146A      2.226942  
     147A      2.245714   148A      2.352104   149A      2.393803  
     150A      2.549085   151A      2.571575   152A      2.651482  
     153A      4.812550   154A      4.814906   155A      4.819860  
     156A      4.832095   157A      4.832562   158A      4.839946  
     159A      4.845726   160A      4.847979   161A      4.852556  
     162A      4.853550   163A      4.855481   164A      4.882593  
     165A      4.883953   166A      4.884588   167A      4.888194  
     168A      4.907113   169A      4.921668   170A      4.922884  
     171A      4.929771   172A      4.931101   173A      4.931680  
     174A      4.946250   175A      4.949557   176A      5.045680  
     177A      5.069114   178A      5.090005   179A      5.093853  
     180A      5.132430   181A      5.615131   182A      5.615244  
     183A      5.615350   184A      5.615758   185A      5.616512  
     186A      5.616623   187A      5.616773   188A      5.616818  
     189A      5.617759   190A      5.618875   191A      5.618905  
     192A      5.619962   193A      5.620203   194A      5.621566  
     195A      5.621603   196A      5.622042   197A      5.624581  
     198A      5.634873   199A      5.639212   200A      5.641751  
     201A      5.642731   202A      5.642870   203A      5.643002  
     204A      5.643052   205A      5.644536   206A      5.644803  
     207A      5.644964   208A      5.645327   209A      5.645701  
     210A      5.646387   211A      5.646475   212A      5.646501  
     213A      5.646893   214A      5.647776   215A      5.648191  
     216A      5.650928   217A     33.472168   218A     33.781849  
     219A     33.813490   220A     33.895407   221A    110.862468  
     222A    110.969383   223A    110.972979   224A    110.991410  

    Final Occupation by Irrep:
              A 
    DOCC [    38 ]

  @DF-RKS Final Energy:  -588.16656438878829

   => Energetics <=

    Nuclear Repulsion Energy =            390.9440573221471027
    One-Electron Energy =               -1826.3466808666612451
    Two-Electron Energy =                 903.9431411739219584
    DFT Exchange-Correlation Energy =     -56.7059483381960945
    Empirical Dispersion Energy =          -0.0011336800000000
    VV10 Nonlocal Energy =                  0.0000000000000000
    Total Energy =                       -588.1665643887882879

Computation Completed


Properties will be evaluated at   0.000000,   0.000000,   0.000000 [a0]

Properties computed using the SCF density matrix

  Nuclear Dipole Moment: [e a0]
     X:    -0.0000      Y:     0.0000      Z:    -0.0000

  Electronic Dipole Moment: [e a0]
     X:    -0.0020      Y:     0.0004      Z:     0.0011

  Dipole Moment: [e a0]
     X:    -0.0020      Y:     0.0004      Z:     0.0011     Total:     0.0023

  Dipole Moment: [D]
     X:    -0.0051      Y:     0.0009      Z:     0.0027     Total:     0.0059


*** tstop() called on compute130.bc4.acrc.priv at Tue Nov  2 11:11:24 2021
Module time:
	user time   =     143.07 seconds =       2.38 minutes
	system time =       5.99 seconds =       0.10 minutes
	total time  =         18 seconds =       0.30 minutes
Total time:
	user time   =     143.07 seconds =       2.38 minutes
	system time =       5.99 seconds =       0.10 minutes
	total time  =         18 seconds =       0.30 minutes

    Psi4 stopped on: Tuesday, 02 November 2021 11:11AM
    Psi4 wall time for execution: 0:00:18.02

*** Psi4 exiting successfully. Buy a developer a beer!
