
    -----------------------------------------------------------------------
          Psi4: An Open-Source Ab Initio Electronic Structure Package
                               Psi4 1.4.1 release

                         Git: Rev {HEAD} cd00f19 


    D. G. A. Smith, L. A. Burns, A. C. Simmonett, R. M. Parrish,
    M. C. Schieber, R. Galvelis, P. Kraus, H. Kruse, R. Di Remigio,
    A. Alenaizan, A. M. James, S. Lehtola, J. P. Misiewicz, M. Scheurer,
    R. A. Shaw, J. B. Schriber, Y. Xie, Z. L. Glick, D. A. Sirianni,
    J. S. O'Brien, J. M. Waldrop, A. Kumar, E. G. Hohenstein,
    B. P. Pritchard, B. R. Brooks, H. F. Schaefer III, A. Yu. Sokolov,
    K. Patkowski, A. E. DePrince III, U. Bozkaya, R. A. King,
    F. A. Evangelista, J. M. Turney, T. D. Crawford, C. D. Sherrill,
    J. Chem. Phys. 152(18) 184108 (2020). https://doi.org/10.1063/5.0006002

                            Additional Code Authors
    E. T. Seidl, C. L. Janssen, E. F. Valeev, M. L. Leininger,
    J. F. Gonthier, R. M. Richard, H. R. McAlexander, M. Saitow, X. Wang,
    P. Verma, and M. H. Lechner

             Previous Authors, Complete List of Code Contributors,
                       and Citations for Specific Modules
    https://github.com/psi4/psi4/blob/master/codemeta.json
    https://github.com/psi4/psi4/graphs/contributors
    http://psicode.org/psi4manual/master/introduction.html#citing-psifour

    -----------------------------------------------------------------------


    Psi4 started on: Friday, 05 November 2021 04:20AM

    Process ID: 25655
    Host:       compute087.bc4.acrc.priv
    PSIDATADIR: /mnt/storage/home/zw18965/.conda/envs/p4env/share/psi4
    Memory:     500.0 MiB
    Threads:    28
    
  ==> Input File <==

--------------------------------------------------------------------------
memory 120 GB

molecule {
2 1
Au      -0.000000   -0.000044    1.659420 
Au      -1.354966    0.782292   -0.553161 
Au       1.354966    0.782292   -0.553161 
Au       0.000000   -1.564540   -0.553099 
 }

set basis Def2-TZVPPD

energy("SCAN-D3BJ")
--------------------------------------------------------------------------

  Memory set to 111.759 GiB by Python driver.

Scratch directory: /tmp/

*** tstart() called on compute087.bc4.acrc.priv
*** at Fri Nov  5 04:20:55 2021

   => Loading Basis Set <=

    Name: DEF2-TZVPPD
    Role: ORBITAL
    Keyword: BASIS
    atoms 1-4 entry AU         line  2995 (ECP: line  4084) file /mnt/storage/home/zw18965/.conda/envs/p4env/share/psi4/basis/def2-tzvppd.gbs 

    !!!  WARNING: ECP capability is in beta. Please check occupations closely.  !!!

   => SCAN-D3(BJ): Empirical Dispersion <=

    Grimme's -D3 (BJ-damping) Dispersion Correction
    Grimme S.; Ehrlich S.; Goerigk L. (2011), J. Comput. Chem., 32: 1456
    Parametrisation from:    J.G. Brandenburg, J. E. Bates, J. Sun, J.P. Perdew, Phys. Rev. B 94, 115144, 2016

        s6 =       1.000000
        s8 =       0.000000
        a1 =       0.538000
        a2 =       5.420000


         ---------------------------------------------------------
                                   SCF
               by Justin Turney, Rob Parrish, Andy Simmonett
                          and Daniel G. A. Smith
                              RKS Reference
                       28 Threads, 114440 MiB Core
         ---------------------------------------------------------

  ==> Geometry <==

    Molecular point group: cs
    Full point group: Cs

    Geometry (in Angstrom), charge = 2, multiplicity = 1:

       Center              X                  Y                   Z               Mass       
    ------------   -----------------  -----------------  -----------------  -----------------
         AU           0.000044000000    -1.659420250000     0.000000000000   196.966568790000
         AU          -0.782292000000     0.553160750000    -1.354966000000   196.966568790000
         AU          -0.782292000000     0.553160750000     1.354966000000   196.966568790000
         AU           1.564540000000     0.553098750000     0.000000000000   196.966568790000

  Running in cs symmetry.

  Rotational constants: A =      0.01165  B =      0.01165  C =      0.01165 [cm^-1]
  Rotational constants: A =    349.40803  B =    349.40777  C =    349.38766 [MHz]
  Nuclear repulsion =  422.969852207387817

  Charge       = 2
  Multiplicity = 1
  Electrons    = 74
  Nalpha       = 37
  Nbeta        = 37

  ==> Algorithm <==

  SCF Algorithm Type is DF.
  DIIS enabled.
  MOM disabled.
  Fractional occupation disabled.
  Guess Type is SAD.
  Energy threshold   = 1.00e-06
  Density threshold  = 1.00e-06
  Integral threshold = 1.00e-12

  ==> Primary Basis <==

  Basis Set: DEF2-TZVPPD
    Blend: DEF2-TZVPPD
    Number of shells: 68
    Number of basis functions: 236
    Number of Cartesian functions: 296
    Spherical Harmonics?: true
    Max angular momentum: 4

  Core potential: DEF2-TZVPPD
    Number of shells: 16
    Number of ECP primitives: 56
    Number of ECP core electrons: 240
    Max angular momentum: 3

  ==> DFT Potential <==

   => Composite Functional: SCAN-D3BJ <= 

    SCAN Meta-GGA XC Functional
(10.1103/PhysRevLett.115.036402)
    J. Sun, A. Ruzsinszky, J. P. Perdew  Phys. Rev. Lett. 115, 036402, 2015


    Deriv               =              1
    GGA                 =           TRUE
    Meta                =           TRUE

    Exchange Hybrid     =          FALSE
    MP2 Hybrid          =          FALSE

   => Exchange Functionals <=

    1.0000   XC_MGGA_X_SCAN

   => Correlation Functionals <=

    1.0000   XC_MGGA_C_SCAN

   => LibXC Density Thresholds  <==

    XC_MGGA_C_SCAN:  1.00E-15 
    XC_MGGA_X_SCAN:  1.00E-15 

   => Molecular Quadrature <=

    Radial Scheme          =       TREUTLER
    Pruning Scheme         =           NONE
    Nuclear Scheme         =       TREUTLER

    BS radius alpha        =              1
    Pruning alpha          =              1
    Radial Points          =             75
    Spherical Points       =            302
    Total Points           =          85273
    Total Blocks           =            764
    Max Points             =            256
    Max Functions          =            232
    Weights Tolerance      =       1.00E-15

   => Loading Basis Set <=

    Name: (DEF2-TZVPPD AUX)
    Role: JKFIT
    Keyword: DF_BASIS_SCF
    atoms 1-4 entry AU         line  8426 file /mnt/storage/home/zw18965/.conda/envs/p4env/share/psi4/basis/def2-universal-jkfit.gbs 

  ==> Integral Setup <==

  DFHelper Memory: AOs need 0.442 GiB; user supplied 82.751 GiB. Using in-core AOs.

  ==> MemDFJK: Density-Fitted J/K Matrices <==

    J tasked:                   Yes
    K tasked:                    No
    wK tasked:                   No
    OpenMP threads:              28
    Memory [MiB]:             84736
    Algorithm:                 Core
    Schwarz Cutoff:           1E-12
    Mask sparsity (%):       0.8115
    Fitting Condition:        1E-10

   => Auxiliary Basis Set <=

  Basis Set: (DEF2-TZVPPD AUX)
    Blend: DEF2-UNIVERSAL-JKFIT
    Number of shells: 204
    Number of basis functions: 988
    Number of Cartesian functions: 1460
    Spherical Harmonics?: true
    Max angular momentum: 6

  Cached 100.0% of DFT collocation blocks in 1.068 [GiB].

  Minimum eigenvalue in the overlap matrix is 9.1564856395E-04.
  Reciprocal condition number of the overlap matrix is 1.4069946070E-04.
    Using symmetric orthogonalization.

  ==> Pre-Iterations <==

  SCF Guess: Superposition of Atomic Densities via on-the-fly atomic UHF (no occupation information).

   -------------------------
    Irrep   Nso     Nmo    
   -------------------------
     A'       135     135 
     A"       101     101 
   -------------------------
    Total     236     236
   -------------------------

  ==> Iterations <==

                           Total Energy        Delta E     RMS |[F,P]|

   @DF-RKS iter SAD:  -542.45414430111896   -5.42454e+02   0.00000e+00 
   @DF-RKS iter   1:  -542.35094900905347    1.03195e-01   3.53598e-03 DIIS
   @DF-RKS iter   2:  -542.11722703162297    2.33722e-01   6.32767e-03 DIIS
   @DF-RKS iter   3:  -542.45334285131435   -3.36116e-01   2.56849e-04 DIIS
   @DF-RKS iter   4:  -542.45188990567772    1.45295e-03   4.09813e-04 DIIS
   @DF-RKS iter   5:  -542.45418489042811   -2.29498e-03   5.51634e-05 DIIS
   @DF-RKS iter   6:  -542.45421515337659   -3.02629e-05   4.15200e-06 DIIS
   @DF-RKS iter   7:  -542.45421537377490   -2.20398e-07   1.91678e-06 DIIS
   @DF-RKS iter   8:  -542.45421541103451   -3.72596e-08   4.52332e-07 DIIS
  Energy and wave function converged.


  ==> Post-Iterations <==

   Electrons on quadrature grid:
      Ntotal   =   74.0000183951 ; deviation = 1.840e-05 

    Orbital Energies [Eh]
    ---------------------

    Doubly Occupied:                                                      

       1Ap    -4.500970     2Ap    -4.500558     1App   -4.500546  
       3Ap    -4.500540     4Ap    -2.691899     5Ap    -2.686078  
       2App   -2.686070     6Ap    -2.686067     7Ap    -2.680883  
       3App   -2.680874     8Ap    -2.679879     9Ap    -2.679873  
       4App   -2.679871     5App   -2.678369    10Ap    -2.678368  
       6App   -2.678356    11Ap    -0.782761    12Ap    -0.723999  
       7App   -0.723995    13Ap    -0.723987    14Ap    -0.703895  
       8App   -0.703891    15Ap    -0.680552     9App   -0.680549  
      16Ap    -0.680534    17Ap    -0.672922    18Ap    -0.647103  
      10App   -0.647098    19Ap    -0.647093    11App   -0.645022  
      20Ap    -0.645007    12App   -0.645003    13App   -0.643721  
      21Ap    -0.643716    14App   -0.618497    22Ap    -0.618494  
      15App   -0.618485  

    Virtual:                                                              

      23Ap    -0.514998    16App   -0.514995    24Ap    -0.514989  
      25Ap    -0.360861    17App   -0.354599    26Ap    -0.354596  
      27Ap    -0.354595    28Ap    -0.332412    18App   -0.332407  
      19App   -0.193620    20App   -0.193618    29Ap    -0.193614  
      21App   -0.189800    30Ap    -0.189800    31Ap    -0.189795  
      32Ap    -0.132774    33Ap    -0.108875    22App   -0.100808  
      34Ap    -0.100806    35Ap    -0.100805    36Ap    -0.097275  
      23App   -0.097273    37Ap    -0.055646    24App   -0.055646  
      38Ap    -0.055644    25App   -0.022214    39Ap    -0.022213  
      40Ap    -0.022206    26App   -0.014708    27App   -0.014707  
      41Ap    -0.014703    42Ap     0.011036    28App    0.011039  
      43Ap     0.011043    29App    0.062423    44Ap     0.062424  
      30App    0.075906    45Ap     0.075909    31App    0.075911  
      32App    0.157364    46Ap     0.157368    47Ap     0.157370  
      48Ap     0.161619    33App    0.169114    49Ap     0.169120  
      50Ap     0.223792    34App    0.223795    51Ap     0.223796  
      35App    0.231291    36App    0.231296    52Ap     0.231300  
      53Ap     0.450150    54Ap     0.518967    37App    0.518985  
      55Ap     0.521518    38App    0.521524    56Ap     0.521555  
      57Ap     0.614738    39App    0.623987    58Ap     0.623989  
      59Ap     0.624004    40App    0.673890    41App    0.673899  
      60Ap     0.673907    61Ap     0.734963    42App    0.734974  
      62Ap     0.734986    43App    0.777360    63Ap     0.777388  
      64Ap     0.807724    44App    0.807728    65Ap     0.807743  
      45App    0.808638    46App    0.809248    47App    0.809252  
      66Ap     0.809264    48App    0.910329    67Ap     0.910341  
      68Ap     0.910378    49App    0.926774    69Ap     0.926777  
      50App    0.926793    70Ap     0.974141    51App    0.995952  
      71Ap     0.995967    52App    1.007921    72Ap     1.007953  
      73Ap     1.007959    53App    1.067532    74Ap     1.067571  
      54App    1.067577    55App    1.093325    75Ap     1.093326  
      76Ap     1.093356    56App    1.108983    77Ap     1.109009  
      57App    1.154374    78Ap     1.154380    79Ap     1.154420  
      58App    1.163531    59App    1.163547    80Ap     1.163553  
      60App    1.219596    81Ap     1.219601    82Ap     1.243988  
      61App    1.357057    83Ap     1.357067    84Ap     1.357108  
      62App    1.570738    63App    1.570761    85Ap     1.570824  
      86Ap     1.847531    64App    2.419604    87Ap     2.419628  
      88Ap     2.419641    89Ap     3.040572    90Ap     3.059916  
      65App    3.060093    91Ap     3.060141    92Ap     3.162035  
      66App    3.162085    67App    3.162159    93Ap     3.196404  
      68App    3.217214    94Ap     3.217350    95Ap     3.225205  
      96Ap     3.225294    69App    3.225428    70App    3.272610  
      97Ap     3.388046    71App    3.388125    72App    3.388191  
      73App    3.394148    98Ap     3.394188    99Ap     3.394459  
     100Ap     3.398972    74App    3.399164   101Ap     3.493581  
      75App    3.493618   102Ap     3.494066    76App    3.600799  
     103Ap     3.600972    77App    3.601155    78App    3.747666  
     104Ap     3.747879   105Ap     3.754783    79App    3.755311  
     106Ap     3.755368   107Ap     3.755998   108Ap     3.758366  
      80App    3.758383    81App    3.758576   109Ap     3.758767  
     110Ap     3.758926    82App    3.758953   111Ap     3.766074  
      83App    3.766740   112Ap     3.767093    84App    3.767594  
     113Ap     3.767641    85App    3.768920   114Ap     3.769121  
      86App    3.769678    87App    3.771599   115Ap     3.772029  
     116Ap     3.791213    88App    3.791239    89App    3.791312  
     117Ap     3.791586    90App    3.792026   118Ap     3.795504  
      91App    3.795647   119Ap     3.795652   120Ap     3.875517  
      92App    3.875525   121Ap     3.875572    93App    3.967809  
      94App    3.967859   122Ap     3.967899    95App   27.277132  
     123Ap    27.277254    96App   27.372994   124Ap    27.373051  
     125Ap    27.373091    97App   28.526541    98App   28.526636  
     126Ap    28.526922   127Ap    28.639569    99App   29.444458  
     128Ap    29.444590   129Ap    29.444918   130Ap    43.791446  
     100App   44.396360   131Ap    44.396380   132Ap    44.396420  
     133Ap   204.820187   101App  205.084451   134Ap   205.084456  
     135Ap   205.084473  

    Final Occupation by Irrep:
             Ap   App 
    DOCC [    22,   15 ]

  @DF-RKS Final Energy:  -542.45421541103451

   => Energetics <=

    Nuclear Repulsion Energy =            422.9698522073878166
    One-Electron Energy =               -1770.2810680834477353
    Two-Electron Energy =                 855.9664900750312881
    DFT Exchange-Correlation Energy =     -51.1082625000057789
    Empirical Dispersion Energy =          -0.0012271100000000
    VV10 Nonlocal Energy =                  0.0000000000000000
    Total Energy =                       -542.4542154110345109

Computation Completed


Properties will be evaluated at   0.000000,   0.000000,   0.000000 [a0]

Properties computed using the SCF density matrix

  Nuclear Dipole Moment: [e a0]
     X:    -0.0000      Y:    -0.0000      Z:     0.0000

  Electronic Dipole Moment: [e a0]
     X:     0.0002      Y:     0.0002      Z:     0.0000

  Dipole Moment: [e a0]
     X:     0.0002      Y:     0.0002      Z:     0.0000     Total:     0.0003

  Dipole Moment: [D]
     X:     0.0006      Y:     0.0006      Z:     0.0000     Total:     0.0008


*** tstop() called on compute087.bc4.acrc.priv at Fri Nov  5 04:21:14 2021
Module time:
	user time   =     153.91 seconds =       2.57 minutes
	system time =       5.62 seconds =       0.09 minutes
	total time  =         19 seconds =       0.32 minutes
Total time:
	user time   =     153.91 seconds =       2.57 minutes
	system time =       5.62 seconds =       0.09 minutes
	total time  =         19 seconds =       0.32 minutes

    Psi4 stopped on: Friday, 05 November 2021 04:21AM
    Psi4 wall time for execution: 0:00:18.65

*** Psi4 exiting successfully. Buy a developer a beer!
