
    -----------------------------------------------------------------------
          Psi4: An Open-Source Ab Initio Electronic Structure Package
                               Psi4 1.4.1 release

                         Git: Rev {HEAD} cd00f19 


    D. G. A. Smith, L. A. Burns, A. C. Simmonett, R. M. Parrish,
    M. C. Schieber, R. Galvelis, P. Kraus, H. Kruse, R. Di Remigio,
    A. Alenaizan, A. M. James, S. Lehtola, J. P. Misiewicz, M. Scheurer,
    R. A. Shaw, J. B. Schriber, Y. Xie, Z. L. Glick, D. A. Sirianni,
    J. S. O'Brien, J. M. Waldrop, A. Kumar, E. G. Hohenstein,
    B. P. Pritchard, B. R. Brooks, H. F. Schaefer III, A. Yu. Sokolov,
    K. Patkowski, A. E. DePrince III, U. Bozkaya, R. A. King,
    F. A. Evangelista, J. M. Turney, T. D. Crawford, C. D. Sherrill,
    J. Chem. Phys. 152(18) 184108 (2020). https://doi.org/10.1063/5.0006002

                            Additional Code Authors
    E. T. Seidl, C. L. Janssen, E. F. Valeev, M. L. Leininger,
    J. F. Gonthier, R. M. Richard, H. R. McAlexander, M. Saitow, X. Wang,
    P. Verma, and M. H. Lechner

             Previous Authors, Complete List of Code Contributors,
                       and Citations for Specific Modules
    https://github.com/psi4/psi4/blob/master/codemeta.json
    https://github.com/psi4/psi4/graphs/contributors
    http://psicode.org/psi4manual/master/introduction.html#citing-psifour

    -----------------------------------------------------------------------


    Psi4 started on: Friday, 05 November 2021 04:19AM

    Process ID: 25417
    Host:       compute087.bc4.acrc.priv
    PSIDATADIR: /mnt/storage/home/zw18965/.conda/envs/p4env/share/psi4
    Memory:     500.0 MiB
    Threads:    28
    
  ==> Input File <==

--------------------------------------------------------------------------
memory 120 GB

molecule {
2 1
Au       0.000000    1.548281   -0.453246 
Au       1.340851   -0.774141   -0.453246 
Au      -1.340851   -0.774141   -0.453246 
Au       0.000000    0.000000    1.783664 
N        0.000000    0.000000   -3.226055 
H       -0.813891    0.469900   -3.635956 
H        0.813891    0.469900   -3.635956 
H       -0.000000   -0.939800   -3.635956 
 }

set basis Def2-TZVPPD

energy("SCAN-D3BJ")
--------------------------------------------------------------------------

  Memory set to 111.759 GiB by Python driver.

Scratch directory: /tmp/

*** tstart() called on compute087.bc4.acrc.priv
*** at Fri Nov  5 04:19:45 2021

   => Loading Basis Set <=

    Name: DEF2-TZVPPD
    Role: ORBITAL
    Keyword: BASIS
    atoms 1-4 entry AU         line  2995 (ECP: line  4084) file /mnt/storage/home/zw18965/.conda/envs/p4env/share/psi4/basis/def2-tzvppd.gbs 
    atoms 5   entry N          line   181 file /mnt/storage/home/zw18965/.conda/envs/p4env/share/psi4/basis/def2-tzvppd.gbs 
    atoms 6-8 entry H          line    14 file /mnt/storage/home/zw18965/.conda/envs/p4env/share/psi4/basis/def2-tzvppd.gbs 

    !!!  WARNING: ECP capability is in beta. Please check occupations closely.  !!!

   => SCAN-D3(BJ): Empirical Dispersion <=

    Grimme's -D3 (BJ-damping) Dispersion Correction
    Grimme S.; Ehrlich S.; Goerigk L. (2011), J. Comput. Chem., 32: 1456
    Parametrisation from:    J.G. Brandenburg, J. E. Bates, J. Sun, J.P. Perdew, Phys. Rev. B 94, 115144, 2016

        s6 =       1.000000
        s8 =       0.000000
        a1 =       0.538000
        a2 =       5.420000


         ---------------------------------------------------------
                                   SCF
               by Justin Turney, Rob Parrish, Andy Simmonett
                          and Daniel G. A. Smith
                              RKS Reference
                       28 Threads, 114440 MiB Core
         ---------------------------------------------------------

  ==> Geometry <==

    Molecular point group: cs
    Full point group: Cs

    Geometry (in Angstrom), charge = 2, multiplicity = 1:

       Center              X                  Y                   Z               Mass       
    ------------   -----------------  -----------------  -----------------  -----------------
         AU          -1.548281244712     0.487202496432     0.000000000000   196.966568790000
         AU           0.774140755288     0.487202496432     1.340851000000   196.966568790000
         AU           0.774140755288     0.487202496432    -1.340851000000   196.966568790000
         AU          -0.000000244712    -1.749707503568     0.000000000000   196.966568790000
         N           -0.000000244712     3.260011496432     0.000000000000    14.003074004430
         H           -0.469900244712     3.669912496432    -0.813891000000     1.007825032230
         H           -0.469900244712     3.669912496432     0.813891000000     1.007825032230
         H            0.939799755288     3.669912496432     0.000000000000     1.007825032230

  Running in cs symmetry.

  Rotational constants: A =      0.01188  B =      0.01026  C =      0.01026 [cm^-1]
  Rotational constants: A =    356.11124  B =    307.70961  C =    307.70960 [MHz]
  Nuclear repulsion =  547.114038071774644

  Charge       = 2
  Multiplicity = 1
  Electrons    = 84
  Nalpha       = 42
  Nbeta        = 42

  ==> Algorithm <==

  SCF Algorithm Type is DF.
  DIIS enabled.
  MOM disabled.
  Fractional occupation disabled.
  Guess Type is SAD.
  Energy threshold   = 1.00e-06
  Density threshold  = 1.00e-06
  Integral threshold = 1.00e-12

  ==> Primary Basis <==

  Basis Set: DEF2-TZVPPD
    Blend: DEF2-TZVPPD
    Number of shells: 102
    Number of basis functions: 324
    Number of Cartesian functions: 393
    Spherical Harmonics?: true
    Max angular momentum: 4

  Core potential: DEF2-TZVPPD
    Number of shells: 16
    Number of ECP primitives: 56
    Number of ECP core electrons: 240
    Max angular momentum: 3

  ==> DFT Potential <==

   => Composite Functional: SCAN-D3BJ <= 

    SCAN Meta-GGA XC Functional
(10.1103/PhysRevLett.115.036402)
    J. Sun, A. Ruzsinszky, J. P. Perdew  Phys. Rev. Lett. 115, 036402, 2015


    Deriv               =              1
    GGA                 =           TRUE
    Meta                =           TRUE

    Exchange Hybrid     =          FALSE
    MP2 Hybrid          =          FALSE

   => Exchange Functionals <=

    1.0000   XC_MGGA_X_SCAN

   => Correlation Functionals <=

    1.0000   XC_MGGA_C_SCAN

   => LibXC Density Thresholds  <==

    XC_MGGA_C_SCAN:  1.00E-15 
    XC_MGGA_X_SCAN:  1.00E-15 

   => Molecular Quadrature <=

    Radial Scheme          =       TREUTLER
    Pruning Scheme         =           NONE
    Nuclear Scheme         =       TREUTLER

    BS radius alpha        =              1
    Pruning alpha          =              1
    Radial Points          =             75
    Spherical Points       =            302
    Total Points           =         171371
    Total Blocks           =           1392
    Max Points             =            256
    Max Functions          =            314
    Weights Tolerance      =       1.00E-15

   => Loading Basis Set <=

    Name: (DEF2-TZVPPD AUX)
    Role: JKFIT
    Keyword: DF_BASIS_SCF
    atoms 1-4 entry AU         line  8426 file /mnt/storage/home/zw18965/.conda/envs/p4env/share/psi4/basis/def2-universal-jkfit.gbs 
    atoms 5   entry N          line   258 file /mnt/storage/home/zw18965/.conda/envs/p4env/share/psi4/basis/def2-universal-jkfit.gbs 
    atoms 6-8 entry H          line    18 file /mnt/storage/home/zw18965/.conda/envs/p4env/share/psi4/basis/def2-universal-jkfit.gbs 

  ==> Integral Setup <==

  DFHelper Memory: AOs need 0.890 GiB; user supplied 81.213 GiB. Using in-core AOs.

  ==> MemDFJK: Density-Fitted J/K Matrices <==

    J tasked:                   Yes
    K tasked:                    No
    wK tasked:                   No
    OpenMP threads:              28
    Memory [MiB]:             83162
    Algorithm:                 Core
    Schwarz Cutoff:           1E-12
    Mask sparsity (%):       5.3974
    Fitting Condition:        1E-10

   => Auxiliary Basis Set <=

  Basis Set: (DEF2-TZVPPD AUX)
    Blend: DEF2-UNIVERSAL-JKFIT
    Number of shells: 247
    Number of basis functions: 1119
    Number of Cartesian functions: 1613
    Spherical Harmonics?: true
    Max angular momentum: 6

  Cached 100.0% of DFT collocation blocks in 2.606 [GiB].

  Minimum eigenvalue in the overlap matrix is 2.0604335840E-04.
  Reciprocal condition number of the overlap matrix is 2.4647332526E-05.
    Using symmetric orthogonalization.

  ==> Pre-Iterations <==

  SCF Guess: Superposition of Atomic Densities via on-the-fly atomic UHF (no occupation information).

   -------------------------
    Irrep   Nso     Nmo    
   -------------------------
     A'       189     189 
     A"       135     135 
   -------------------------
    Total     324     324
   -------------------------

  ==> Iterations <==

                           Total Energy        Delta E     RMS |[F,P]|

   @DF-RKS iter SAD:  -598.71919195195414   -5.98719e+02   0.00000e+00 
   @DF-RKS iter   1:  -598.66566065849804    5.35313e-02   4.45068e-03 DIIS
   @DF-RKS iter   2:  -596.23012813609307    2.43553e+00   9.09281e-03 DIIS
   @DF-RKS iter   3:  -598.52624595286375   -2.29612e+00   4.32319e-03 DIIS
   @DF-RKS iter   4:  -599.00664635871408   -4.80400e-01   1.37029e-03 DIIS
   @DF-RKS iter   5:  -599.03015958955143   -2.35132e-02   1.16900e-03 DIIS
   @DF-RKS iter   6:  -599.05798508056796   -2.78255e-02   2.56990e-04 DIIS
   @DF-RKS iter   7:  -599.05881367597374   -8.28595e-04   1.47403e-04 DIIS
   @DF-RKS iter   8:  -599.05921008493021   -3.96409e-04   7.42352e-05 DIIS
   @DF-RKS iter   9:  -599.05934727627243   -1.37191e-04   3.05917e-05 DIIS
   @DF-RKS iter  10:  -599.05937710103944   -2.98248e-05   4.53059e-06 DIIS
   @DF-RKS iter  11:  -599.05937744654955   -3.45510e-07   2.00198e-06 DIIS
   @DF-RKS iter  12:  -599.05937753741750   -9.08680e-08   4.16789e-07 DIIS
  Energy and wave function converged.


  ==> Post-Iterations <==

   Electrons on quadrature grid:
      Ntotal   =   84.0000236508 ; deviation = 2.365e-05 

    Orbital Energies [Eh]
    ---------------------

    Doubly Occupied:                                                      

       1Ap   -14.460928     2Ap    -4.472548     3Ap    -4.472176  
       1App   -4.472171     4Ap    -4.466742     5Ap    -2.662925  
       2App   -2.657449     6Ap    -2.657446     7Ap    -2.653666  
       3App   -2.652819     8Ap    -2.652801     4App   -2.650790  
       9Ap    -2.650421     5App   -2.650415    10Ap    -2.649745  
       6App   -2.645307    11Ap    -2.645302    12Ap    -1.137873  
      13Ap    -0.755007    14Ap    -0.741551     7App   -0.741548  
      15Ap    -0.698554    16Ap    -0.695030     8App   -0.695019  
       9App   -0.675067    17Ap    -0.675064    18Ap    -0.656979  
      19Ap    -0.652046    10App   -0.650581    20Ap    -0.650543  
      21Ap    -0.618949    11App   -0.618918    22Ap    -0.616921  
      12App   -0.616801    13App   -0.615469    23Ap    -0.615442  
      14App   -0.613385    24Ap    -0.613347    15App   -0.589559  
      16App   -0.588524    25Ap    -0.588520    26Ap    -0.568707  

    Virtual:                                                              

      27Ap    -0.490542    17App   -0.490540    28Ap    -0.479197  
      29Ap    -0.342132    30Ap    -0.334186    18App   -0.334185  
      31Ap    -0.315761    19App   -0.310978    32Ap    -0.310975  
      33Ap    -0.223195    34Ap    -0.183286    20App   -0.183283  
      35Ap    -0.180675    21App   -0.180673    22App   -0.177018  
      36Ap    -0.161017    37Ap    -0.151116    23App   -0.151094  
      38Ap    -0.113579    24App   -0.095249    39Ap    -0.095248  
      40Ap    -0.093328    41Ap    -0.090313    25App   -0.087996  
      42Ap    -0.087996    43Ap    -0.064818    26App   -0.064815  
      44Ap    -0.056493    45Ap    -0.051415    27App   -0.051413  
      46Ap    -0.012711    28App   -0.011644    47Ap    -0.011643  
      29App   -0.001008    30App    0.001031    48Ap     0.001035  
      49Ap     0.001746    50Ap     0.039070    31App    0.039077  
      51Ap     0.049551    52Ap     0.052975    32App    0.052982  
      33App    0.053488    53Ap     0.071197    34App    0.071224  
      54Ap     0.099392    55Ap     0.105979    35App    0.105979  
      56Ap     0.120084    36App    0.152195    57Ap     0.169751  
      37App    0.169770    58Ap     0.181688    38App    0.181694  
      59Ap     0.191258    39App    0.191264    60Ap     0.199131  
      61Ap     0.208650    40App    0.208653    62Ap     0.208854  
      63Ap     0.241479    41App    0.241495    64Ap     0.241999  
      65Ap     0.247363    42App    0.247372    43App    0.267077  
      66Ap     0.268223    44App    0.268223    67Ap     0.287125  
      68Ap     0.325365    69Ap     0.440814    45App    0.440846  
      70Ap     0.459294    71Ap     0.500240    72Ap     0.508799  
      46App    0.508811    73Ap     0.551481    74Ap     0.572035  
      47App    0.572042    48App    0.586286    75Ap     0.586287  
      76Ap     0.616245    49App    0.661635    77Ap     0.661649  
      78Ap     0.661938    50App    0.695235    79Ap     0.695240  
      51App    0.707639    80Ap     0.761165    52App    0.790020  
      81Ap     0.790026    53App    0.811281    82Ap     0.811292  
      83Ap     0.814246    54App    0.816141    84Ap     0.832003  
      55App    0.843094    56App    0.843204    57App    0.844678  
      85Ap     0.844712    58App    0.872499    86Ap     0.872520  
      59App    0.915505    87Ap     0.915505    88Ap     0.915638  
      89Ap     0.941107    60App    0.941114    61App    0.963440  
      90Ap     0.973423    91Ap     0.979940    62App    0.979961  
      92Ap     0.995239    63App    0.995289    93Ap     1.022306  
      64App    1.026981    94Ap     1.026982    95Ap     1.061396  
      65App    1.061408    96Ap     1.090157    66App    1.096518  
      97Ap     1.101544    67App    1.101565    98Ap     1.131909  
      68App    1.131962    99Ap     1.145409    69App    1.145453  
     100Ap     1.165810    70App    1.165837   101Ap     1.197603  
      71App    1.197627    72App    1.206200   102Ap     1.211312  
     103Ap     1.221176   104Ap     1.249874    73App    1.249901  
     105Ap     1.268737    74App    1.268741   106Ap     1.295750  
     107Ap     1.354345    75App    1.384711   108Ap     1.384732  
     109Ap     1.388518    76App    1.413188   110Ap     1.413242  
     111Ap     1.531989    77App    1.577986   112Ap     1.578075  
      78App    1.625559    79App    1.631976   113Ap     1.632074  
     114Ap     1.936864   115Ap     2.254539   116Ap     2.374794  
      80App    2.374972   117Ap     2.376152   118Ap     2.458756  
     119Ap     2.516765    81App    2.516811   120Ap     2.569003  
      82App    2.733328   121Ap     2.733340   122Ap     2.871164  
      83App    3.025787   123Ap     3.074191   124Ap     3.082316  
      84App    3.082380   125Ap     3.097451    85App    3.097525  
     126Ap     3.097937    86App    3.133652   127Ap     3.133786  
      87App    3.196066    88App    3.232745   128Ap     3.232808  
     129Ap     3.249642   130Ap     3.251210    89App    3.251241  
      90App    3.283174    91App    3.293378   131Ap     3.293465  
      92App    3.305344    93App    3.315076   132Ap     3.315182  
     133Ap     3.352796   134Ap     3.420529    94App    3.420874  
      95App    3.423671   135Ap     3.423845   136Ap     3.434100  
      96App    3.434283    97App    3.453122   137Ap     3.453673  
     138Ap     3.527286   139Ap     3.538181    98App    3.538540  
      99App    3.629359   140Ap     3.637712   100App    3.638246  
     141Ap     3.694843   101App    3.749365   142Ap     3.749513  
     143Ap     3.777864   102App    3.778199   144Ap     3.784304  
     103App    3.785392   145Ap     3.785628   146Ap     3.788066  
     147Ap     3.788668   104App    3.788781   148Ap     3.788852  
     105App    3.788992   106App    3.789277   149Ap     3.793101  
     107App    3.794920   150Ap     3.795104   151Ap     3.795536  
     108App    3.797687   152Ap     3.798053   109App    3.798130  
     110App    3.802353   153Ap     3.803116   111App    3.803310  
     154Ap     3.807417   155Ap     3.820546   112App    3.820577  
     156Ap     3.824731   113App    3.825235   157Ap     3.827716  
     114App    3.827782   115App    3.831530   158Ap     3.831589  
     116App    3.864560   159Ap     3.864758   160Ap     3.904017  
     117App    3.921422   161Ap     3.921572   162Ap     3.922678  
     118App    3.997176   163Ap     3.997227   119App    4.030904  
     164Ap     4.042278   120App    4.042315   121App    4.247815  
     122App    4.343868   165Ap     4.343926   166Ap     4.414557  
     167Ap     4.579804   168Ap     4.732266   123App    4.732334  
     169Ap     5.101202   124App    5.101518   170Ap     5.152054  
     171Ap     5.382230   125App    5.731490   172Ap     5.767724  
     126App    5.767968   127App    5.863115   173Ap     5.863139  
     174Ap     6.351509   175Ap     6.559975   128App    6.559976  
     176Ap    27.539409   129App   27.539629   177Ap    27.732975  
     130App   27.733047   178Ap    28.356116   131App   28.687228  
     132App   29.239148   179Ap    29.239302   180Ap    29.565240  
     181Ap    29.797690   182Ap    29.907988   133App   29.908073  
     183Ap    32.453751   184Ap    43.941158   185Ap    44.431162  
     134App   44.478373   186Ap    44.478376   187Ap   204.901093  
     188Ap   205.118174   189Ap   205.135705   135App  205.135707  

    Final Occupation by Irrep:
             Ap   App 
    DOCC [    26,   16 ]

  @DF-RKS Final Energy:  -599.05937753741750

   => Energetics <=

    Nuclear Repulsion Energy =            547.1140380717746439
    One-Electron Energy =               -2093.4097736279049968
    Two-Electron Energy =                1006.3365561215661046
    DFT Exchange-Correlation Energy =     -59.0978052728533925
    Empirical Dispersion Energy =          -0.0023928300000000
    VV10 Nonlocal Energy =                  0.0000000000000000
    Total Energy =                       -599.0593775374175038

Computation Completed


Properties will be evaluated at   0.000000,   0.000000,   0.000000 [a0]

Properties computed using the SCF density matrix

  Nuclear Dipole Moment: [e a0]
     X:    -0.0000      Y:    53.5849      Z:     0.0000

  Electronic Dipole Moment: [e a0]
     X:    -0.0000      Y:   -51.4982      Z:     0.0000

  Dipole Moment: [e a0]
     X:    -0.0001      Y:     2.0867      Z:     0.0000     Total:     2.0867

  Dipole Moment: [D]
     X:    -0.0001      Y:     5.3039      Z:     0.0000     Total:     5.3039


*** tstop() called on compute087.bc4.acrc.priv at Fri Nov  5 04:20:09 2021
Module time:
	user time   =     284.87 seconds =       4.75 minutes
	system time =      13.59 seconds =       0.23 minutes
	total time  =         24 seconds =       0.40 minutes
Total time:
	user time   =     284.87 seconds =       4.75 minutes
	system time =      13.59 seconds =       0.23 minutes
	total time  =         24 seconds =       0.40 minutes

    Psi4 stopped on: Friday, 05 November 2021 04:20AM
    Psi4 wall time for execution: 0:00:23.36

*** Psi4 exiting successfully. Buy a developer a beer!
