
    -----------------------------------------------------------------------
          Psi4: An Open-Source Ab Initio Electronic Structure Package
                               Psi4 1.4.1 release

                         Git: Rev {HEAD} cd00f19 


    D. G. A. Smith, L. A. Burns, A. C. Simmonett, R. M. Parrish,
    M. C. Schieber, R. Galvelis, P. Kraus, H. Kruse, R. Di Remigio,
    A. Alenaizan, A. M. James, S. Lehtola, J. P. Misiewicz, M. Scheurer,
    R. A. Shaw, J. B. Schriber, Y. Xie, Z. L. Glick, D. A. Sirianni,
    J. S. O'Brien, J. M. Waldrop, A. Kumar, E. G. Hohenstein,
    B. P. Pritchard, B. R. Brooks, H. F. Schaefer III, A. Yu. Sokolov,
    K. Patkowski, A. E. DePrince III, U. Bozkaya, R. A. King,
    F. A. Evangelista, J. M. Turney, T. D. Crawford, C. D. Sherrill,
    J. Chem. Phys. 152(18) 184108 (2020). https://doi.org/10.1063/5.0006002

                            Additional Code Authors
    E. T. Seidl, C. L. Janssen, E. F. Valeev, M. L. Leininger,
    J. F. Gonthier, R. M. Richard, H. R. McAlexander, M. Saitow, X. Wang,
    P. Verma, and M. H. Lechner

             Previous Authors, Complete List of Code Contributors,
                       and Citations for Specific Modules
    https://github.com/psi4/psi4/blob/master/codemeta.json
    https://github.com/psi4/psi4/graphs/contributors
    http://psicode.org/psi4manual/master/introduction.html#citing-psifour

    -----------------------------------------------------------------------


    Psi4 started on: Friday, 05 November 2021 04:20AM

    Process ID: 25528
    Host:       compute087.bc4.acrc.priv
    PSIDATADIR: /mnt/storage/home/zw18965/.conda/envs/p4env/share/psi4
    Memory:     500.0 MiB
    Threads:    28
    
  ==> Input File <==

--------------------------------------------------------------------------
memory 120 GB

molecule {
2 1
Au      -0.274490    1.572639   -0.000000 
Au       1.635934   -0.418177    0.000000 
Au      -0.639028   -0.815642    1.333593 
Au      -0.639028   -0.815642   -1.333593 
N       -0.639028    3.654013   -0.000000 
H       -0.235750    4.112347    0.824759 
H       -0.235750    4.112347   -0.824759 
H       -1.642949    3.866239   -0.000000 
 }

set basis Def2-TZVPPD

energy("SCAN-D3BJ")
--------------------------------------------------------------------------

  Memory set to 111.759 GiB by Python driver.

Scratch directory: /tmp/

*** tstart() called on compute087.bc4.acrc.priv
*** at Fri Nov  5 04:20:20 2021

   => Loading Basis Set <=

    Name: DEF2-TZVPPD
    Role: ORBITAL
    Keyword: BASIS
    atoms 1-4 entry AU         line  2995 (ECP: line  4084) file /mnt/storage/home/zw18965/.conda/envs/p4env/share/psi4/basis/def2-tzvppd.gbs 
    atoms 5   entry N          line   181 file /mnt/storage/home/zw18965/.conda/envs/p4env/share/psi4/basis/def2-tzvppd.gbs 
    atoms 6-8 entry H          line    14 file /mnt/storage/home/zw18965/.conda/envs/p4env/share/psi4/basis/def2-tzvppd.gbs 

    !!!  WARNING: ECP capability is in beta. Please check occupations closely.  !!!

   => SCAN-D3(BJ): Empirical Dispersion <=

    Grimme's -D3 (BJ-damping) Dispersion Correction
    Grimme S.; Ehrlich S.; Goerigk L. (2011), J. Comput. Chem., 32: 1456
    Parametrisation from:    J.G. Brandenburg, J. E. Bates, J. Sun, J.P. Perdew, Phys. Rev. B 94, 115144, 2016

        s6 =       1.000000
        s8 =       0.000000
        a1 =       0.538000
        a2 =       5.420000


         ---------------------------------------------------------
                                   SCF
               by Justin Turney, Rob Parrish, Andy Simmonett
                          and Daniel G. A. Smith
                              RKS Reference
                       28 Threads, 114440 MiB Core
         ---------------------------------------------------------

  ==> Geometry <==

    Molecular point group: cs
    Full point group: Cs

    Geometry (in Angstrom), charge = 2, multiplicity = 1:

       Center              X                  Y                   Z               Mass       
    ------------   -----------------  -----------------  -----------------  -----------------
         AU          -0.281131004952     1.610613041947     0.000000000000   196.966568790000
         AU           1.629292995048    -0.380202958053     0.000000000000   196.966568790000
         AU          -0.645669004952    -0.777667958053     1.333593000000   196.966568790000
         AU          -0.645669004952    -0.777667958053    -1.333593000000   196.966568790000
         N           -0.645669004952     3.691987041947     0.000000000000    14.003074004430
         H           -0.242391004952     4.150321041947     0.824759000000     1.007825032230
         H           -0.242391004952     4.150321041947    -0.824759000000     1.007825032230
         H           -1.649590004952     3.904213041947     0.000000000000     1.007825032230

  Running in cs symmetry.

  Rotational constants: A =      0.01201  B =      0.00974  C =      0.00974 [cm^-1]
  Rotational constants: A =    360.03888  B =    292.13175  C =    292.08785 [MHz]
  Nuclear repulsion =  541.964518455493703

  Charge       = 2
  Multiplicity = 1
  Electrons    = 84
  Nalpha       = 42
  Nbeta        = 42

  ==> Algorithm <==

  SCF Algorithm Type is DF.
  DIIS enabled.
  MOM disabled.
  Fractional occupation disabled.
  Guess Type is SAD.
  Energy threshold   = 1.00e-06
  Density threshold  = 1.00e-06
  Integral threshold = 1.00e-12

  ==> Primary Basis <==

  Basis Set: DEF2-TZVPPD
    Blend: DEF2-TZVPPD
    Number of shells: 102
    Number of basis functions: 324
    Number of Cartesian functions: 393
    Spherical Harmonics?: true
    Max angular momentum: 4

  Core potential: DEF2-TZVPPD
    Number of shells: 16
    Number of ECP primitives: 56
    Number of ECP core electrons: 240
    Max angular momentum: 3

  ==> DFT Potential <==

   => Composite Functional: SCAN-D3BJ <= 

    SCAN Meta-GGA XC Functional
(10.1103/PhysRevLett.115.036402)
    J. Sun, A. Ruzsinszky, J. P. Perdew  Phys. Rev. Lett. 115, 036402, 2015


    Deriv               =              1
    GGA                 =           TRUE
    Meta                =           TRUE

    Exchange Hybrid     =          FALSE
    MP2 Hybrid          =          FALSE

   => Exchange Functionals <=

    1.0000   XC_MGGA_X_SCAN

   => Correlation Functionals <=

    1.0000   XC_MGGA_C_SCAN

   => LibXC Density Thresholds  <==

    XC_MGGA_C_SCAN:  1.00E-15 
    XC_MGGA_X_SCAN:  1.00E-15 

   => Molecular Quadrature <=

    Radial Scheme          =       TREUTLER
    Pruning Scheme         =           NONE
    Nuclear Scheme         =       TREUTLER

    BS radius alpha        =              1
    Pruning alpha          =              1
    Radial Points          =             75
    Spherical Points       =            302
    Total Points           =         171586
    Total Blocks           =           1397
    Max Points             =            256
    Max Functions          =            312
    Weights Tolerance      =       1.00E-15

   => Loading Basis Set <=

    Name: (DEF2-TZVPPD AUX)
    Role: JKFIT
    Keyword: DF_BASIS_SCF
    atoms 1-4 entry AU         line  8426 file /mnt/storage/home/zw18965/.conda/envs/p4env/share/psi4/basis/def2-universal-jkfit.gbs 
    atoms 5   entry N          line   258 file /mnt/storage/home/zw18965/.conda/envs/p4env/share/psi4/basis/def2-universal-jkfit.gbs 
    atoms 6-8 entry H          line    18 file /mnt/storage/home/zw18965/.conda/envs/p4env/share/psi4/basis/def2-universal-jkfit.gbs 

  ==> Integral Setup <==

  DFHelper Memory: AOs need 0.858 GiB; user supplied 81.294 GiB. Using in-core AOs.

  ==> MemDFJK: Density-Fitted J/K Matrices <==

    J tasked:                   Yes
    K tasked:                    No
    wK tasked:                   No
    OpenMP threads:              28
    Memory [MiB]:             83245
    Algorithm:                 Core
    Schwarz Cutoff:           1E-12
    Mask sparsity (%):       9.0535
    Fitting Condition:        1E-10

   => Auxiliary Basis Set <=

  Basis Set: (DEF2-TZVPPD AUX)
    Blend: DEF2-UNIVERSAL-JKFIT
    Number of shells: 247
    Number of basis functions: 1119
    Number of Cartesian functions: 1613
    Spherical Harmonics?: true
    Max angular momentum: 6

  Cached 100.0% of DFT collocation blocks in 2.525 [GiB].

  Minimum eigenvalue in the overlap matrix is 1.5027436225E-04.
  Reciprocal condition number of the overlap matrix is 1.7815135996E-05.
    Using symmetric orthogonalization.

  ==> Pre-Iterations <==

  SCF Guess: Superposition of Atomic Densities via on-the-fly atomic UHF (no occupation information).

   -------------------------
    Irrep   Nso     Nmo    
   -------------------------
     A'       189     189 
     A"       135     135 
   -------------------------
    Total     324     324
   -------------------------

  ==> Iterations <==

                           Total Energy        Delta E     RMS |[F,P]|

   @DF-RKS iter SAD:  -598.81619838209565   -5.98816e+02   0.00000e+00 
   @DF-RKS iter   1:  -598.80473099224821    1.14674e-02   4.08212e-03 DIIS
   @DF-RKS iter   2:  -597.66399647924766    1.14073e+00   7.47443e-03 DIIS
   @DF-RKS iter   3:  -598.97734101583512   -1.31334e+00   2.38390e-03 DIIS
   @DF-RKS iter   4:  -599.12240894158822   -1.45068e-01   7.26386e-04 DIIS
   @DF-RKS iter   5:  -599.13064389998897   -8.23496e-03   3.31582e-04 DIIS
   @DF-RKS iter   6:  -599.13202148062430   -1.37758e-03   1.95754e-04 DIIS
   @DF-RKS iter   7:  -599.13283532345577   -8.13843e-04   7.83081e-05 DIIS
   @DF-RKS iter   8:  -599.13296906246057   -1.33739e-04   2.54012e-05 DIIS
   @DF-RKS iter   9:  -599.13298168543849   -1.26230e-05   6.29248e-06 DIIS
   @DF-RKS iter  10:  -599.13298280327695   -1.11784e-06   1.88778e-06 DIIS
   @DF-RKS iter  11:  -599.13298286443296   -6.11560e-08   4.08401e-07 DIIS
  Energy and wave function converged.


  ==> Post-Iterations <==

   Electrons on quadrature grid:
      Ntotal   =   83.9999938874 ; deviation = -6.113e-06 

    Orbital Energies [Eh]
    ---------------------

    Doubly Occupied:                                                      

       1Ap   -14.522829     2Ap    -4.462772     3Ap    -4.462351  
       1App   -4.462327     4Ap    -4.462107     5Ap    -2.654339  
       6Ap    -2.649592     7Ap    -2.647796     2App   -2.647791  
       3App   -2.642458     8Ap    -2.642430     9Ap    -2.640863  
       4App   -2.640333    10Ap    -2.640271     5App   -2.640250  
       6App   -2.636656    11Ap    -2.636655    12Ap    -1.192132  
      13Ap    -0.794864     7App   -0.794853    14Ap    -0.762030  
      15Ap    -0.709662     8App   -0.683515    16Ap    -0.683481  
      17Ap    -0.674687     9App   -0.662788    18Ap    -0.662782  
      19Ap    -0.645057    10App   -0.638335    20Ap    -0.638303  
      21Ap    -0.634950    22Ap    -0.608561    11App   -0.608539  
      12App   -0.604958    13App   -0.604941    23Ap    -0.604937  
      14App   -0.602817    24Ap    -0.602793    15App   -0.579767  
      25Ap    -0.579751    16App   -0.578638    26Ap    -0.576550  

    Virtual:                                                              

      17App   -0.480558    27Ap    -0.480545    28Ap    -0.432684  
      29Ap    -0.327868    18App   -0.323472    30Ap    -0.323458  
      31Ap    -0.302920    19App   -0.302920    32Ap    -0.281196  
      33Ap    -0.215041    20App   -0.186504    34Ap    -0.186485  
      21App   -0.168872    35Ap    -0.168858    22App   -0.165811  
      23App   -0.161162    36Ap    -0.161153    37Ap    -0.147911  
      24App   -0.112650    38Ap    -0.112643    39Ap    -0.110904  
      40Ap    -0.089437    41Ap    -0.082274    25App   -0.080090  
      42Ap    -0.080084    43Ap    -0.062912    26App   -0.062907  
      44Ap    -0.051635    27App   -0.020396    45Ap    -0.020372  
      46Ap    -0.009641    28App   -0.005241    47Ap    -0.005232  
      29App    0.003844    48Ap     0.003865    30App    0.008364  
      49Ap     0.009795    31App    0.021133    50Ap     0.021159  
      51Ap     0.063058    32App    0.063061    52Ap     0.071461  
      33App    0.071469    53Ap     0.071824    54Ap     0.077340  
      34App    0.079026    35App    0.115327    55Ap     0.115361  
      36App    0.119448    56Ap     0.127774    57Ap     0.150978  
      37App    0.151003    38App    0.160568    58Ap     0.160584  
      59Ap     0.186648    60Ap     0.203885    39App    0.204535  
      61Ap     0.204561    62Ap     0.210654    40App    0.210680  
      63Ap     0.244391    41App    0.244393    64Ap     0.260222  
      65Ap     0.261622    42App    0.261623    43App    0.263323  
      66Ap     0.304939    44App    0.346100    67Ap     0.346269  
      68Ap     0.403190    69Ap     0.435587    45App    0.435594  
      70Ap     0.482707    46App    0.504071    71Ap     0.504094  
      72Ap     0.507091    73Ap     0.581320    47App    0.592987  
      74Ap     0.593047    48App    0.624580    75Ap     0.624647  
      76Ap     0.657392    77Ap     0.684213    49App    0.684226  
      78Ap     0.709720    79Ap     0.722887    50App    0.724031  
      80Ap     0.753460    51App    0.753476    81Ap     0.778656  
      52App    0.784914    53App    0.793593    82Ap     0.793600  
      54App    0.798007    83Ap     0.798018    84Ap     0.845284  
      55App    0.845294    56App    0.848920    57App    0.855770  
      58App    0.858681    85Ap     0.858704    86Ap     0.865929  
      59App    0.877740    87Ap     0.877806    60App    0.932986  
      88Ap     0.933003    89Ap     0.951667    61App    0.954138  
      90Ap     0.954180    62App    0.971504    63App    1.002415  
      91Ap     1.002420    64App    1.026103    92Ap     1.026157  
      93Ap     1.029452    65App    1.041929    94Ap     1.041957  
      95Ap     1.077765    96Ap     1.082117    66App    1.082165  
      67App    1.102458    97Ap     1.126466    98Ap     1.137481  
      68App    1.137531    99Ap     1.140691    69App    1.144499  
     100Ap     1.144535    70App    1.179327   101Ap     1.179384  
      71App    1.206597    72App    1.222038   102Ap     1.222065  
     103Ap     1.223091   104Ap     1.262286    73App    1.265655  
     105Ap     1.265684   106Ap     1.280882    74App    1.280909  
     107Ap     1.369208   108Ap     1.430060    75App    1.456682  
     109Ap     1.456829   110Ap     1.509449    76App    1.509459  
      77App    1.536885   111Ap     1.536960    78App    1.612192  
     112Ap     1.612369   113Ap     1.635472    79App    1.652255  
     114Ap     2.116928   115Ap     2.311396    80App    2.408879  
     116Ap     2.408897   117Ap     2.437991    81App    2.503450  
     118Ap     2.503578   119Ap     2.514845   120Ap     2.621228  
      82App    2.679912   121Ap     2.679967    83App    2.975154  
     122Ap     2.981296    84App    3.038421   123Ap     3.038426  
     124Ap     3.092886    85App    3.122498   125Ap     3.122551  
     126Ap     3.131585    86App    3.131699   127Ap     3.161016  
      87App    3.211341    88App    3.215344   128Ap     3.215365  
      89App    3.223261   129Ap     3.227759    90App    3.227869  
     130Ap     3.253109   131Ap     3.274256    91App    3.274270  
     132Ap     3.295603    92App    3.296409   133Ap     3.296749  
      93App    3.310337   134Ap     3.419594    94App    3.419854  
      95App    3.431805   135Ap     3.441470    96App    3.441495  
      97App    3.468955   136Ap     3.469306   137Ap     3.524665  
     138Ap     3.567360    98App    3.567674   139Ap     3.625851  
     140Ap     3.629714    99App    3.629759   100App    3.635168  
     141Ap     3.700917   142Ap     3.741198   101App    3.741590  
     102App    3.779836   143Ap     3.779862   144Ap     3.791671  
     103App    3.792077   145Ap     3.792186   146Ap     3.795453  
     104App    3.797571   147Ap     3.797776   105App    3.801111  
     148Ap     3.801669   106App    3.802002   149Ap     3.804200  
     107App    3.805501   150Ap     3.805864   151Ap     3.807455  
     108App    3.808778   152Ap     3.811801   109App    3.812031  
     110App    3.812637   153Ap     3.817421   111App    3.817595  
     154Ap     3.823933   155Ap     3.827109   112App    3.827131  
     113App    3.835763   114App    3.840550   156Ap     3.840605  
     115App    3.844011   157Ap     3.844056   158Ap     3.897326  
     116App    3.912119   159Ap     3.912397   117App    3.949655  
     160Ap     3.949716   161Ap     3.976590   118App    4.004830  
     162Ap     4.005247   119App    4.058157   163Ap     4.149893  
     120App    4.176884   164Ap     4.274003   121App    4.274027  
     122App    4.349311   165Ap     4.349384   166Ap     4.381646  
     167Ap     4.708793   123App    4.708862   168Ap     4.899078  
     169Ap     5.080583   124App    5.080719   170Ap     5.163658  
     171Ap     5.462769   172Ap     5.680750   125App    5.680816  
     126App    5.751852   173Ap     5.829097   127App    5.829374  
     174Ap     6.356851   175Ap     6.524534   128App    6.524778  
     176Ap    27.407137   129App   27.407382   177Ap    27.646135  
     130App   27.646341   178Ap    27.738300   131App   28.723682  
     132App   28.827241   179Ap    28.828052   180Ap    29.028310  
     133App   29.727926   181Ap    29.729469   182Ap    31.289739  
     183Ap    32.592915   184Ap    44.060049   134App   44.493662  
     185Ap    44.493907   186Ap    44.632269   187Ap   204.956759  
     135App  205.148012   188Ap   205.148101   189Ap   205.201054  

    Final Occupation by Irrep:
             Ap   App 
    DOCC [    26,   16 ]

  @DF-RKS Final Energy:  -599.13298286443296

   => Energetics <=

    Nuclear Repulsion Energy =            541.9645184554937032
    One-Electron Energy =               -2083.3442882698718677
    Two-Electron Energy =                1001.3430409621405488
    DFT Exchange-Correlation Energy =     -59.0940802021953999
    Empirical Dispersion Energy =          -0.0021738100000000
    VV10 Nonlocal Energy =                  0.0000000000000000
    Total Energy =                       -599.1329828644329609

Computation Completed


Properties will be evaluated at   0.000000,   0.000000,   0.000000 [a0]

Properties computed using the SCF density matrix

  Nuclear Dipole Moment: [e a0]
     X:   -10.5341      Y:    60.2353      Z:     0.0000

  Electronic Dipole Moment: [e a0]
     X:    10.0516      Y:   -57.4777      Z:     0.0000

  Dipole Moment: [e a0]
     X:    -0.4825      Y:     2.7577      Z:     0.0000     Total:     2.7996

  Dipole Moment: [D]
     X:    -1.2264      Y:     7.0093      Z:     0.0000     Total:     7.1158


*** tstop() called on compute087.bc4.acrc.priv at Fri Nov  5 04:20:43 2021
Module time:
	user time   =     274.76 seconds =       4.58 minutes
	system time =      11.04 seconds =       0.18 minutes
	total time  =         23 seconds =       0.38 minutes
Total time:
	user time   =     274.76 seconds =       4.58 minutes
	system time =      11.04 seconds =       0.18 minutes
	total time  =         23 seconds =       0.38 minutes

    Psi4 stopped on: Friday, 05 November 2021 04:20AM
    Psi4 wall time for execution: 0:00:22.86

*** Psi4 exiting successfully. Buy a developer a beer!
