
    -----------------------------------------------------------------------
          Psi4: An Open-Source Ab Initio Electronic Structure Package
                               Psi4 1.4.1 release

                         Git: Rev {HEAD} cd00f19 


    D. G. A. Smith, L. A. Burns, A. C. Simmonett, R. M. Parrish,
    M. C. Schieber, R. Galvelis, P. Kraus, H. Kruse, R. Di Remigio,
    A. Alenaizan, A. M. James, S. Lehtola, J. P. Misiewicz, M. Scheurer,
    R. A. Shaw, J. B. Schriber, Y. Xie, Z. L. Glick, D. A. Sirianni,
    J. S. O'Brien, J. M. Waldrop, A. Kumar, E. G. Hohenstein,
    B. P. Pritchard, B. R. Brooks, H. F. Schaefer III, A. Yu. Sokolov,
    K. Patkowski, A. E. DePrince III, U. Bozkaya, R. A. King,
    F. A. Evangelista, J. M. Turney, T. D. Crawford, C. D. Sherrill,
    J. Chem. Phys. 152(18) 184108 (2020). https://doi.org/10.1063/5.0006002

                            Additional Code Authors
    E. T. Seidl, C. L. Janssen, E. F. Valeev, M. L. Leininger,
    J. F. Gonthier, R. M. Richard, H. R. McAlexander, M. Saitow, X. Wang,
    P. Verma, and M. H. Lechner

             Previous Authors, Complete List of Code Contributors,
                       and Citations for Specific Modules
    https://github.com/psi4/psi4/blob/master/codemeta.json
    https://github.com/psi4/psi4/graphs/contributors
    http://psicode.org/psi4manual/master/introduction.html#citing-psifour

    -----------------------------------------------------------------------


    Psi4 started on: Tuesday, 02 November 2021 11:12AM

    Process ID: 17258
    Host:       compute415.bc4.acrc.priv
    PSIDATADIR: /mnt/storage/home/zw18965/.conda/envs/p4env/share/psi4
    Memory:     500.0 MiB
    Threads:    28
    
  ==> Input File <==

--------------------------------------------------------------------------
memory 144 GB

molecule {
0 1
Cu       0.000000    0.000000    0.412716 
F        0.000000    0.000000   -1.329863 
 }

set basis Def2-TZVPPD

energy("SCAN-D3BJ")
--------------------------------------------------------------------------

  Memory set to 134.110 GiB by Python driver.

Scratch directory: /tmp/

*** tstart() called on compute415.bc4.acrc.priv
*** at Tue Nov  2 11:12:57 2021

   => Loading Basis Set <=

    Name: DEF2-TZVPPD
    Role: ORBITAL
    Keyword: BASIS
    atoms 1 entry CU         line  1290 file /mnt/storage/home/zw18965/.conda/envs/p4env/share/psi4/basis/def2-tzvppd.gbs 
    atoms 2 entry F          line   257 file /mnt/storage/home/zw18965/.conda/envs/p4env/share/psi4/basis/def2-tzvppd.gbs 

   => SCAN-D3(BJ): Empirical Dispersion <=

    Grimme's -D3 (BJ-damping) Dispersion Correction
    Grimme S.; Ehrlich S.; Goerigk L. (2011), J. Comput. Chem., 32: 1456
    Parametrisation from:    J.G. Brandenburg, J. E. Bates, J. Sun, J.P. Perdew, Phys. Rev. B 94, 115144, 2016

        s6 =       1.000000
        s8 =       0.000000
        a1 =       0.538000
        a2 =       5.420000


         ---------------------------------------------------------
                                   SCF
               by Justin Turney, Rob Parrish, Andy Simmonett
                          and Daniel G. A. Smith
                              RKS Reference
                       28 Threads, 137329 MiB Core
         ---------------------------------------------------------

  ==> Geometry <==

    Molecular point group: c2v
    Full point group: C_inf_v

    Geometry (in Angstrom), charge = 0, multiplicity = 1:

       Center              X                  Y                   Z               Mass       
    ------------   -----------------  -----------------  -----------------  -----------------
         CU           0.000000000000     0.000000000000     0.404089176206    62.929597720000
         F            0.000000000000     0.000000000000    -1.338489823794    18.998403162730

  Running in c2v symmetry.

  Rotational constants: A = ************  B =      0.38043  C =      0.38043 [cm^-1]
  Rotational constants: A = ************  B =  11404.92806  C =  11404.92806 [MHz]
  Nuclear repulsion =   79.259105030457718

  Charge       = 0
  Multiplicity = 1
  Electrons    = 38
  Nalpha       = 19
  Nbeta        = 19

  ==> Algorithm <==

  SCF Algorithm Type is DF.
  DIIS enabled.
  MOM disabled.
  Fractional occupation disabled.
  Guess Type is SAD.
  Energy threshold   = 1.00e-06
  Density threshold  = 1.00e-06
  Integral threshold = 1.00e-12

  ==> Primary Basis <==

  Basis Set: DEF2-TZVPPD
    Blend: DEF2-TZVPPD
    Number of shells: 33
    Number of basis functions: 107
    Number of Cartesian functions: 129
    Spherical Harmonics?: true
    Max angular momentum: 4

  ==> DFT Potential <==

   => Composite Functional: SCAN-D3BJ <= 

    SCAN Meta-GGA XC Functional
(10.1103/PhysRevLett.115.036402)
    J. Sun, A. Ruzsinszky, J. P. Perdew  Phys. Rev. Lett. 115, 036402, 2015


    Deriv               =              1
    GGA                 =           TRUE
    Meta                =           TRUE

    Exchange Hybrid     =          FALSE
    MP2 Hybrid          =          FALSE

   => Exchange Functionals <=

    1.0000   XC_MGGA_X_SCAN

   => Correlation Functionals <=

    1.0000   XC_MGGA_C_SCAN

   => LibXC Density Thresholds  <==

    XC_MGGA_C_SCAN:  1.00E-15 
    XC_MGGA_X_SCAN:  1.00E-15 

   => Molecular Quadrature <=

    Radial Scheme          =       TREUTLER
    Pruning Scheme         =           NONE
    Nuclear Scheme         =       TREUTLER

    BS radius alpha        =              1
    Pruning alpha          =              1
    Radial Points          =             75
    Spherical Points       =            302
    Total Points           =          44013
    Total Blocks           =            413
    Max Points             =            256
    Max Functions          =            106
    Weights Tolerance      =       1.00E-15

   => Loading Basis Set <=

    Name: (DEF2-TZVPPD AUX)
    Role: JKFIT
    Keyword: DF_BASIS_SCF
    atoms 1 entry CU         line  2356 file /mnt/storage/home/zw18965/.conda/envs/p4env/share/psi4/basis/def2-universal-jkfit.gbs 
    atoms 2 entry F          line   378 file /mnt/storage/home/zw18965/.conda/envs/p4env/share/psi4/basis/def2-universal-jkfit.gbs 

  ==> Integral Setup <==

  DFHelper Memory: AOs need 0.035 GiB; user supplied 100.310 GiB. Using in-core AOs.

  ==> MemDFJK: Density-Fitted J/K Matrices <==

    J tasked:                   Yes
    K tasked:                    No
    wK tasked:                   No
    OpenMP threads:              28
    Memory [MiB]:            102717
    Algorithm:                 Core
    Schwarz Cutoff:           1E-12
    Mask sparsity (%):       0.5939
    Fitting Condition:        1E-10

   => Auxiliary Basis Set <=

  Basis Set: (DEF2-TZVPPD AUX)
    Blend: DEF2-UNIVERSAL-JKFIT
    Number of shells: 83
    Number of basis functions: 341
    Number of Cartesian functions: 470
    Spherical Harmonics?: true
    Max angular momentum: 6

  Cached 100.0% of DFT collocation blocks in 0.273 [GiB].

  Minimum eigenvalue in the overlap matrix is 2.2043391512E-03.
  Reciprocal condition number of the overlap matrix is 4.6621849774E-04.
    Using symmetric orthogonalization.

  ==> Pre-Iterations <==

  SCF Guess: Superposition of Atomic Densities via on-the-fly atomic UHF (no occupation information).

   -------------------------
    Irrep   Nso     Nmo    
   -------------------------
     A1        45      45 
     A2        12      12 
     B1        25      25 
     B2        25      25 
   -------------------------
    Total     107     107
   -------------------------

  ==> Iterations <==

                           Total Energy        Delta E     RMS |[F,P]|

   @DF-RKS iter SAD: -1738.17028162900351   -1.73817e+03   0.00000e+00 
    Occupation by irrep:
             A1    A2    B1    B2 
    DOCC [    11,    0,    4,    4 ]

   @DF-RKS iter   1: -1737.40613740440040    7.64144e-01   7.55546e-02 DIIS
    Occupation by irrep:
             A1    A2    B1    B2 
    DOCC [    11,    1,    4,    3 ]

   @DF-RKS iter   2: -1698.92067641600761    3.84855e+01   1.56767e-01 DIIS
    Occupation by irrep:
             A1    A2    B1    B2 
    DOCC [    10,    1,    4,    4 ]

   @DF-RKS iter   3: -1736.99853513216431   -3.80779e+01   5.37890e-02 DIIS
   @DF-RKS iter   4: -1739.23951194600818   -2.24098e+00   3.78877e-02 DIIS
   @DF-RKS iter   5: -1740.36221819257435   -1.12271e+00   1.61286e-02 DIIS
   @DF-RKS iter   6: -1740.54738942699100   -1.85171e-01   5.03760e-03 DIIS
   @DF-RKS iter   7: -1740.56267340970317   -1.52840e-02   1.89558e-03 DIIS
   @DF-RKS iter   8: -1740.56527212137280   -2.59871e-03   4.26850e-04 DIIS
   @DF-RKS iter   9: -1740.56551717458251   -2.45053e-04   2.34297e-05 DIIS
   @DF-RKS iter  10: -1740.56551768222789   -5.07645e-07   8.85508e-06 DIIS
   @DF-RKS iter  11: -1740.56551776221977   -7.99919e-08   2.17963e-06 DIIS
   @DF-RKS iter  12: -1740.56551776538390   -3.16413e-09   5.22842e-07 DIIS
  Energy and wave function converged.


  ==> Post-Iterations <==

   Electrons on quadrature grid:
      Ntotal   =   37.9999821168 ; deviation = -1.788e-05 

    Orbital Energies [Eh]
    ---------------------

    Doubly Occupied:                                                      

       1A1  -322.426898     2A1   -38.681673     3A1   -33.864039  
       1B2   -33.862166     1B1   -33.862166     4A1   -24.411822  
       5A1    -4.305550     6A1    -2.780678     2B2    -2.770126  
       2B1    -2.770126     7A1    -1.033993     8A1    -0.360000  
       3B2    -0.316236     3B1    -0.316236     9A1    -0.246054  
       1A2    -0.246052     4B2    -0.232084     4B1    -0.232084  
      10A1    -0.225086  

    Virtual:                                                              

      11A1    -0.141696     5B2    -0.008656     5B1    -0.008656  
      12A1     0.037531    13A1     0.073398     6B2     0.122285  
       6B1     0.122285    14A1     0.144731     7B1     0.165012  
       7B2     0.165012    15A1     0.182372     2A2     0.182395  
      16A1     0.198620     8B1     0.257640     8B2     0.257640  
      17A1     0.279064    18A1     0.372477    19A1     0.568894  
       3A2     0.568905     9B1     0.623229     9B2     0.623229  
      20A1     0.639156    21A1     0.700366    10B2     0.717934  
      10B1     0.717934    11B2     0.792057    11B1     0.792057  
      22A1     0.860383     4A2     0.860442    23A1     1.033058  
      12B2     1.039260    12B1     1.039260    24A1     1.106515  
      25A1     1.325092    26A1     2.287908    27A1     2.329243  
       5A2     2.330168    13B1     2.354649    13B2     2.354649  
      14B1     2.966549    14B2     2.966549    28A1     3.030686  
      29A1     3.148093    15B2     3.382963    15B1     3.382963  
      30A1     3.383420    16B1     3.392811    16B2     3.392811  
      31A1     3.393715     6A2     3.393716    17B2     3.504626  
      17B1     3.504626    32A1     3.622433     7A2     3.622458  
      18B2     3.698322    18B1     3.698322    33A1     3.832690  
      34A1     4.012724    35A1     4.372522     8A2     7.075568  
      36A1     7.075992    19B1     7.087428    19B2     7.087428  
      20B1     7.119412    20B2     7.119412    37A1     7.211157  
      38A1     8.616456     9A2     8.618095    21B1     8.676065  
      21B2     8.676065    39A1     8.911732    22B2    13.090579  
      22B1    13.090579    10A2    13.091422    40A1    13.091433  
      23B1    13.095623    23B2    13.095623    41A1    13.099118  
      42A1    13.102696    11A2    13.102727    12A2    13.175643  
      43A1    13.175653    24B2    13.176212    24B1    13.176212  
      25B2    13.213430    25B1    13.213430    44A1    13.407256  
      45A1    57.029137  

    Final Occupation by Irrep:
             A1    A2    B1    B2 
    DOCC [    10,    1,    4,    4 ]

  @DF-RKS Final Energy: -1740.56551776538390

   => Energetics <=

    Nuclear Repulsion Energy =             79.2591050304577180
    One-Electron Energy =               -2585.3437858310508091
    Two-Electron Energy =                 843.3711665466100840
    DFT Exchange-Correlation Energy =     -77.8519361214010672
    Empirical Dispersion Energy =          -0.0000673900000000
    VV10 Nonlocal Energy =                  0.0000000000000000
    Total Energy =                      -1740.5655177653839019

Computation Completed


Properties will be evaluated at   0.000000,   0.000000,   0.000000 [a0]

Properties computed using the SCF density matrix

  Nuclear Dipole Moment: [e a0]
     X:     0.0000      Y:     0.0000      Z:    -0.6195

  Electronic Dipole Moment: [e a0]
     X:     0.0000      Y:     0.0000      Z:     2.4790

  Dipole Moment: [e a0]
     X:     0.0000      Y:     0.0000      Z:     1.8595     Total:     1.8595

  Dipole Moment: [D]
     X:     0.0000      Y:     0.0000      Z:     4.7263     Total:     4.7263


*** tstop() called on compute415.bc4.acrc.priv at Tue Nov  2 11:13:00 2021
Module time:
	user time   =      36.69 seconds =       0.61 minutes
	system time =       2.11 seconds =       0.04 minutes
	total time  =          3 seconds =       0.05 minutes
Total time:
	user time   =      36.69 seconds =       0.61 minutes
	system time =       2.11 seconds =       0.04 minutes
	total time  =          3 seconds =       0.05 minutes

    Psi4 stopped on: Tuesday, 02 November 2021 11:13AM
    Psi4 wall time for execution: 0:00:03.11

*** Psi4 exiting successfully. Buy a developer a beer!
