
    -----------------------------------------------------------------------
          Psi4: An Open-Source Ab Initio Electronic Structure Package
                               Psi4 1.4.1 release

                         Git: Rev {HEAD} cd00f19 


    D. G. A. Smith, L. A. Burns, A. C. Simmonett, R. M. Parrish,
    M. C. Schieber, R. Galvelis, P. Kraus, H. Kruse, R. Di Remigio,
    A. Alenaizan, A. M. James, S. Lehtola, J. P. Misiewicz, M. Scheurer,
    R. A. Shaw, J. B. Schriber, Y. Xie, Z. L. Glick, D. A. Sirianni,
    J. S. O'Brien, J. M. Waldrop, A. Kumar, E. G. Hohenstein,
    B. P. Pritchard, B. R. Brooks, H. F. Schaefer III, A. Yu. Sokolov,
    K. Patkowski, A. E. DePrince III, U. Bozkaya, R. A. King,
    F. A. Evangelista, J. M. Turney, T. D. Crawford, C. D. Sherrill,
    J. Chem. Phys. 152(18) 184108 (2020). https://doi.org/10.1063/5.0006002

                            Additional Code Authors
    E. T. Seidl, C. L. Janssen, E. F. Valeev, M. L. Leininger,
    J. F. Gonthier, R. M. Richard, H. R. McAlexander, M. Saitow, X. Wang,
    P. Verma, and M. H. Lechner

             Previous Authors, Complete List of Code Contributors,
                       and Citations for Specific Modules
    https://github.com/psi4/psi4/blob/master/codemeta.json
    https://github.com/psi4/psi4/graphs/contributors
    http://psicode.org/psi4manual/master/introduction.html#citing-psifour

    -----------------------------------------------------------------------


    Psi4 started on: Tuesday, 02 November 2021 11:13AM

    Process ID: 18460
    Host:       compute385.bc4.acrc.priv
    PSIDATADIR: /mnt/storage/home/zw18965/.conda/envs/p4env/share/psi4
    Memory:     500.0 MiB
    Threads:    28
    
  ==> Input File <==

--------------------------------------------------------------------------
memory 144 GB

molecule {
0 1
Cu       0.000000    0.000000    0.048513 
H        0.000000    0.000000   -1.406870 
 }

set basis Def2-TZVPPD

energy("SCAN-D3BJ")
--------------------------------------------------------------------------

  Memory set to 134.110 GiB by Python driver.

Scratch directory: /tmp/

*** tstart() called on compute385.bc4.acrc.priv
*** at Tue Nov  2 11:13:04 2021

   => Loading Basis Set <=

    Name: DEF2-TZVPPD
    Role: ORBITAL
    Keyword: BASIS
    atoms 1 entry CU         line  1290 file /mnt/storage/home/zw18965/.conda/envs/p4env/share/psi4/basis/def2-tzvppd.gbs 
    atoms 2 entry H          line    14 file /mnt/storage/home/zw18965/.conda/envs/p4env/share/psi4/basis/def2-tzvppd.gbs 

   => SCAN-D3(BJ): Empirical Dispersion <=

    Grimme's -D3 (BJ-damping) Dispersion Correction
    Grimme S.; Ehrlich S.; Goerigk L. (2011), J. Comput. Chem., 32: 1456
    Parametrisation from:    J.G. Brandenburg, J. E. Bates, J. Sun, J.P. Perdew, Phys. Rev. B 94, 115144, 2016

        s6 =       1.000000
        s8 =       0.000000
        a1 =       0.538000
        a2 =       5.420000


         ---------------------------------------------------------
                                   SCF
               by Justin Turney, Rob Parrish, Andy Simmonett
                          and Daniel G. A. Smith
                              RKS Reference
                       28 Threads, 137329 MiB Core
         ---------------------------------------------------------

  ==> Geometry <==

    Molecular point group: c2v
    Full point group: C_inf_v

    Geometry (in Angstrom), charge = 0, multiplicity = 1:

       Center              X                  Y                   Z               Mass       
    ------------   -----------------  -----------------  -----------------  -----------------
         CU           0.000000000000     0.000000000000     0.022940734170    62.929597720000
         H            0.000000000000     0.000000000000    -1.432442265830     1.007825032230

  Running in c2v symmetry.

  Rotational constants: A = ************  B =      8.02337  C =      8.02337 [cm^-1]
  Rotational constants: A = ************  B = 240534.64253  C = 240534.64253 [MHz]
  Nuclear repulsion =   10.544399040960354

  Charge       = 0
  Multiplicity = 1
  Electrons    = 30
  Nalpha       = 15
  Nbeta        = 15

  ==> Algorithm <==

  SCF Algorithm Type is DF.
  DIIS enabled.
  MOM disabled.
  Fractional occupation disabled.
  Guess Type is SAD.
  Energy threshold   = 1.00e-06
  Density threshold  = 1.00e-06
  Integral threshold = 1.00e-12

  ==> Primary Basis <==

  Basis Set: DEF2-TZVPPD
    Blend: DEF2-TZVPPD
    Number of shells: 26
    Number of basis functions: 84
    Number of Cartesian functions: 101
    Spherical Harmonics?: true
    Max angular momentum: 4

  ==> DFT Potential <==

   => Composite Functional: SCAN-D3BJ <= 

    SCAN Meta-GGA XC Functional
(10.1103/PhysRevLett.115.036402)
    J. Sun, A. Ruzsinszky, J. P. Perdew  Phys. Rev. Lett. 115, 036402, 2015


    Deriv               =              1
    GGA                 =           TRUE
    Meta                =           TRUE

    Exchange Hybrid     =          FALSE
    MP2 Hybrid          =          FALSE

   => Exchange Functionals <=

    1.0000   XC_MGGA_X_SCAN

   => Correlation Functionals <=

    1.0000   XC_MGGA_C_SCAN

   => LibXC Density Thresholds  <==

    XC_MGGA_C_SCAN:  1.00E-15 
    XC_MGGA_X_SCAN:  1.00E-15 

   => Molecular Quadrature <=

    Radial Scheme          =       TREUTLER
    Pruning Scheme         =           NONE
    Nuclear Scheme         =       TREUTLER

    BS radius alpha        =              1
    Pruning alpha          =              1
    Radial Points          =             75
    Spherical Points       =            302
    Total Points           =          43978
    Total Blocks           =            406
    Max Points             =            255
    Max Functions          =             84
    Weights Tolerance      =       1.00E-15

   => Loading Basis Set <=

    Name: (DEF2-TZVPPD AUX)
    Role: JKFIT
    Keyword: DF_BASIS_SCF
    atoms 1 entry CU         line  2356 file /mnt/storage/home/zw18965/.conda/envs/p4env/share/psi4/basis/def2-universal-jkfit.gbs 
    atoms 2 entry H          line    18 file /mnt/storage/home/zw18965/.conda/envs/p4env/share/psi4/basis/def2-universal-jkfit.gbs 

  ==> Integral Setup <==

  DFHelper Memory: AOs need 0.019 GiB; user supplied 100.358 GiB. Using in-core AOs.

  ==> MemDFJK: Density-Fitted J/K Matrices <==

    J tasked:                   Yes
    K tasked:                    No
    wK tasked:                   No
    OpenMP threads:              28
    Memory [MiB]:            102766
    Algorithm:                 Core
    Schwarz Cutoff:           1E-12
    Mask sparsity (%):       0.0000
    Fitting Condition:        1E-10

   => Auxiliary Basis Set <=

  Basis Set: (DEF2-TZVPPD AUX)
    Blend: DEF2-UNIVERSAL-JKFIT
    Number of shells: 64
    Number of basis functions: 282
    Number of Cartesian functions: 397
    Spherical Harmonics?: true
    Max angular momentum: 6

  Cached 100.0% of DFT collocation blocks in 0.225 [GiB].

  Minimum eigenvalue in the overlap matrix is 1.9901460399E-03.
  Reciprocal condition number of the overlap matrix is 4.6612350372E-04.
    Using symmetric orthogonalization.

  ==> Pre-Iterations <==

  SCF Guess: Superposition of Atomic Densities via on-the-fly atomic UHF (no occupation information).

   -------------------------
    Irrep   Nso     Nmo    
   -------------------------
     A1        35      35 
     A2         9       9 
     B1        20      20 
     B2        20      20 
   -------------------------
    Total      84      84
   -------------------------

  ==> Iterations <==

                           Total Energy        Delta E     RMS |[F,P]|

   @DF-RKS iter SAD: -1638.95888610513134   -1.63896e+03   0.00000e+00 
    Occupation by irrep:
             A1    A2    B1    B2 
    DOCC [     9,    0,    3,    3 ]

   @DF-RKS iter   1: -1637.95394947239356    1.00494e+00   9.74362e-02 DIIS
    Occupation by irrep:
             A1    A2    B1    B2 
    DOCC [     8,    1,    3,    3 ]

   @DF-RKS iter   2: -1600.15771556820414    3.77962e+01   2.01039e-01 DIIS
    Occupation by irrep:
             A1    A2    B1    B2 
    DOCC [     8,    0,    4,    3 ]

   @DF-RKS iter   3: -1640.15497617373194   -3.99973e+01   4.80911e-02 DIIS
    Occupation by irrep:
             A1    A2    B1    B2 
    DOCC [     8,    1,    3,    3 ]

   @DF-RKS iter   4: -1628.31586205051235    1.18391e+01   1.43279e-01 DIIS
   @DF-RKS iter   5: -1640.69749379994778   -1.23816e+01   3.49722e-02 DIIS
   @DF-RKS iter   6: -1641.24227401943904   -5.44780e-01   8.41716e-03 DIIS
   @DF-RKS iter   7: -1641.26891765384016   -2.66436e-02   1.81278e-03 DIIS
   @DF-RKS iter   8: -1641.27291257458160   -3.99492e-03   4.93770e-04 DIIS
   @DF-RKS iter   9: -1641.27312493028171   -2.12356e-04   1.77197e-04 DIIS
   @DF-RKS iter  10: -1641.27313447401343   -9.54373e-06   8.00860e-05 DIIS
   @DF-RKS iter  11: -1641.27313671524121   -2.24123e-06   1.44603e-05 DIIS
   @DF-RKS iter  12: -1641.27313680812154   -9.28803e-08   2.19724e-06 DIIS
   @DF-RKS iter  13: -1641.27313680998782   -1.86628e-09   1.46197e-07 DIIS
  Energy and wave function converged.


  ==> Post-Iterations <==

   Electrons on quadrature grid:
      Ntotal   =   29.9999999547 ; deviation = -4.534e-08 

    Orbital Energies [Eh]
    ---------------------

    Doubly Occupied:                                                      

       1A1  -322.402988     2A1   -38.659949     3A1   -33.843739  
       1B1   -33.839866     1B2   -33.839866     4A1    -4.279285  
       5A1    -2.755102     2B2    -2.742859     2B1    -2.742859  
       6A1    -0.308457     3B1    -0.229843     3B2    -0.229843  
       7A1    -0.217757     1A2    -0.217757     8A1    -0.205520  

    Virtual:                                                              

       9A1    -0.096159     4B1    -0.012555     4B2    -0.012555  
      10A1     0.074325    11A1     0.097712     5B2     0.132305  
       5B1     0.132305    12A1     0.158093     6B2     0.187077  
       6B1     0.187077    13A1     0.204622     2A2     0.204649  
      14A1     0.311713     7B2     0.337214     7B1     0.337214  
      15A1     0.373426    16A1     0.495186     8B2     0.677128  
       8B1     0.677128    17A1     0.699963     9B2     0.806237  
       9B1     0.806237     3A2     0.892490    18A1     0.892519  
      19A1     1.022245    10B2     1.120202    10B1     1.120202  
      20A1     1.325020    21A1     2.512155    22A1     2.712068  
      11B2     2.973492    11B1     2.973492    12B2     3.025967  
      12B1     3.025967    23A1     3.195588    24A1     3.202426  
       4A2     3.202785    25A1     3.305165    13B2     3.425709  
      13B1     3.425709    26A1     3.537551     5A2     3.537610  
      27A1     3.657281     6A2     3.657314    14B2     3.658221  
      14B1     3.658221    28A1     3.776233    15B2     3.928559  
      15B1     3.928559    16B2     4.232124    16B1     4.232124  
      29A1     4.363035    30A1     5.364024    31A1    13.121181  
       7A2    13.121187    17B2    13.124470    17B1    13.124470  
      18B2    13.126830    18B1    13.126830    32A1    13.130650  
       8A2    13.130651    33A1    13.133627     9A2    13.200928  
      34A1    13.200931    19B2    13.202947    19B1    13.202947  
      20B1    13.305169    20B2    13.305169    35A1    13.544228  

    Final Occupation by Irrep:
             A1    A2    B1    B2 
    DOCC [     8,    1,    3,    3 ]

  @DF-RKS Final Energy: -1641.27313680998782

   => Energetics <=

    Nuclear Repulsion Energy =             10.5443990409603536
    One-Electron Energy =               -2308.7047135838793110
    Two-Electron Energy =                 724.6057414303675159
    DFT Exchange-Correlation Energy =     -67.7185011074362819
    Empirical Dispersion Energy =          -0.0000625900000000
    VV10 Nonlocal Energy =                  0.0000000000000000
    Total Energy =                      -1641.2731368099878182

Computation Completed


Properties will be evaluated at   0.000000,   0.000000,   0.000000 [a0]

Properties computed using the SCF density matrix

  Nuclear Dipole Moment: [e a0]
     X:     0.0000      Y:     0.0000      Z:    -1.4497

  Electronic Dipole Moment: [e a0]
     X:     0.0000      Y:     0.0000      Z:     2.4082

  Dipole Moment: [e a0]
     X:     0.0000      Y:     0.0000      Z:     0.9584     Total:     0.9584

  Dipole Moment: [D]
     X:     0.0000      Y:     0.0000      Z:     2.4361     Total:     2.4361


*** tstop() called on compute385.bc4.acrc.priv at Tue Nov  2 11:13:08 2021
Module time:
	user time   =      36.20 seconds =       0.60 minutes
	system time =       1.92 seconds =       0.03 minutes
	total time  =          4 seconds =       0.07 minutes
Total time:
	user time   =      36.20 seconds =       0.60 minutes
	system time =       1.92 seconds =       0.03 minutes
	total time  =          4 seconds =       0.07 minutes

    Psi4 stopped on: Tuesday, 02 November 2021 11:13AM
    Psi4 wall time for execution: 0:00:03.26

*** Psi4 exiting successfully. Buy a developer a beer!
