
    -----------------------------------------------------------------------
          Psi4: An Open-Source Ab Initio Electronic Structure Package
                               Psi4 1.4.1 release

                         Git: Rev {HEAD} cd00f19 


    D. G. A. Smith, L. A. Burns, A. C. Simmonett, R. M. Parrish,
    M. C. Schieber, R. Galvelis, P. Kraus, H. Kruse, R. Di Remigio,
    A. Alenaizan, A. M. James, S. Lehtola, J. P. Misiewicz, M. Scheurer,
    R. A. Shaw, J. B. Schriber, Y. Xie, Z. L. Glick, D. A. Sirianni,
    J. S. O'Brien, J. M. Waldrop, A. Kumar, E. G. Hohenstein,
    B. P. Pritchard, B. R. Brooks, H. F. Schaefer III, A. Yu. Sokolov,
    K. Patkowski, A. E. DePrince III, U. Bozkaya, R. A. King,
    F. A. Evangelista, J. M. Turney, T. D. Crawford, C. D. Sherrill,
    J. Chem. Phys. 152(18) 184108 (2020). https://doi.org/10.1063/5.0006002

                            Additional Code Authors
    E. T. Seidl, C. L. Janssen, E. F. Valeev, M. L. Leininger,
    J. F. Gonthier, R. M. Richard, H. R. McAlexander, M. Saitow, X. Wang,
    P. Verma, and M. H. Lechner

             Previous Authors, Complete List of Code Contributors,
                       and Citations for Specific Modules
    https://github.com/psi4/psi4/blob/master/codemeta.json
    https://github.com/psi4/psi4/graphs/contributors
    http://psicode.org/psi4manual/master/introduction.html#citing-psifour

    -----------------------------------------------------------------------


    Psi4 started on: Tuesday, 02 November 2021 11:10AM

    Process ID: 13747
    Host:       compute130.bc4.acrc.priv
    PSIDATADIR: /mnt/storage/home/zw18965/.conda/envs/p4env/share/psi4
    Memory:     500.0 MiB
    Threads:    28
    
  ==> Input File <==

--------------------------------------------------------------------------
memory 144 GB

molecule {
0 2
Cu       0.000000    0.000000    0.000000 
Cu       0.000000    0.000000    2.291099 
Cu       0.000000    0.000000   -2.291099 
 }

set reference uks
set basis Def2-TZVPPD

energy("SCAN-D3BJ")
--------------------------------------------------------------------------

  Memory set to 134.110 GiB by Python driver.

Scratch directory: /tmp/

*** tstart() called on compute130.bc4.acrc.priv
*** at Tue Nov  2 11:10:31 2021

   => Loading Basis Set <=

    Name: DEF2-TZVPPD
    Role: ORBITAL
    Keyword: BASIS
    atoms 1-3 entry CU         line  1290 file /mnt/storage/home/zw18965/.conda/envs/p4env/share/psi4/basis/def2-tzvppd.gbs 

   => SCAN-D3(BJ): Empirical Dispersion <=

    Grimme's -D3 (BJ-damping) Dispersion Correction
    Grimme S.; Ehrlich S.; Goerigk L. (2011), J. Comput. Chem., 32: 1456
    Parametrisation from:    J.G. Brandenburg, J. E. Bates, J. Sun, J.P. Perdew, Phys. Rev. B 94, 115144, 2016

        s6 =       1.000000
        s8 =       0.000000
        a1 =       0.538000
        a2 =       5.420000


         ---------------------------------------------------------
                                   SCF
               by Justin Turney, Rob Parrish, Andy Simmonett
                          and Daniel G. A. Smith
                              UKS Reference
                       28 Threads, 137329 MiB Core
         ---------------------------------------------------------

  ==> Geometry <==

    Molecular point group: d2h
    Full point group: D_inf_h

    Geometry (in Angstrom), charge = 0, multiplicity = 2:

       Center              X                  Y                   Z               Mass       
    ------------   -----------------  -----------------  -----------------  -----------------
         CU           0.000000000000     0.000000000000     0.000000000000    62.929597720000
         CU           0.000000000000     0.000000000000     2.291099000000    62.929597720000
         CU           0.000000000000     0.000000000000    -2.291099000000    62.929597720000

  Running in d2h symmetry.

  Rotational constants: A = ************  B =      0.02552  C =      0.02552 [cm^-1]
  Rotational constants: A = ************  B =    764.97023  C =    764.97023 [MHz]
  Nuclear repulsion =  485.616328859501607

  Charge       = 0
  Multiplicity = 2
  Electrons    = 87
  Nalpha       = 44
  Nbeta        = 43

  ==> Algorithm <==

  SCF Algorithm Type is DF.
  DIIS enabled.
  MOM disabled.
  Fractional occupation disabled.
  Guess Type is SAD.
  Energy threshold   = 1.00e-06
  Density threshold  = 1.00e-06
  Integral threshold = 1.00e-12

  ==> Primary Basis <==

  Basis Set: DEF2-TZVPPD
    Blend: DEF2-TZVPPD
    Number of shells: 57
    Number of basis functions: 201
    Number of Cartesian functions: 249
    Spherical Harmonics?: true
    Max angular momentum: 4

  ==> DFT Potential <==

   => Composite Functional: SCAN-D3BJ <= 

    SCAN Meta-GGA XC Functional
(10.1103/PhysRevLett.115.036402)
    J. Sun, A. Ruzsinszky, J. P. Perdew  Phys. Rev. Lett. 115, 036402, 2015


    Deriv               =              1
    GGA                 =           TRUE
    Meta                =           TRUE

    Exchange Hybrid     =          FALSE
    MP2 Hybrid          =          FALSE

   => Exchange Functionals <=

    1.0000   XC_MGGA_X_SCAN

   => Correlation Functionals <=

    1.0000   XC_MGGA_C_SCAN

   => LibXC Density Thresholds  <==

    XC_MGGA_C_SCAN:  1.00E-15 
    XC_MGGA_X_SCAN:  1.00E-15 

   => Molecular Quadrature <=

    Radial Scheme          =       TREUTLER
    Pruning Scheme         =           NONE
    Nuclear Scheme         =       TREUTLER

    BS radius alpha        =              1
    Pruning alpha          =              1
    Radial Points          =             75
    Spherical Points       =            302
    Total Points           =          65054
    Total Blocks           =            626
    Max Points             =            256
    Max Functions          =            170
    Weights Tolerance      =       1.00E-15

   => Loading Basis Set <=

    Name: (DEF2-TZVPPD AUX)
    Role: JKFIT
    Keyword: DF_BASIS_SCF
    atoms 1-3 entry CU         line  2356 file /mnt/storage/home/zw18965/.conda/envs/p4env/share/psi4/basis/def2-universal-jkfit.gbs 

  ==> Integral Setup <==

  DFHelper Memory: AOs need 0.227 GiB; user supplied 100.036 GiB. Using in-core AOs.

  ==> MemDFJK: Density-Fitted J/K Matrices <==

    J tasked:                   Yes
    K tasked:                    No
    wK tasked:                   No
    OpenMP threads:              28
    Memory [MiB]:            102436
    Algorithm:                 Core
    Schwarz Cutoff:           1E-12
    Mask sparsity (%):      15.3957
    Fitting Condition:        1E-10

   => Auxiliary Basis Set <=

  Basis Set: (DEF2-TZVPPD AUX)
    Blend: DEF2-UNIVERSAL-JKFIT
    Number of shells: 174
    Number of basis functions: 792
    Number of Cartesian functions: 1131
    Spherical Harmonics?: true
    Max angular momentum: 6

  Cached 100.0% of DFT collocation blocks in 0.547 [GiB].

  Minimum eigenvalue in the overlap matrix is 4.0255056729E-04.
  Reciprocal condition number of the overlap matrix is 9.3170053166E-05.
    Using symmetric orthogonalization.

  ==> Pre-Iterations <==

  SCF Guess: Superposition of Atomic Densities via on-the-fly atomic UHF (no occupation information).

   -------------------------
    Irrep   Nso     Nmo    
   -------------------------
     Ag        44      44 
     B1g       14      14 
     B2g       22      22 
     B3g       22      22 
     Au        10      10 
     B1u       37      37 
     B2u       26      26 
     B3u       26      26 
   -------------------------
    Total     201     201
   -------------------------

  ==> Iterations <==

                           Total Energy        Delta E     RMS |[F,P]|

   @DF-UKS iter SAD: -4915.87529206620366   -4.91588e+03   0.00000e+00 
    Occupation by irrep:
             Ag   B1g   B2g   B3g    Au   B1u   B2u   B3u 
    DOCC [    11,    0,    4,    4,    0,   10,    7,    7 ]
    SOCC [     1,    0,    0,    0,    0,    0,    0,    0 ]

   @DF-UKS iter   1: -4912.78600685855235    3.08929e+00   9.82866e-02 DIIS
    Occupation by irrep:
             Ag   B1g   B2g   B3g    Au   B1u   B2u   B3u 
    DOCC [    13,    2,    4,    4,    1,    9,    5,    5 ]
    SOCC [     0,    0,    0,    0,    0,    1,    0,    0 ]

   @DF-UKS iter   2: -4781.93981937378703    1.30846e+02   2.11150e-01 DIIS
    Occupation by irrep:
             Ag   B1g   B2g   B3g    Au   B1u   B2u   B3u 
    DOCC [    12,    1,    3,    3,    1,   10,    6,    6 ]
    SOCC [     0,    0,    1,    1,    0,    1,    0,    0 ]

   @DF-UKS iter   3: -4919.52864726638109   -1.37589e+02   4.07224e-02 DIIS
    Occupation by irrep:
             Ag   B1g   B2g   B3g    Au   B1u   B2u   B3u 
    DOCC [    13,    1,    4,    4,    0,    9,    6,    6 ]
    SOCC [     0,    0,    0,    0,    0,    1,    0,    0 ]

   @DF-UKS iter   4: -4879.44350739671791    4.00851e+01   8.81462e-02 DIIS
    Occupation by irrep:
             Ag   B1g   B2g   B3g    Au   B1u   B2u   B3u 
    DOCC [    13,    2,    4,    3,    1,   10,    5,    5 ]
    SOCC [     0,    0,    0,    1,    0,    0,    0,    0 ]

   @DF-UKS iter   5: -4878.06062402636417    1.38288e+00   1.38815e-01 DIIS
   @DF-UKS iter   6: -4917.28725331090573   -3.92266e+01   6.27433e-02 DIIS
   @DF-UKS iter   7: -4920.90319275737966   -3.61594e+00   3.23596e-02 DIIS
   @DF-UKS iter   8: -4921.30398513520959   -4.00792e-01   2.47400e-02 DIIS
   @DF-UKS iter   9: -4921.73778252755437   -4.33797e-01   1.31989e-02 DIIS
    Occupation by irrep:
             Ag   B1g   B2g   B3g    Au   B1u   B2u   B3u 
    DOCC [    13,    2,    4,    4,    1,    9,    5,    5 ]
    SOCC [     0,    0,    0,    0,    0,    1,    0,    0 ]

   @DF-UKS iter  10: -4922.05204995926579   -3.14267e-01   7.20709e-03 DIIS
   @DF-UKS iter  11: -4922.09359421385216   -4.15443e-02   4.69739e-03 DIIS
   @DF-UKS iter  12: -4922.11349862635689   -1.99044e-02   2.85165e-03 DIIS
   @DF-UKS iter  13: -4922.12327718425786   -9.77856e-03   7.83275e-04 DIIS
   @DF-UKS iter  14: -4922.12438254566405   -1.10536e-03   2.61084e-04 DIIS
   @DF-UKS iter  15: -4922.12448824450166   -1.05699e-04   3.91136e-05 DIIS
   @DF-UKS iter  16: -4922.12449267719512   -4.43269e-06   9.87047e-06 DIIS
   @DF-UKS iter  17: -4922.12449296566592   -2.88471e-07   7.79912e-06 DIIS
   @DF-UKS iter  18: -4922.12449306131293   -9.56470e-08   2.21264e-06 DIIS
   @DF-UKS iter  19: -4922.12449307344014   -1.21272e-08   1.78894e-07 DIIS
  Energy and wave function converged.


  ==> Post-Iterations <==

   Electrons on quadrature grid:
      Nalpha   =   43.9999965422 ; deviation = -3.458e-06
      Nbeta    =   42.9999960656 ; deviation = -3.934e-06
      Ntotal   =   86.9999926078 ; deviation = -7.392e-06 

   @Spin Contamination Metric:   2.734894241E-02
   @S^2 Expected:                7.500000000E-01
   @S^2 Observed:                7.773489424E-01
   @S   Expected:                5.000000000E-01
   @S   Observed:                5.000000000E-01

    Orbital Energies [Eh]
    ---------------------

    Alpha Occupied:                                                       

       1B1u -322.385657     1Ag  -322.385652     2Ag  -322.370705  
       2B1u  -38.637709     3Ag   -38.637691     4Ag   -38.627472  
       5Ag   -33.821946     3B1u  -33.821944     1B2g  -33.818545  
       1B3g  -33.818545     1B3u  -33.818542     1B2u  -33.818542  
       4B1u  -33.810064     2B3u  -33.808063     2B2u  -33.808063  
       5B1u   -4.260662     6Ag    -4.260648     7Ag    -4.248015  
       6B1u   -2.734974     8Ag    -2.734504     3B3u   -2.725904  
       3B2u   -2.725904     2B2g   -2.725899     2B3g   -2.725899  
       7B1u   -2.719223     4B3u   -2.713587     4B2u   -2.713586  
       9Ag    -0.271152     3B2g   -0.228697     3B3g   -0.228697  
       8B1u   -0.219281     5B3u   -0.214846     5B2u   -0.214846  
      10Ag    -0.214082     1B1g   -0.208669    11Ag    -0.208649  
       1Au    -0.207102     9B1u   -0.207080    10B1u   -0.195725  
       2B1g   -0.188392    12Ag    -0.188353     4B2g   -0.181815  
       4B3g   -0.181814    13Ag    -0.179713  

    Alpha Virtual:                                                        

      14Ag    -0.091712     6B2u   -0.054685     6B3u   -0.054685  
      11B1u   -0.022496     5B3g   -0.010599     5B2g   -0.010599  
      12B1u    0.064977    15Ag     0.066232     7B2u    0.074727  
       7B3u    0.074727    16Ag     0.089092     8B2u    0.118145  
       8B3u    0.118145    13B1u    0.140406     6B3g    0.144595  
       6B2g    0.144595     3B1g    0.161943    17Ag     0.161944  
       9B2u    0.192327     9B3u    0.192328    18Ag     0.197551  
      14B1u    0.206490     2Au     0.206492    19Ag     0.213592  
       7B3g    0.239104     7B2g    0.239104    15B1u    0.254357  
       4B1g    0.297801    20Ag     0.297809    16B1u    0.300110  
      10B2u    0.351221    10B3u    0.351221    21Ag     0.362846  
       8B2g    0.469376     8B3g    0.469376    22Ag     0.485888  
      17B1u    0.553242    18B1u    0.613974    11B2u    0.652986  
      11B3u    0.652987     9B3g    0.683045     9B2g    0.683045  
      12B2u    0.746159    12B3u    0.746159    23Ag     0.769759  
      24Ag     0.852886     5B1g    0.853036    19B1u    0.900926  
       3Au     0.901065    20B1u    0.904737    10B3g    0.905688  
      10B2g    0.905688    25Ag     0.944309    13B2u    0.958292  
      13B3u    0.958292    26Ag     0.969150     6B1g    0.969162  
      11B3g    1.166929    11B2g    1.166929    21B1u    1.197213  
      27Ag     1.487776    28Ag     2.929492    14B3u    2.956492  
      14B2u    2.956492    22B1u    3.048324    12B2g    3.065329  
      12B3g    3.065329    15B3u    3.082646    15B2u    3.082646  
      23B1u    3.123954    29Ag     3.209051    24B1u    3.345632  
      30Ag     3.367780    16B2u    3.405987    16B3u    3.405987  
      13B3g    3.411139    13B2g    3.411139    25B1u    3.423801  
       4Au     3.423819    31Ag     3.424812     7B1g    3.424829  
      17B3u    3.426971    17B2u    3.426971    14B3g    3.426973  
      14B2g    3.426973    26B1u    3.446549     5Au     3.446553  
      18B2u    3.450482    18B3u    3.450482    19B2u    3.467606  
      19B3u    3.467606    27B1u    3.473669    32Ag     3.562825  
       8B1g    3.641687    33Ag     3.641739     6Au     3.669792  
      28B1u    3.669813    15B2g    3.711766    15B3g    3.711766  
       9B1g    3.716475    34Ag     3.716588    29B1u    3.774917  
      20B3u    3.779249    20B2u    3.779249    16B2g    3.876179  
      16B3g    3.876179    35Ag     4.012248    30B1u    4.112281  
      36Ag     4.467253    21B3u   13.133309    21B2u   13.133309  
      17B2g   13.134131    17B3g   13.134131    31B1u   13.134448  
       7Au    13.134534    10B1g   13.134597    37Ag    13.134747  
      32B1u   13.135777    38Ag    13.135842    22B3u   13.137638  
      22B2u   13.137638    18B2g   13.137649    18B3g   13.137649  
      33B1u   13.139944    39Ag    13.139944    11B1g   13.140139  
       8Au    13.140139    19B2g   13.150476    19B3g   13.150477  
      12B1g   13.151082    40Ag    13.153095    41Ag    13.153423  
      20B3g   13.155189    20B2g   13.155189    42Ag    13.157802  
      13B1g   13.158065    23B3u   13.211269    23B2u   13.211269  
       9Au    13.214843    34B1u   13.215090    14B1g   13.216000  
      43Ag    13.216244    35B1u   13.217408    24B2u   13.219994  
      24B3u   13.219994    21B2g   13.219994    21B3g   13.219994  
      22B2g   13.228591    22B3g   13.228591    10Au    13.229181  
      36B1u   13.229467    25B2u   13.231886    25B3u   13.231886  
      26B3u   13.245658    26B2u   13.245658    44Ag    13.310720  
      37B1u   13.350342  

    Beta Occupied:                                                        

       1B1u -322.384215     1Ag  -322.384210     2Ag  -322.370820  
       2B1u  -38.639466     3Ag   -38.639449     4Ag   -38.627891  
       5Ag   -33.822251     3B1u  -33.822249     1B3g  -33.819863  
       1B2g  -33.819863     1B2u  -33.819861     1B3u  -33.819861  
       4B1u  -33.810469     2B2u  -33.808288     2B3u  -33.808288  
       5B1u   -4.261989     6Ag    -4.261979     7Ag    -4.248717  
       6B1u   -2.731944     8Ag    -2.731345     3B2u   -2.729290  
       3B3u   -2.729290     2B3g   -2.729287     2B2g   -2.729287  
       7B1u   -2.720094     4B2u   -2.714124     4B3u   -2.714124  
       9Ag    -0.260572     3B3g   -0.226694     3B2g   -0.226693  
       8B1u   -0.214147     5B2u   -0.212273     5B3u   -0.212273  
       1B1g   -0.205251    10Ag    -0.205222     1Au    -0.203455  
       9B1u   -0.203427    11Ag    -0.196477     2B1g   -0.189317  
      12Ag    -0.189279     4B3g   -0.182653     4B2g   -0.182652  
      13Ag    -0.178848  

    Beta Virtual:                                                         

      10B1u   -0.155258    14Ag    -0.072636     6B3u   -0.041791  
       6B2u   -0.041791    11B1u   -0.009002     5B2g    0.009143  
       5B3g    0.009143    15Ag     0.061628    12B1u    0.064907  
       7B2u    0.066177     7B3u    0.066177    16Ag     0.087673  
       8B3u    0.123833     8B2u    0.123833    13B1u    0.131888  
       6B2g    0.140153     6B3g    0.140153     3B1g    0.160386  
      17Ag     0.160388    18Ag     0.188077     9B3u    0.192149  
       9B2u    0.192149     2Au     0.197551    14B1u    0.197553  
      19Ag     0.207843     7B2g    0.228773     7B3g    0.228773  
      15B1u    0.237789    20Ag     0.288616     4B1g    0.288617  
      16B1u    0.290383    10B3u    0.340226    10B2u    0.340226  
      21Ag     0.363780     8B2g    0.457763     8B3g    0.457764  
      22Ag     0.482097    17B1u    0.546901    18B1u    0.609892  
      11B3u    0.652911    11B2u    0.652911     9B2g    0.673982  
       9B3g    0.673982    12B3u    0.743741    12B2u    0.743741  
      23Ag     0.761813    24Ag     0.851419     5B1g    0.851419  
      19B1u    0.880015     3Au     0.892161    20B1u    0.892164  
      10B2g    0.894030    10B3g    0.894030    25Ag     0.943152  
      13B2u    0.950113    13B3u    0.950113    26Ag     0.967811  
       6B1g    0.967837    11B3g    1.164848    11B2g    1.164848  
      21B1u    1.192275    27Ag     1.484267    28Ag     2.930489  
      14B2u    2.948950    14B3u    2.948950    12B3g    3.048138  
      12B2g    3.048138    22B1u    3.048489    15B2u    3.081376  
      15B3u    3.081376    23B1u    3.120422    29Ag     3.200287  
      24B1u    3.336168    30Ag     3.370303    16B2u    3.406217  
      16B3u    3.406217    13B3g    3.412949    13B2g    3.412949  
       4Au     3.427332    25B1u    3.427336     7B1g    3.428614  
      31Ag     3.428620    17B2u    3.433607    17B3u    3.433607  
      14B3g    3.433609    14B2g    3.433609     5Au     3.445073  
      26B1u    3.445080    18B2u    3.449845    18B3u    3.449845  
      19B2u    3.467594    19B3u    3.467594    27B1u    3.473718  
      32Ag     3.561241     8B1g    3.636827    33Ag     3.636965  
       6Au     3.660564    28B1u    3.660687    15B3g    3.704915  
      15B2g    3.704915     9B1g    3.714680    34Ag     3.714810  
      29B1u    3.771705    20B2u    3.772167    20B3u    3.772168  
      16B3g    3.874163    16B2g    3.874164    35Ag     4.009905  
      30B1u    4.109120    36Ag     4.464207    21B2u   13.138323  
      21B3u   13.138323     7Au    13.138736    10B1g   13.138797  
      17B3g   13.139080    17B2g   13.139080    31B1u   13.139733  
      37Ag    13.139920    32B1u   13.139977    38Ag    13.140040  
      22B3u   13.141052    22B2u   13.141052    18B2g   13.141079  
      18B3g   13.141079    33B1u   13.143027    39Ag    13.143028  
      11B1g   13.143218     8Au    13.143218    12B1g   13.149278  
      19B3g   13.149419    19B2g   13.149419    40Ag    13.151288  
      41Ag    13.152740    20B3g   13.152785    20B2g   13.152785  
      42Ag    13.156435    13B1g   13.156698    23B2u   13.213965  
      23B3u   13.213966     9Au    13.215721    34B1u   13.215958  
      14B1g   13.216905    43Ag    13.217139    24B3u   13.218674  
      24B2u   13.218674    21B2g   13.218674    21B3g   13.218674  
      35B1u   13.220909    10Au    13.226984    36B1u   13.227270  
      25B3u   13.230809    25B2u   13.230809    22B3g   13.231733  
      22B2g   13.231733    26B2u   13.245317    26B3u   13.245318  
      44Ag    13.315038    37B1u   13.351332  

    Final Occupation by Irrep:
             Ag   B1g   B2g   B3g    Au   B1u   B2u   B3u 
    DOCC [    13,    2,    4,    4,    1,    9,    5,    5 ]
    SOCC [     0,    0,    0,    0,    0,    1,    0,    0 ]

  @DF-UKS Final Energy: -4922.12449307344014

   => Energetics <=

    Nuclear Repulsion Energy =            485.6163288595016070
    One-Electron Energy =               -7834.2149064021859886
    Two-Electron Energy =                2628.6760023633833043
    DFT Exchange-Correlation Energy =    -202.2015107741393365
    Empirical Dispersion Energy =          -0.0004071200000000
    VV10 Nonlocal Energy =                  0.0000000000000000
    Total Energy =                      -4922.1244930734401350

  UHF NO Occupations:
  HONO-2 :    4B3g 1.9995202
  HONO-1 :   13 Ag 1.9887460
  HONO-0 :   10B1u 1.0000000
  LUNO+0 :   14 Ag 0.0112540
  LUNO+1 :    5B3g 0.0004798
  LUNO+2 :    5B2g 0.0004798
  LUNO+3 :   15 Ag 0.0002333


Computation Completed


Properties will be evaluated at   0.000000,   0.000000,   0.000000 [a0]

Properties computed using the SCF density matrix

  Nuclear Dipole Moment: [e a0]
     X:     0.0000      Y:     0.0000      Z:     0.0000

  Electronic Dipole Moment: [e a0]
     X:     0.0000      Y:     0.0000      Z:     0.0000

  Dipole Moment: [e a0]
     X:     0.0000      Y:     0.0000      Z:     0.0000     Total:     0.0000

  Dipole Moment: [D]
     X:     0.0000      Y:     0.0000      Z:     0.0000     Total:     0.0000


*** tstop() called on compute130.bc4.acrc.priv at Tue Nov  2 11:10:57 2021
Module time:
	user time   =     632.93 seconds =      10.55 minutes
	system time =      22.37 seconds =       0.37 minutes
	total time  =         26 seconds =       0.43 minutes
Total time:
	user time   =     632.93 seconds =      10.55 minutes
	system time =      22.37 seconds =       0.37 minutes
	total time  =         26 seconds =       0.43 minutes

    Psi4 stopped on: Tuesday, 02 November 2021 11:10AM
    Psi4 wall time for execution: 0:00:26.06

*** Psi4 exiting successfully. Buy a developer a beer!
