
    -----------------------------------------------------------------------
          Psi4: An Open-Source Ab Initio Electronic Structure Package
                               Psi4 1.4.1 release

                         Git: Rev {HEAD} cd00f19 


    D. G. A. Smith, L. A. Burns, A. C. Simmonett, R. M. Parrish,
    M. C. Schieber, R. Galvelis, P. Kraus, H. Kruse, R. Di Remigio,
    A. Alenaizan, A. M. James, S. Lehtola, J. P. Misiewicz, M. Scheurer,
    R. A. Shaw, J. B. Schriber, Y. Xie, Z. L. Glick, D. A. Sirianni,
    J. S. O'Brien, J. M. Waldrop, A. Kumar, E. G. Hohenstein,
    B. P. Pritchard, B. R. Brooks, H. F. Schaefer III, A. Yu. Sokolov,
    K. Patkowski, A. E. DePrince III, U. Bozkaya, R. A. King,
    F. A. Evangelista, J. M. Turney, T. D. Crawford, C. D. Sherrill,
    J. Chem. Phys. 152(18) 184108 (2020). https://doi.org/10.1063/5.0006002

                            Additional Code Authors
    E. T. Seidl, C. L. Janssen, E. F. Valeev, M. L. Leininger,
    J. F. Gonthier, R. M. Richard, H. R. McAlexander, M. Saitow, X. Wang,
    P. Verma, and M. H. Lechner

             Previous Authors, Complete List of Code Contributors,
                       and Citations for Specific Modules
    https://github.com/psi4/psi4/blob/master/codemeta.json
    https://github.com/psi4/psi4/graphs/contributors
    http://psicode.org/psi4manual/master/introduction.html#citing-psifour

    -----------------------------------------------------------------------


    Psi4 started on: Friday, 05 November 2021 11:06AM

    Process ID: 19101
    Host:       bc4login3.bc4.acrc.priv
    PSIDATADIR: /mnt/storage/home/zw18965/.conda/envs/p4env/share/psi4
    Memory:     500.0 MiB
    Threads:    12
    
  ==> Input File <==

--------------------------------------------------------------------------
memory 120 GB

molecule {
2 1
Cu       0.253817    1.375381    0.000000 
Cu       0.253817   -0.687598    1.191098 
Cu       0.253817   -0.687598   -1.191098 
Cu      -1.745352    0.000159    0.000000 
N        2.725949   -0.000959   -0.000000 
H        3.150217   -0.936878   -0.000000 
H        3.150637    0.466806   -0.810419 
H        3.150637    0.466806    0.810419 
 }

set basis Def2-TZVPPD

energy("SCF", write_orbitals="mos")
energy("SCAN-D3BJ", restart_file="mos")
--------------------------------------------------------------------------

  Memory set to 111.759 GiB by Python driver.

Scratch directory: /tmp/

*** tstart() called on bc4login3.bc4.acrc.priv
*** at Fri Nov  5 11:06:28 2021

   => Loading Basis Set <=

    Name: DEF2-TZVPPD
    Role: ORBITAL
    Keyword: BASIS
    atoms 1-4 entry CU         line  1290 file /mnt/storage/home/zw18965/.conda/envs/p4env/share/psi4/basis/def2-tzvppd.gbs 
    atoms 5   entry N          line   181 file /mnt/storage/home/zw18965/.conda/envs/p4env/share/psi4/basis/def2-tzvppd.gbs 
    atoms 6-8 entry H          line    14 file /mnt/storage/home/zw18965/.conda/envs/p4env/share/psi4/basis/def2-tzvppd.gbs 


         ---------------------------------------------------------
                                   SCF
               by Justin Turney, Rob Parrish, Andy Simmonett
                          and Daniel G. A. Smith
                              RHF Reference
                       12 Threads, 114440 MiB Core
         ---------------------------------------------------------

  ==> Geometry <==

    Molecular point group: cs
    Full point group: Cs

    Geometry (in Angstrom), charge = 2, multiplicity = 1:

       Center              X                  Y                   Z               Mass       
    ------------   -----------------  -----------------  -----------------  -----------------
         CU           0.306727314614     1.375362665601     0.000000000000    62.929597720000
         CU           0.306727314614    -0.687616334399     1.191098000000    62.929597720000
         CU           0.306727314614    -0.687616334399    -1.191098000000    62.929597720000
         CU          -1.692441685386     0.000140665601     0.000000000000    62.929597720000
         N            2.778859314614    -0.000977334399     0.000000000000    14.003074004430
         H            3.203127314614    -0.936896334399     0.000000000000     1.007825032230
         H            3.203547314614     0.466787665601    -0.810419000000     1.007825032230
         H            3.203547314614     0.466787665601     0.810419000000     1.007825032230

  Running in cs symmetry.

  Rotational constants: A =      0.04686  B =      0.03260  C =      0.03260 [cm^-1]
  Rotational constants: A =   1404.79352  B =    977.43796  C =    977.41725 [MHz]
  Nuclear repulsion = 1311.373965716146131

  Charge       = 2
  Multiplicity = 1
  Electrons    = 124
  Nalpha       = 62
  Nbeta        = 62

  ==> Algorithm <==

  SCF Algorithm Type is DF.
  DIIS enabled.
  MOM disabled.
  Fractional occupation disabled.
  Guess Type is SAD.
  Energy threshold   = 1.00e-06
  Density threshold  = 1.00e-06
  Integral threshold = 1.00e-12

  ==> Primary Basis <==

  Basis Set: DEF2-TZVPPD
    Blend: DEF2-TZVPPD
    Number of shells: 110
    Number of basis functions: 356
    Number of Cartesian functions: 429
    Spherical Harmonics?: true
    Max angular momentum: 4

   => Loading Basis Set <=

    Name: (DEF2-TZVPPD AUX)
    Role: JKFIT
    Keyword: DF_BASIS_SCF
    atoms 1-4 entry CU         line  2356 file /mnt/storage/home/zw18965/.conda/envs/p4env/share/psi4/basis/def2-universal-jkfit.gbs 
    atoms 5   entry N          line   258 file /mnt/storage/home/zw18965/.conda/envs/p4env/share/psi4/basis/def2-universal-jkfit.gbs 
    atoms 6-8 entry H          line    18 file /mnt/storage/home/zw18965/.conda/envs/p4env/share/psi4/basis/def2-universal-jkfit.gbs 

  ==> Integral Setup <==

  DFHelper Memory: AOs need 1.051 GiB; user supplied 83.819 GiB. Using in-core AOs.

  ==> MemDFJK: Density-Fitted J/K Matrices <==

    J tasked:                   Yes
    K tasked:                   Yes
    wK tasked:                   No
    OpenMP threads:              12
    Memory [MiB]:             85830
    Algorithm:                 Core
    Schwarz Cutoff:           1E-12
    Mask sparsity (%):      11.4837
    Fitting Condition:        1E-10

   => Auxiliary Basis Set <=

  Basis Set: (DEF2-TZVPPD AUX)
    Blend: DEF2-UNIVERSAL-JKFIT
    Number of shells: 275
    Number of basis functions: 1187
    Number of Cartesian functions: 1661
    Spherical Harmonics?: true
    Max angular momentum: 6

  Minimum eigenvalue in the overlap matrix is 1.5828041556E-04.
  Reciprocal condition number of the overlap matrix is 1.6731804680E-05.
    Using symmetric orthogonalization.

  ==> Pre-Iterations <==

  SCF Guess: Superposition of Atomic Densities via on-the-fly atomic UHF (no occupation information).

   -------------------------
    Irrep   Nso     Nmo    
   -------------------------
     A'       207     207 
     A"       149     149 
   -------------------------
    Total     356     356
   -------------------------

  ==> Iterations <==

                           Total Energy        Delta E     RMS |[F,P]|

   @DF-RHF iter SAD: -6600.61001977403248   -6.60061e+03   0.00000e+00 
    Occupation by irrep:
             Ap   App 
    DOCC [    40,   22 ]

   @DF-RHF iter   1: -6601.97489569010486   -1.36488e+00   2.90921e-02 DIIS
    Occupation by irrep:
             Ap   App 
    DOCC [    39,   23 ]

   @DF-RHF iter   2: -6385.54346639776759    2.16431e+02   6.88727e-02 DIIS
   @DF-RHF iter   3: -6596.13608661462604   -2.10593e+02   1.84420e-02 DIIS
   @DF-RHF iter   4: -6544.26515609107537    5.18709e+01   3.23895e-02 DIIS
   @DF-RHF iter   5: -6608.06174927927896   -6.37966e+01   1.56856e-02 DIIS
   @DF-RHF iter   6: -6611.00143498710713   -2.93969e+00   4.95045e-03 DIIS
   @DF-RHF iter   7: -6611.42988909075848   -4.28454e-01   8.73024e-04 DIIS
   @DF-RHF iter   8: -6611.44389563903951   -1.40065e-02   4.76515e-04 DIIS
   @DF-RHF iter   9: -6611.44770473089193   -3.80909e-03   1.27920e-04 DIIS
   @DF-RHF iter  10: -6611.44823364108379   -5.28910e-04   9.17550e-05 DIIS
   @DF-RHF iter  11: -6611.44839182631767   -1.58185e-04   3.61739e-05 DIIS
   @DF-RHF iter  12: -6611.44842722716749   -3.54008e-05   1.05509e-05 DIIS
   @DF-RHF iter  13: -6611.44843296843555   -5.74127e-06   2.71583e-06 DIIS
   @DF-RHF iter  14: -6611.44843377929101   -8.10855e-07   1.04268e-06 DIIS
   @DF-RHF iter  15: -6611.44843386958382   -9.02928e-08   4.57138e-07 DIIS
  Energy and wave function converged.


  ==> Post-Iterations <==

    Orbital Energies [Eh]
    ---------------------

    Doubly Occupied:                                                      

       1Ap  -329.170990     1App -329.170985     2Ap  -329.170981  
       3Ap  -329.160127     4Ap   -41.196723     2App  -41.196717  
       5Ap   -41.196711     6Ap   -41.187055     3App  -35.996553  
       4App  -35.996541     7Ap   -35.996537     8Ap   -35.995824  
       5App  -35.995818     9Ap   -35.995811    10Ap   -35.995286  
       6App  -35.995281    11Ap   -35.995271    12Ap   -35.986175  
       7App  -35.986175    13Ap   -35.985431    14Ap   -15.883272  
      15Ap    -5.387860    16Ap    -5.387309     8App   -5.387305  
      17Ap    -5.376473    18Ap    -3.704625     9App   -3.702140  
      19Ap    -3.702139    20Ap    -3.700215    21Ap    -3.700056  
      10App   -3.700054    11App   -3.699522    22Ap    -3.699029  
      12App   -3.699026    23Ap    -3.689548    24Ap    -3.688218  
      13App   -3.688218    25Ap    -1.473039    14App   -0.953081  
      26Ap    -0.953077    27Ap    -0.913434    28Ap    -0.899015  
      15App   -0.890206    29Ap    -0.890200    16App   -0.883410  
      30Ap    -0.883409    31Ap    -0.877943    32Ap    -0.869633  
      17App   -0.869632    33Ap    -0.855518    18App   -0.855517  
      19App   -0.854990    34Ap    -0.849627    20App   -0.849627  
      35Ap    -0.845963    21App   -0.845963    36Ap    -0.843452  
      22App   -0.827723    23App   -0.823662    37Ap    -0.823662  
      38Ap    -0.797281    39Ap    -0.658793  

    Virtual:                                                              

      24App   -0.302824    40Ap    -0.302823    41Ap    -0.274907  
      42Ap    -0.227294    25App   -0.196501    43Ap    -0.196500  
      44Ap    -0.186062    26App   -0.186062    45Ap    -0.175663  
      46Ap    -0.138721    27App   -0.138720    47Ap    -0.135763  
      28App   -0.110334    48Ap    -0.109386    29App   -0.109380  
      49Ap    -0.101323    50Ap    -0.091036    51Ap    -0.083991  
      30App   -0.083986    31App   -0.063339    52Ap    -0.063337  
      32App   -0.056358    53Ap    -0.056351    54Ap    -0.052795  
      55Ap    -0.042270    56Ap    -0.007829    33App   -0.006837  
      57Ap    -0.006826    58Ap     0.008100    34App    0.008124  
      59Ap     0.020801    35App    0.020802    36App    0.023618  
      60Ap     0.028253    61Ap     0.030489    37App    0.030494  
      62Ap     0.066511    38App    0.069536    63Ap     0.069538  
      39App    0.072009    64Ap     0.099696    40App    0.099700  
      65Ap     0.106060    66Ap     0.115409    67Ap     0.127665  
      41App    0.127666    68Ap     0.132621    42App    0.136925  
      69Ap     0.136932    43App    0.159218    70Ap     0.159222  
      44App    0.177780    71Ap     0.181510    45App    0.182198  
      72Ap     0.182208    73Ap     0.217475    46App    0.217486  
      74Ap     0.245089    75Ap     0.254169    47App    0.254182  
      48App    0.264173    76Ap     0.291308    49App    0.291333  
      77Ap     0.297531    50App    0.302026    78Ap     0.302048  
      79Ap     0.355358    80Ap     0.355475    51App    0.355544  
      81Ap     0.426239    52App    0.565408    82Ap     0.565423  
      83Ap     0.581738    84Ap     0.591006    85Ap     0.598175  
      53App    0.598227    54App    0.610434    86Ap     0.610442  
      87Ap     0.639446    55App    0.663747    88Ap     0.663772  
      89Ap     0.692215    90Ap     0.709627    56App    0.709627  
      91Ap     0.714811    57App    0.720719    92Ap     0.720742  
      93Ap     0.750504    58App    0.779097    94Ap     0.803863  
      59App    0.803867    60App    0.824871    95Ap     0.824927  
      96Ap     0.845193    61App    0.886960    97Ap     0.899149  
      62App    0.899194    63App    0.925751    98Ap     0.925758  
      99Ap     0.945150    64App    0.968242   100Ap     0.968258  
      65App    0.977972    66App    1.060659   101Ap     1.060680  
     102Ap     1.103763   103Ap     1.127496    67App    1.127536  
      68App    1.148911   104Ap     1.148917    69App    1.159066  
      70App    1.184342   105Ap     1.184346   106Ap     1.211826  
     107Ap     1.231727    71App    1.231804   108Ap     1.409039  
     109Ap     1.555491    72App    1.555514   110Ap     1.634296  
      73App    1.773898   111Ap     1.773928   112Ap     2.450117  
     113Ap     2.612684   114Ap     2.636073    74App    2.636085  
     115Ap     2.828283   116Ap     2.993812    75App    2.993832  
     117Ap     3.040743   118Ap     3.147384    76App    3.147386  
     119Ap     3.178885   120Ap     3.207434    77App    3.207448  
      78App    3.224063   121Ap     3.229538    79App    3.229546  
     122Ap     3.253089    80App    3.305603   123Ap     3.305635  
      81App    3.315174   124Ap     3.315178    82App    3.317409  
     125Ap     3.340299   126Ap     3.362914    83App    3.362954  
     127Ap     3.419510    84App    3.446330   128Ap     3.446331  
     129Ap     3.455431   130Ap     3.465957    85App    3.465959  
      86App    3.467071    87App    3.474623    88App    3.477658  
     131Ap     3.477660   132Ap     3.480377    89App    3.480381  
      90App    3.483460    91App    3.483923   133Ap     3.483936  
     134Ap     3.486933   135Ap     3.488696    92App    3.488700  
     136Ap     3.491675    93App    3.502148   137Ap     3.506994  
      94App    3.506995    95App    3.530785   138Ap     3.530828  
     139Ap     3.554519   140Ap     3.591278    96App    3.591322  
     141Ap     3.605988   142Ap     3.616040    97App    3.634085  
      98App    3.639543   143Ap     3.639554   144Ap     3.794407  
     145Ap     3.818681    99App    3.818710   146Ap     3.869713  
     100App    3.881014   147Ap     3.881014   148Ap     3.894097  
     101App    3.894159   102App    3.943274   103App    3.947110  
     149Ap     3.947122   150Ap     3.990585   104App    4.004558  
     151Ap     4.004597   105App    4.033975   152Ap     4.033980  
     106App    4.111192   153Ap     4.111223   154Ap     4.114212  
     107App    4.125361   155Ap     4.140588   108App    4.140614  
     156Ap     4.146615   157Ap     4.158692   109App    4.158760  
     158Ap     4.277497   159Ap     4.279428   110App    4.279584  
     111App    4.358548   112App    4.533669   160Ap     4.533680  
     161Ap     4.559847   162Ap     4.609226   113App    4.609270  
     163Ap     4.619903   164Ap     4.797977   165Ap     5.027895  
     114App    5.027921   115App    5.251773   166Ap     5.251779  
     167Ap     5.312263   168Ap     5.581099   116App    5.861321  
     169Ap     5.955299   117App    5.955330   170Ap     6.104688  
     118App    6.104729   171Ap     6.546266   119App    6.809067  
     172Ap     6.809076   120App   13.404049   173Ap    13.404106  
     174Ap    13.404558   121App   13.404560   122App   13.404749  
     175Ap    13.404750   176Ap    13.404928   123App   13.404931  
     124App   13.404960   125App   13.405237   177Ap    13.405239  
     178Ap    13.405270   126App   13.405609   179Ap    13.405781  
     127App   13.405784   180Ap    13.405866   128App   13.405974  
     181Ap    13.405976   129App   13.406205   182Ap    13.406208  
     130App   13.406338   183Ap    13.406751   131App   13.406754  
     184Ap    13.407202   185Ap    13.407591   132App   13.407592  
     186Ap    13.408887   187Ap    13.417384   133App   13.417487  
     188Ap    13.417487   134App   13.417586   189Ap    13.417895  
     135App   13.417895   190Ap    13.418021   136App   13.418872  
     191Ap    13.418872   137App   13.657370   192Ap    13.658708  
     138App   13.659721   193Ap    13.659722   139App   13.660937  
     194Ap    13.660942   140App   13.662674   195Ap    13.664538  
     141App   13.664546   196Ap    13.667101   197Ap    13.667871  
     142App   13.667873   143App   13.669397   198Ap    13.669405  
     144App   13.671174   199Ap    13.671901   145App   13.673100  
     200Ap    13.673100   201Ap    13.678231   202Ap    13.679340  
     146App   13.679343   203Ap    13.689357   147App   13.732737  
     204Ap    13.732754   205Ap    13.737494   148App   13.737575  
     149App   13.748367   206Ap    13.748377   207Ap    33.792780  

    Final Occupation by Irrep:
             Ap   App 
    DOCC [    39,   23 ]

  @DF-RHF Final Energy: -6611.44843386958382

   => Energetics <=

    Nuclear Repulsion Energy =           1311.3739657161461309
    One-Electron Energy =              -11811.1380649490165524
    Two-Electron Energy =                3888.3156653632872803
    Total Energy =                      -6611.4484338695838233

Computation Completed


Properties will be evaluated at   0.000000,   0.000000,   0.000000 [a0]

Properties computed using the SCF density matrix

  Nuclear Dipole Moment: [e a0]
     X:    12.5982      Y:    -0.0044      Z:    -0.0000

  Electronic Dipole Moment: [e a0]
     X:   -11.2198      Y:     0.0040      Z:     0.0000

  Dipole Moment: [e a0]
     X:     1.3785      Y:    -0.0004      Z:    -0.0000     Total:     1.3785

  Dipole Moment: [D]
     X:     3.5037      Y:    -0.0010      Z:    -0.0000     Total:     3.5037


*** tstop() called on bc4login3.bc4.acrc.priv at Fri Nov  5 11:06:35 2021
Module time:
	user time   =      94.94 seconds =       1.58 minutes
	system time =       6.79 seconds =       0.11 minutes
	total time  =          7 seconds =       0.12 minutes
Total time:
	user time   =      94.94 seconds =       1.58 minutes
	system time =       6.79 seconds =       0.11 minutes
	total time  =          7 seconds =       0.12 minutes

Scratch directory: /tmp/
 Found user provided orbital data. Setting orbital guess to READ 
 Copying restart file <mos.npy> to </tmp/Cu04C2_NH3_F.default.19101.180.npy> for internal processing

*** tstart() called on bc4login3.bc4.acrc.priv
*** at Fri Nov  5 11:06:35 2021

   => Loading Basis Set <=

    Name: DEF2-TZVPPD
    Role: ORBITAL
    Keyword: BASIS
    atoms 1-4 entry CU         line  1290 file /mnt/storage/home/zw18965/.conda/envs/p4env/share/psi4/basis/def2-tzvppd.gbs 
    atoms 5   entry N          line   181 file /mnt/storage/home/zw18965/.conda/envs/p4env/share/psi4/basis/def2-tzvppd.gbs 
    atoms 6-8 entry H          line    14 file /mnt/storage/home/zw18965/.conda/envs/p4env/share/psi4/basis/def2-tzvppd.gbs 

   => SCAN-D3(BJ): Empirical Dispersion <=

    Grimme's -D3 (BJ-damping) Dispersion Correction
    Grimme S.; Ehrlich S.; Goerigk L. (2011), J. Comput. Chem., 32: 1456
    Parametrisation from:    J.G. Brandenburg, J. E. Bates, J. Sun, J.P. Perdew, Phys. Rev. B 94, 115144, 2016

        s6 =       1.000000
        s8 =       0.000000
        a1 =       0.538000
        a2 =       5.420000


         ---------------------------------------------------------
                                   SCF
               by Justin Turney, Rob Parrish, Andy Simmonett
                          and Daniel G. A. Smith
                              RKS Reference
                       12 Threads, 114440 MiB Core
         ---------------------------------------------------------

  ==> Geometry <==

    Molecular point group: cs
    Full point group: Cs

    Geometry (in Angstrom), charge = 2, multiplicity = 1:

       Center              X                  Y                   Z               Mass       
    ------------   -----------------  -----------------  -----------------  -----------------
         CU           0.306727314614     1.375362665601     0.000000000000    62.929597720000
         CU           0.306727314614    -0.687616334399     1.191098000000    62.929597720000
         CU           0.306727314614    -0.687616334399    -1.191098000000    62.929597720000
         CU          -1.692441685386     0.000140665601     0.000000000000    62.929597720000
         N            2.778859314614    -0.000977334399     0.000000000000    14.003074004430
         H            3.203127314614    -0.936896334399     0.000000000000     1.007825032230
         H            3.203547314614     0.466787665601    -0.810419000000     1.007825032230
         H            3.203547314614     0.466787665601     0.810419000000     1.007825032230

  Running in cs symmetry.

  Rotational constants: A =      0.04686  B =      0.03260  C =      0.03260 [cm^-1]
  Rotational constants: A =   1404.79352  B =    977.43796  C =    977.41725 [MHz]
  Nuclear repulsion = 1311.373965716146131

  Charge       = 2
  Multiplicity = 1
  Electrons    = 124
  Nalpha       = 62
  Nbeta        = 62

  ==> Algorithm <==

  SCF Algorithm Type is DF.
  DIIS enabled.
  MOM disabled.
  Fractional occupation disabled.
  Guess Type is READ.
  Energy threshold   = 1.00e-06
  Density threshold  = 1.00e-06
  Integral threshold = 1.00e-12

  ==> Primary Basis <==

  Basis Set: DEF2-TZVPPD
    Blend: DEF2-TZVPPD
    Number of shells: 110
    Number of basis functions: 356
    Number of Cartesian functions: 429
    Spherical Harmonics?: true
    Max angular momentum: 4

  ==> DFT Potential <==

   => Composite Functional: SCAN-D3BJ <= 

    SCAN Meta-GGA XC Functional
(10.1103/PhysRevLett.115.036402)
    J. Sun, A. Ruzsinszky, J. P. Perdew  Phys. Rev. Lett. 115, 036402, 2015


    Deriv               =              1
    GGA                 =           TRUE
    Meta                =           TRUE

    Exchange Hybrid     =          FALSE
    MP2 Hybrid          =          FALSE

   => Exchange Functionals <=

    1.0000   XC_MGGA_X_SCAN

   => Correlation Functionals <=

    1.0000   XC_MGGA_C_SCAN

   => LibXC Density Thresholds  <==

    XC_MGGA_C_SCAN:  1.00E-15 
    XC_MGGA_X_SCAN:  1.00E-15 

   => Molecular Quadrature <=

    Radial Scheme          =       TREUTLER
    Pruning Scheme         =           NONE
    Nuclear Scheme         =       TREUTLER

    BS radius alpha        =              1
    Pruning alpha          =              1
    Radial Points          =             75
    Spherical Points       =            302
    Total Points           =         172119
    Total Blocks           =           1390
    Max Points             =            256
    Max Functions          =            309
    Weights Tolerance      =       1.00E-15

   => Loading Basis Set <=

    Name: (DEF2-TZVPPD AUX)
    Role: JKFIT
    Keyword: DF_BASIS_SCF
    atoms 1-4 entry CU         line  2356 file /mnt/storage/home/zw18965/.conda/envs/p4env/share/psi4/basis/def2-universal-jkfit.gbs 
    atoms 5   entry N          line   258 file /mnt/storage/home/zw18965/.conda/envs/p4env/share/psi4/basis/def2-universal-jkfit.gbs 
    atoms 6-8 entry H          line    18 file /mnt/storage/home/zw18965/.conda/envs/p4env/share/psi4/basis/def2-universal-jkfit.gbs 

   => Loading Basis Set <=

    Name: DEF2-TZVPPD
    Role: ORBITAL
    Keyword: BASIS
    atoms 1-4 entry CU         line  1290 file /mnt/storage/home/zw18965/.conda/envs/p4env/share/psi4/basis/def2-tzvppd.gbs 
    atoms 5   entry N          line   181 file /mnt/storage/home/zw18965/.conda/envs/p4env/share/psi4/basis/def2-tzvppd.gbs 
    atoms 6-8 entry H          line    14 file /mnt/storage/home/zw18965/.conda/envs/p4env/share/psi4/basis/def2-tzvppd.gbs 

  Reading orbitals from file /tmp/Cu04C2_NH3_F.default.19101.180.npy, no projection.

  ==> Integral Setup <==

  DFHelper Memory: AOs need 1.051 GiB; user supplied 81.382 GiB. Using in-core AOs.

  ==> MemDFJK: Density-Fitted J/K Matrices <==

    J tasked:                   Yes
    K tasked:                    No
    wK tasked:                   No
    OpenMP threads:              12
    Memory [MiB]:             83335
    Algorithm:                 Core
    Schwarz Cutoff:           1E-12
    Mask sparsity (%):      11.4837
    Fitting Condition:        1E-10

   => Auxiliary Basis Set <=

  Basis Set: (DEF2-TZVPPD AUX)
    Blend: DEF2-UNIVERSAL-JKFIT
    Number of shells: 275
    Number of basis functions: 1187
    Number of Cartesian functions: 1661
    Spherical Harmonics?: true
    Max angular momentum: 6

  Cached 100.0% of DFT collocation blocks in 2.437 [GiB].

  Minimum eigenvalue in the overlap matrix is 1.5828041556E-04.
  Reciprocal condition number of the overlap matrix is 1.6731804680E-05.
    Using symmetric orthogonalization.

  ==> Pre-Iterations <==

  SCF Guess: Orbitals guess was supplied from a previous computation.

   -------------------------------------------------------
    Irrep   Nso     Nmo     Nalpha   Nbeta   Ndocc  Nsocc
   -------------------------------------------------------
     A'       207     207      39      39      39       0
     A"       149     149      23      23      23       0
   -------------------------------------------------------
    Total     356     356      62      62      62       0
   -------------------------------------------------------

  ==> Iterations <==

                           Total Energy        Delta E     RMS |[F,P]|

   @DF-RKS iter   0: -6618.71500100662979   -6.61872e+03   2.37326e-03 
   @DF-RKS iter   1: -6618.50347011140821    2.11531e-01   5.35614e-03 DIIS
   @DF-RKS iter   2: -6616.45261837003545    2.05085e+00   1.51761e-02 DIIS
   @DF-RKS iter   3: -6618.80941093164529   -2.35679e+00   1.79352e-03 DIIS
   @DF-RKS iter   4: -6618.83071661829035   -2.13057e-02   1.05840e-03 DIIS
   @DF-RKS iter   5: -6618.84934056268594   -1.86239e-02   4.58025e-04 DIIS
   @DF-RKS iter   6: -6618.85216406226118   -2.82350e-03   1.63071e-04 DIIS
   @DF-RKS iter   7: -6618.85257201511467   -4.07953e-04   3.85120e-05 DIIS
   @DF-RKS iter   8: -6618.85260177620239   -2.97611e-05   4.41470e-06 DIIS
   @DF-RKS iter   9: -6618.85260206249768   -2.86295e-07   3.00101e-06 DIIS
   @DF-RKS iter  10: -6618.85260215436665   -9.18690e-08   1.44249e-06 DIIS
   @DF-RKS iter  11: -6618.85260218269104   -2.83244e-08   1.11271e-07 DIIS
  Energy and wave function converged.


  ==> Post-Iterations <==

   Electrons on quadrature grid:
      Ntotal   =  123.9999941793 ; deviation = -5.821e-06 

    Orbital Energies [Eh]
    ---------------------

    Doubly Occupied:                                                      

       1Ap  -322.767104     1App -322.767094     2Ap  -322.767088  
       3Ap  -322.763287     4Ap   -39.020167     2App  -39.020155  
       5Ap   -39.020138     6Ap   -39.017255     7Ap   -34.202248  
       3App  -34.202234     8Ap   -34.202233     4App  -34.202103  
       5App  -34.202087     9Ap   -34.202083    10Ap   -34.200626  
       6App  -34.200612    11Ap   -34.200611    12Ap   -34.199782  
       7App  -34.198144    13Ap   -34.198142    14Ap   -14.489863  
      15Ap    -4.643862    16Ap    -4.643459     8App   -4.643449  
      17Ap    -4.639665    18Ap    -3.116036    19Ap    -3.113539  
       9App   -3.113533    20Ap    -3.111647    10App   -3.111637  
      11App   -3.110859    21Ap    -3.110704    22Ap    -3.108923  
      12App   -3.108911    23Ap    -3.108779    13App   -3.105878  
      24Ap    -3.105876    25Ap    -1.167505    14App   -0.768669  
      26Ap    -0.768647    27Ap    -0.691442    28Ap    -0.648590  
      29Ap    -0.622625    15App   -0.622600    30Ap    -0.617497  
      16App   -0.607275    31Ap    -0.607274    32Ap    -0.602221  
      17App   -0.596670    33Ap    -0.596667    34Ap    -0.581890  
      35Ap    -0.579836    18App   -0.579781    19App   -0.577457  
      20App   -0.577216    36Ap    -0.577195    37Ap    -0.574815  
      21App   -0.574810    38Ap    -0.566188    22App   -0.562770  
      39Ap    -0.561159    23App   -0.561129  

    Virtual:                                                              

      40Ap    -0.462005    24App   -0.461991    41Ap    -0.438882  
      42Ap    -0.350430    43Ap    -0.330862    25App   -0.330861  
      44Ap    -0.314534    26App   -0.314526    45Ap    -0.305174  
      46Ap    -0.233592    47Ap    -0.197506    27App   -0.197499  
      48Ap    -0.182245    28App   -0.182229    29App   -0.174533  
      49Ap    -0.165974    30App   -0.165968    50Ap    -0.164467  
      51Ap    -0.140390    52Ap    -0.131215    31App   -0.128067  
      53Ap    -0.128056    54Ap    -0.122491    32App   -0.122481  
      55Ap    -0.112552    33App   -0.097342    56Ap    -0.097337  
      57Ap    -0.091276    58Ap    -0.069545    34App   -0.069529  
      59Ap    -0.053946    35App   -0.053933    36App   -0.053786  
      60Ap    -0.047791    37App   -0.047763    61Ap    -0.045089  
      62Ap    -0.029423    38App   -0.011376    63Ap    -0.011376  
      39App   -0.001536    40App    0.014528    64Ap     0.014530  
      65Ap     0.015915    66Ap     0.023222    67Ap     0.037151  
      41App    0.037173    68Ap     0.048246    42App    0.054509  
      69Ap     0.054525    70Ap     0.069933    43App    0.069934  
      71Ap     0.079688    44App    0.079715    72Ap     0.099977  
      45App    0.128109    73Ap     0.128396    46App    0.128413  
      74Ap     0.138639    75Ap     0.146863    47App    0.146865  
      48App    0.160305    76Ap     0.168619    77Ap     0.171394  
      49App    0.171424    78Ap     0.198870    50App    0.198918  
      79Ap     0.219800    51App    0.219850    80Ap     0.239448  
      81Ap     0.250556    52App    0.386070    82Ap     0.386085  
      83Ap     0.403842    84Ap     0.417524    53App    0.417565  
      85Ap     0.438498    86Ap     0.440645    54App    0.440669  
      87Ap     0.452583    55App    0.472514    88Ap     0.472584  
      89Ap     0.480291    56App    0.492576    90Ap     0.492591  
      91Ap     0.532643    57App    0.533790    92Ap     0.533797  
      93Ap     0.543087    94Ap     0.570464    58App    0.570477  
      59App    0.581244    95Ap     0.622576    60App    0.623398  
      96Ap     0.623447    61App    0.654296    97Ap     0.677388  
      62App    0.677403    98Ap     0.684062    63App    0.684131  
      64App    0.731337    99Ap     0.731386   100Ap     0.743811  
      65App    0.807388   101Ap     0.848616    66App    0.848645  
     102Ap     0.852728    67App    0.902232   103Ap     0.916118  
      68App    0.916119    69App    0.920216   104Ap     0.920263  
     105Ap     0.949245   106Ap     1.007749    70App    1.007819  
     107Ap     1.019864    71App    1.019985   108Ap     1.265304  
      72App    1.368575   109Ap     1.368585   110Ap     1.442790  
     111Ap     1.564504    73App    1.564724   112Ap     2.156823  
     113Ap     2.327836   114Ap     2.385475    74App    2.385543  
     115Ap     2.537352   116Ap     2.648924    75App    2.648963  
     117Ap     2.690220   118Ap     2.706851    76App    2.706858  
     119Ap     2.730826   120Ap     2.734137    77App    2.734138  
     121Ap     2.762491    78App    2.762503   122Ap     2.775020  
      79App    2.842219    80App    2.866676   123Ap     2.866694  
     124Ap     2.906764   125Ap     2.963880    81App    3.002501  
      82App    3.010588   126Ap     3.010598   127Ap     3.018856  
      83App    3.031589   128Ap     3.031625   129Ap     3.039473  
      84App    3.048626   130Ap     3.048660    85App    3.049025  
     131Ap     3.051171    86App    3.051187    87App    3.053556  
     132Ap     3.055388    88App    3.055437    89App    3.056619  
      90App    3.057878   133Ap     3.057887   134Ap     3.058959  
      91App    3.064364   135Ap     3.064421    92App    3.067807  
     136Ap     3.067831   137Ap     3.092578   138Ap     3.094933  
      93App    3.094952   139Ap     3.118269    94App    3.124508  
     140Ap     3.124570    95App    3.124693   141Ap     3.169246  
      96App    3.169294   142Ap     3.169966   143Ap     3.239661  
      97App    3.259468   144Ap     3.259501    98App    3.271348  
     145Ap     3.279347    99App    3.279366   146Ap     3.332111  
     100App    3.332153   101App    3.377103   147Ap     3.396980  
     102App    3.397095   148Ap     3.426628   149Ap     3.445093  
     103App    3.445158   150Ap     3.544737   151Ap     3.554641  
     104App    3.554676   105App    3.588377   152Ap     3.588386  
     153Ap     3.599951   106App    3.620498   154Ap     3.626360  
     107App    3.626433   155Ap     3.722314   156Ap     3.742588  
     108App    3.742658   109App    3.850705   157Ap     3.850814  
     158Ap     3.974774   159Ap     4.008166   110App    4.008329  
     160Ap     4.050217   161Ap     4.128267   111App    4.128551  
     112App    4.240410   113App    4.346566   162Ap     4.346666  
     163Ap     4.412561   164Ap     4.566361   114App    4.715635  
     165Ap     4.715643   166Ap     5.061846   115App    5.062198  
     167Ap     5.113377   168Ap     5.349366   116App    5.658708  
     169Ap     5.764799   117App    5.764923   170Ap     5.858549  
     118App    5.858589   171Ap     6.304331   119App    6.557185  
     172Ap     6.557194   173Ap    12.753480   120App   12.753719  
     174Ap    12.753813   121App   12.754058   175Ap    12.754385  
     122App   12.754513   176Ap    12.755109   123App   12.755247  
     177Ap    12.755652   124App   12.755993   178Ap    12.756395  
     125App   12.756405   126App   12.756796   179Ap    12.756894  
     127App   12.757401   180Ap    12.757427   128App   12.757687  
     181Ap    12.758072   129App   12.758143   182Ap    12.758158  
     183Ap    12.758409   184Ap    12.759194   185Ap    12.759442  
     130App   12.759457   186Ap    12.759543   131App   12.759727  
     132App   12.759733   187Ap    12.759808   133App   12.760017  
     188Ap    12.760128   134App   12.760825   189Ap    12.760867  
     135App   12.761738   190Ap    12.762609   191Ap    12.764357  
     136App   12.764476   192Ap    12.834826   193Ap    12.835305  
     137App   12.835351   138App   12.835749   194Ap    12.837917  
     139App   12.837975   140App   12.839197   195Ap    12.839420  
     141App   12.839464   196Ap    12.842096   197Ap    12.844602  
     142App   12.844639   143App   12.845555   198Ap    12.846245  
     199Ap    12.846255   144App   12.846282   200Ap    12.847554  
     145App   12.849972   201Ap    12.850004   146App   12.853923  
     202Ap    12.853938   203Ap    12.869726   204Ap    12.906003  
     147App   12.906063   148App   12.915318   205Ap    12.915456  
     206Ap    12.925856   149App   12.925874   207Ap    32.455396  

    Final Occupation by Irrep:
             Ap   App 
    DOCC [    39,   23 ]

  @DF-RKS Final Energy: -6618.85260218269104

   => Energetics <=

    Nuclear Repulsion Energy =           1311.3739657161461309
    One-Electron Energy =              -11801.2257631288321136
    Two-Electron Energy =                4148.2611786290271993
    DFT Exchange-Correlation Energy =    -277.2600681290325610
    Empirical Dispersion Energy =          -0.0019152700000000
    VV10 Nonlocal Energy =                  0.0000000000000000
    Total Energy =                      -6618.8526021826910437

Computation Completed


Properties will be evaluated at   0.000000,   0.000000,   0.000000 [a0]

Properties computed using the SCF density matrix

  Nuclear Dipole Moment: [e a0]
     X:    12.5982      Y:    -0.0044      Z:    -0.0000

  Electronic Dipole Moment: [e a0]
     X:   -10.9501      Y:     0.0040      Z:     0.0000

  Dipole Moment: [e a0]
     X:     1.6482      Y:    -0.0003      Z:    -0.0000     Total:     1.6482

  Dipole Moment: [D]
     X:     4.1893      Y:    -0.0009      Z:    -0.0000     Total:     4.1893


*** tstop() called on bc4login3.bc4.acrc.priv at Fri Nov  5 11:06:45 2021
Module time:
	user time   =     160.82 seconds =       2.68 minutes
	system time =      10.91 seconds =       0.18 minutes
	total time  =         10 seconds =       0.17 minutes
Total time:
	user time   =     255.99 seconds =       4.27 minutes
	system time =      17.72 seconds =       0.30 minutes
	total time  =         17 seconds =       0.28 minutes

    Psi4 stopped on: Friday, 05 November 2021 11:06AM
    Psi4 wall time for execution: 0:00:16.97

*** Psi4 exiting successfully. Buy a developer a beer!
