
    -----------------------------------------------------------------------
          Psi4: An Open-Source Ab Initio Electronic Structure Package
                               Psi4 1.4.1 release

                         Git: Rev {HEAD} cd00f19 


    D. G. A. Smith, L. A. Burns, A. C. Simmonett, R. M. Parrish,
    M. C. Schieber, R. Galvelis, P. Kraus, H. Kruse, R. Di Remigio,
    A. Alenaizan, A. M. James, S. Lehtola, J. P. Misiewicz, M. Scheurer,
    R. A. Shaw, J. B. Schriber, Y. Xie, Z. L. Glick, D. A. Sirianni,
    J. S. O'Brien, J. M. Waldrop, A. Kumar, E. G. Hohenstein,
    B. P. Pritchard, B. R. Brooks, H. F. Schaefer III, A. Yu. Sokolov,
    K. Patkowski, A. E. DePrince III, U. Bozkaya, R. A. King,
    F. A. Evangelista, J. M. Turney, T. D. Crawford, C. D. Sherrill,
    J. Chem. Phys. 152(18) 184108 (2020). https://doi.org/10.1063/5.0006002

                            Additional Code Authors
    E. T. Seidl, C. L. Janssen, E. F. Valeev, M. L. Leininger,
    J. F. Gonthier, R. M. Richard, H. R. McAlexander, M. Saitow, X. Wang,
    P. Verma, and M. H. Lechner

             Previous Authors, Complete List of Code Contributors,
                       and Citations for Specific Modules
    https://github.com/psi4/psi4/blob/master/codemeta.json
    https://github.com/psi4/psi4/graphs/contributors
    http://psicode.org/psi4manual/master/introduction.html#citing-psifour

    -----------------------------------------------------------------------


    Psi4 started on: Tuesday, 02 November 2021 11:11AM

    Process ID: 16947
    Host:       compute415.bc4.acrc.priv
    PSIDATADIR: /mnt/storage/home/zw18965/.conda/envs/p4env/share/psi4
    Memory:     500.0 MiB
    Threads:    28
    
  ==> Input File <==

--------------------------------------------------------------------------
memory 144 GB

molecule {
2 1
Cu       0.543145   -0.896300    1.192832 
Cu       0.543145   -0.896300   -1.192832 
Cu      -1.492086   -0.543328    0.000000 
Cu       0.211399    1.215580   -0.000000 
N        0.543145    3.129666   -0.000000 
H        0.146420    3.607894   -0.818022 
H        0.146420    3.607894    0.818022 
H        1.542647    3.366638   -0.000000 
 }

set basis Def2-TZVPPD

energy("SCAN-D3BJ")
--------------------------------------------------------------------------

  Memory set to 134.110 GiB by Python driver.

Scratch directory: /tmp/

*** tstart() called on compute415.bc4.acrc.priv
*** at Tue Nov  2 11:11:49 2021

   => Loading Basis Set <=

    Name: DEF2-TZVPPD
    Role: ORBITAL
    Keyword: BASIS
    atoms 1-4 entry CU         line  1290 file /mnt/storage/home/zw18965/.conda/envs/p4env/share/psi4/basis/def2-tzvppd.gbs 
    atoms 5   entry N          line   181 file /mnt/storage/home/zw18965/.conda/envs/p4env/share/psi4/basis/def2-tzvppd.gbs 
    atoms 6-8 entry H          line    14 file /mnt/storage/home/zw18965/.conda/envs/p4env/share/psi4/basis/def2-tzvppd.gbs 

   => SCAN-D3(BJ): Empirical Dispersion <=

    Grimme's -D3 (BJ-damping) Dispersion Correction
    Grimme S.; Ehrlich S.; Goerigk L. (2011), J. Comput. Chem., 32: 1456
    Parametrisation from:    J.G. Brandenburg, J. E. Bates, J. Sun, J.P. Perdew, Phys. Rev. B 94, 115144, 2016

        s6 =       1.000000
        s8 =       0.000000
        a1 =       0.538000
        a2 =       5.420000


         ---------------------------------------------------------
                                   SCF
               by Justin Turney, Rob Parrish, Andy Simmonett
                          and Daniel G. A. Smith
                              RKS Reference
                       28 Threads, 137329 MiB Core
         ---------------------------------------------------------

  ==> Geometry <==

    Molecular point group: cs
    Full point group: Cs

    Geometry (in Angstrom), charge = 2, multiplicity = 1:

       Center              X                  Y                   Z               Mass       
    ------------   -----------------  -----------------  -----------------  -----------------
         CU           0.553481103940    -0.836716104147     1.192832000000    62.929597720000
         CU           0.553481103940    -0.836716104147    -1.192832000000    62.929597720000
         CU          -1.481749896060    -0.483744104147     0.000000000000    62.929597720000
         CU           0.221735103940     1.275163895853     0.000000000000    62.929597720000
         N            0.553481103940     3.189249895853     0.000000000000    14.003074004430
         H            0.156756103940     3.667477895853    -0.818022000000     1.007825032230
         H            0.156756103940     3.667477895853     0.818022000000     1.007825032230
         H            1.552983103940     3.426221895853     0.000000000000     1.007825032230

  Running in cs symmetry.

  Rotational constants: A =      0.04673  B =      0.02941  C =      0.02941 [cm^-1]
  Rotational constants: A =   1400.79690  B =    881.79657  C =    881.68120 [MHz]
  Nuclear repulsion = 1296.669331497113262

  Charge       = 2
  Multiplicity = 1
  Electrons    = 124
  Nalpha       = 62
  Nbeta        = 62

  ==> Algorithm <==

  SCF Algorithm Type is DF.
  DIIS enabled.
  MOM disabled.
  Fractional occupation disabled.
  Guess Type is SAD.
  Energy threshold   = 1.00e-06
  Density threshold  = 1.00e-06
  Integral threshold = 1.00e-12

  ==> Primary Basis <==

  Basis Set: DEF2-TZVPPD
    Blend: DEF2-TZVPPD
    Number of shells: 110
    Number of basis functions: 356
    Number of Cartesian functions: 429
    Spherical Harmonics?: true
    Max angular momentum: 4

  ==> DFT Potential <==

   => Composite Functional: SCAN-D3BJ <= 

    SCAN Meta-GGA XC Functional
(10.1103/PhysRevLett.115.036402)
    J. Sun, A. Ruzsinszky, J. P. Perdew  Phys. Rev. Lett. 115, 036402, 2015


    Deriv               =              1
    GGA                 =           TRUE
    Meta                =           TRUE

    Exchange Hybrid     =          FALSE
    MP2 Hybrid          =          FALSE

   => Exchange Functionals <=

    1.0000   XC_MGGA_X_SCAN

   => Correlation Functionals <=

    1.0000   XC_MGGA_C_SCAN

   => LibXC Density Thresholds  <==

    XC_MGGA_C_SCAN:  1.00E-15 
    XC_MGGA_X_SCAN:  1.00E-15 

   => Molecular Quadrature <=

    Radial Scheme          =       TREUTLER
    Pruning Scheme         =           NONE
    Nuclear Scheme         =       TREUTLER

    BS radius alpha        =              1
    Pruning alpha          =              1
    Radial Points          =             75
    Spherical Points       =            302
    Total Points           =         172341
    Total Blocks           =           1421
    Max Points             =            256
    Max Functions          =            318
    Weights Tolerance      =       1.00E-15

   => Loading Basis Set <=

    Name: (DEF2-TZVPPD AUX)
    Role: JKFIT
    Keyword: DF_BASIS_SCF
    atoms 1-4 entry CU         line  2356 file /mnt/storage/home/zw18965/.conda/envs/p4env/share/psi4/basis/def2-universal-jkfit.gbs 
    atoms 5   entry N          line   258 file /mnt/storage/home/zw18965/.conda/envs/p4env/share/psi4/basis/def2-universal-jkfit.gbs 
    atoms 6-8 entry H          line    18 file /mnt/storage/home/zw18965/.conda/envs/p4env/share/psi4/basis/def2-universal-jkfit.gbs 

  ==> Integral Setup <==

  DFHelper Memory: AOs need 1.031 GiB; user supplied 98.143 GiB. Using in-core AOs.

  ==> MemDFJK: Density-Fitted J/K Matrices <==

    J tasked:                   Yes
    K tasked:                    No
    wK tasked:                   No
    OpenMP threads:              28
    Memory [MiB]:            100498
    Algorithm:                 Core
    Schwarz Cutoff:           1E-12
    Mask sparsity (%):      14.5989
    Fitting Condition:        1E-10

   => Auxiliary Basis Set <=

  Basis Set: (DEF2-TZVPPD AUX)
    Blend: DEF2-UNIVERSAL-JKFIT
    Number of shells: 275
    Number of basis functions: 1187
    Number of Cartesian functions: 1661
    Spherical Harmonics?: true
    Max angular momentum: 6

  Cached 100.0% of DFT collocation blocks in 2.440 [GiB].

  Minimum eigenvalue in the overlap matrix is 1.0684914237E-04.
  Reciprocal condition number of the overlap matrix is 1.1847037759E-05.
    Using symmetric orthogonalization.

  ==> Pre-Iterations <==

  SCF Guess: Superposition of Atomic Densities via on-the-fly atomic UHF (no occupation information).

   -------------------------
    Irrep   Nso     Nmo    
   -------------------------
     A'       207     207 
     A"       149     149 
   -------------------------
    Total     356     356
   -------------------------

  ==> Iterations <==

                           Total Energy        Delta E     RMS |[F,P]|

   @DF-RKS iter SAD: -6612.15317411263186   -6.61215e+03   0.00000e+00 
    Occupation by irrep:
             Ap   App 
    DOCC [    40,   22 ]

   @DF-RKS iter   1: -6607.01701335343296    5.13616e+00   3.37015e-02 DIIS
    Occupation by irrep:
             Ap   App 
    DOCC [    38,   24 ]

   @DF-RKS iter   2: -6412.24370644335886    1.94773e+02   7.84434e-02 DIIS
    Occupation by irrep:
             Ap   App 
    DOCC [    40,   22 ]

   @DF-RKS iter   3: -6592.39235125684263   -1.80149e+02   1.84630e-02 DIIS
    Occupation by irrep:
             Ap   App 
    DOCC [    41,   21 ]

   @DF-RKS iter   4: -6304.50909622946983    2.87883e+02   7.49060e-02 DIIS
    Occupation by irrep:
             Ap   App 
    DOCC [    39,   23 ]

   @DF-RKS iter   5: -6503.06436626926825   -1.98555e+02   5.14581e-02 DIIS
    Occupation by irrep:
             Ap   App 
    DOCC [    41,   21 ]

   @DF-RKS iter   6: -6544.99798481262678   -4.19336e+01   4.15607e-02 DIIS
    Occupation by irrep:
             Ap   App 
    DOCC [    39,   23 ]

   @DF-RKS iter   7: -6594.44742647651765   -4.94494e+01   2.61101e-02 DIIS
   @DF-RKS iter   8: -6609.52960327003075   -1.50822e+01   2.28953e-02 DIIS
    Occupation by irrep:
             Ap   App 
    DOCC [    40,   22 ]

   @DF-RKS iter   9: -6614.34659530219233   -4.81699e+00   1.88106e-02 DIIS
    Occupation by irrep:
             Ap   App 
    DOCC [    39,   23 ]

   @DF-RKS iter  10: -6597.27529852552289    1.70713e+01   3.00938e-02 DIIS
   @DF-RKS iter  11: -6618.44501958742785   -2.11697e+01   5.52233e-03 DIIS
   @DF-RKS iter  12: -6617.00177833358703    1.44324e+00   1.12926e-02 DIIS
   @DF-RKS iter  13: -6618.80133153051884   -1.79955e+00   2.71940e-03 DIIS
   @DF-RKS iter  14: -6618.88650928510560   -8.51778e-02   1.23796e-03 DIIS
   @DF-RKS iter  15: -6618.89356909800426   -7.05981e-03   8.55224e-04 DIIS
   @DF-RKS iter  16: -6618.90504520865852   -1.14761e-02   3.74768e-04 DIIS
   @DF-RKS iter  17: -6618.90773385081138   -2.68864e-03   9.47112e-05 DIIS
   @DF-RKS iter  18: -6618.90787758176339   -1.43731e-04   6.22033e-05 DIIS
   @DF-RKS iter  19: -6618.90794909798842   -7.15162e-05   1.00603e-05 DIIS
   @DF-RKS iter  20: -6618.90795071545472   -1.61747e-06   6.36077e-06 DIIS
   @DF-RKS iter  21: -6618.90795137971509   -6.64260e-07   1.48808e-06 DIIS
   @DF-RKS iter  22: -6618.90795142023580   -4.05207e-08   7.66102e-07 DIIS
  Energy and wave function converged.


  ==> Post-Iterations <==

   Electrons on quadrature grid:
      Ntotal   =  123.9999638984 ; deviation = -3.610e-05 

    Orbital Energies [Eh]
    ---------------------

    Doubly Occupied:                                                      

       1Ap  -322.765777     1App -322.765764     2Ap  -322.765757  
       3Ap  -322.760482     4Ap   -39.020585     5Ap   -39.019224  
       2App  -39.019211     6Ap   -39.019190     7Ap   -34.202447  
       8Ap   -34.201492     3App  -34.201477     9Ap   -34.201475  
       4App  -34.200678    10Ap   -34.200672     5App  -34.200590  
       6App  -34.200571    11Ap   -34.200567    12Ap   -34.200017  
       7App  -34.200006    13Ap   -34.200003    14Ap   -14.504156  
      15Ap    -4.642518    16Ap    -4.642122     8App   -4.642112  
      17Ap    -4.639562    18Ap    -3.114891    19Ap    -3.112222  
       9App   -3.112213    20Ap    -3.110516    21Ap    -3.109509  
      10App   -3.109507    11App   -3.108537    22Ap    -3.108204  
      23Ap    -3.108044    12App   -3.108035    13App   -3.104554  
      24Ap    -3.104546    25Ap    -1.182490    26Ap    -0.782344  
      14App   -0.782284    27Ap    -0.707726    28Ap    -0.662239  
      29Ap    -0.619977    30Ap    -0.619169    15App   -0.619152  
      16App   -0.604672    31Ap    -0.604638    32Ap    -0.602733  
      33Ap    -0.597355    17App   -0.594239    34Ap    -0.594220  
      35Ap    -0.577891    18App   -0.577842    19App   -0.575169  
      20App   -0.574855    36Ap    -0.574825    21App   -0.572629  
      37Ap    -0.572622    22App   -0.560976    38Ap    -0.559770  
      23App   -0.559738    39Ap    -0.557737  

    Virtual:                                                              

      24App   -0.458209    40Ap    -0.458197    41Ap    -0.428514  
      42Ap    -0.338189    43Ap    -0.322752    25App   -0.322736  
      26App   -0.310869    44Ap    -0.310811    45Ap    -0.273215  
      46Ap    -0.200426    27App   -0.193071    47Ap    -0.193048  
      28App   -0.170184    48Ap    -0.170169    29App   -0.169086  
      49Ap    -0.164377    30App   -0.164371    50Ap    -0.157250  
      51Ap    -0.140255    52Ap    -0.137232    31App   -0.137230  
      53Ap    -0.119150    54Ap    -0.113928    32App   -0.113926  
      55Ap    -0.105568    33App   -0.105562    56Ap    -0.105317  
      57Ap    -0.089692    34App   -0.067582    58Ap    -0.067544  
      59Ap    -0.064826    35App   -0.050880    60Ap    -0.050867  
      36App   -0.049633    61Ap    -0.037881    37App   -0.037869  
      62Ap    -0.017134    63Ap    -0.009019    38App   -0.009005  
      64Ap     0.007698    39App    0.007719    40App    0.011114  
      65Ap     0.022886    41App    0.047468    66Ap     0.047484  
      67Ap     0.053037    42App    0.060554    68Ap     0.060555  
      43App    0.074738    69Ap     0.074754    70Ap     0.084803  
      71Ap     0.084962    44App    0.084962    45App    0.102934  
      72Ap     0.105657    46App    0.133792    73Ap     0.133821  
      74Ap     0.148236    47App    0.151259    75Ap     0.151329  
      48App    0.158716    76Ap     0.184088    49App    0.184102  
      77Ap     0.187257    78Ap     0.232752    79Ap     0.233146  
      50App    0.233318    51App    0.279037    80Ap     0.279076  
      81Ap     0.326494    52App    0.387418    82Ap     0.387473  
      83Ap     0.407837    53App    0.410031    84Ap     0.410117  
      85Ap     0.424978    54App    0.448328    86Ap     0.448332  
      55App    0.475688    87Ap     0.475738    88Ap     0.482880  
      56App    0.487613    89Ap     0.487637    90Ap     0.524993  
      57App    0.527350    91Ap     0.527367    92Ap     0.561806  
      58App    0.568298    93Ap     0.593426    59App    0.593501  
      94Ap     0.600938    95Ap     0.633451    96Ap     0.641297  
      60App    0.641303    61App    0.654177    62App    0.663502  
      97Ap     0.663625    98Ap     0.687520    63App    0.687575  
      64App    0.719274    99Ap     0.719379   100Ap     0.749811  
      65App    0.797532    66App    0.886315   101Ap     0.886357  
      67App    0.890198   102Ap     0.890255    68App    0.905798  
     103Ap     0.913816    69App    0.913861   104Ap     0.915528  
      70App    1.064974   105Ap     1.065018    71App    1.133673  
     106Ap     1.133682   107Ap     1.231064   108Ap     1.267014  
     109Ap     1.407097   110Ap     1.457226    72App    1.457543  
     111Ap     1.507815    73App    1.507825   112Ap     2.163779  
     113Ap     2.379676    74App    2.411953   114Ap     2.412005  
     115Ap     2.546505   116Ap     2.657191    75App    2.657246  
     117Ap     2.674474   118Ap     2.702691    76App    2.702772  
     119Ap     2.733215   120Ap     2.750292    77App    2.750296  
     121Ap     2.769651    78App    2.769823    79App    2.841704  
     122Ap     2.842160   123Ap     2.871073    80App    2.881726  
     124Ap     2.881783   125Ap     2.963150    81App    2.984409  
     126Ap     2.990511    82App    2.990573   127Ap     3.012851  
      83App    3.029008   128Ap     3.029048   129Ap     3.033521  
      84App    3.048518   130Ap     3.048599    85App    3.050636  
     131Ap     3.050714    86App    3.052465    87App    3.055607  
     132Ap     3.055615    88App    3.055788   133Ap     3.056931  
      89App    3.056953    90App    3.065919   134Ap     3.065978  
      91App    3.070498   135Ap     3.070500    92App    3.082312  
     136Ap     3.082319   137Ap     3.095983    93App    3.096009  
     138Ap     3.096641   139Ap     3.111665    94App    3.119827  
     140Ap     3.134394    95App    3.134399   141Ap     3.200149  
      96App    3.200316    97App    3.247164   142Ap     3.253886  
      98App    3.253940   143Ap     3.267371    99App    3.301770  
     144Ap     3.301888   145Ap     3.318344   100App    3.351531  
     146Ap     3.351667   101App    3.376083   147Ap     3.390859  
     102App    3.390945   103App    3.397672   148Ap     3.397695  
     149Ap     3.486358   150Ap     3.568492   104App    3.568566  
     151Ap     3.602772   152Ap     3.604826   105App    3.605126  
     106App    3.622937   153Ap     3.704858   107App    3.716526  
     154Ap     3.716780   155Ap     3.767386   108App    3.767473  
     156Ap     3.880851   109App    3.880877   157Ap     3.912692  
     158Ap     3.982649   159Ap     4.055071   110App    4.055358  
     160Ap     4.190786   111App    4.191333   112App    4.208586  
     161Ap     4.285445   113App    4.350580   162Ap     4.350770  
     163Ap     4.436981   164Ap     4.686728   114App    4.686837  
     165Ap     4.782858   166Ap     5.066831   115App    5.067231  
     167Ap     5.166367   168Ap     5.433420   116App    5.699529  
     117App    5.735264   169Ap     5.735283   118App    5.854070  
     170Ap     5.854242   171Ap     6.355481   172Ap     6.557468  
     119App    6.558018   173Ap    12.755416   120App   12.755646  
     174Ap    12.755701   121App   12.756110   175Ap    12.756355  
     122App   12.756415   176Ap    12.756544   123App   12.756691  
     177Ap    12.757080   124App   12.757730   125App   12.757885  
     178Ap    12.758030   179Ap    12.758172   126App   12.758415  
     180Ap    12.759146   127App   12.759190   181Ap    12.759372  
     128App   12.759584   182Ap    12.759684   129App   12.759762  
     183Ap    12.759896   184Ap    12.761597   130App   12.761617  
     185Ap    12.761642   131App   12.761817   132App   12.761979  
     186Ap    12.762012   187Ap    12.764748   133App   12.764842  
     134App   12.764878   188Ap    12.765634   189Ap    12.767809  
     135App   12.768270   190Ap    12.768589   136App   12.768671  
     191Ap    12.769704   192Ap    12.836441   193Ap    12.836625  
     137App   12.836633   138App   12.837784   194Ap    12.838134  
     139App   12.838167   140App   12.839897   195Ap    12.841178  
     141App   12.843312   196Ap    12.843343   197Ap    12.844286  
     142App   12.845529   198Ap    12.845718   143App   12.845757  
     199Ap    12.849070   200Ap    12.850178   144App   12.850191  
     145App   12.855336   201Ap    12.855370   202Ap    12.862466  
     146App   12.862472   203Ap    12.906288   204Ap    12.909551  
     147App   12.909657   148App   12.915471   205Ap    12.933834  
     149App   12.933871   206Ap    13.050064   207Ap    32.509462  

    Final Occupation by Irrep:
             Ap   App 
    DOCC [    39,   23 ]

  @DF-RKS Final Energy: -6618.90795142023580

   => Energetics <=

    Nuclear Repulsion Energy =           1296.6693314971132622
    One-Electron Energy =              -11771.8708592744478665
    Two-Electron Energy =                4133.5471959023379895
    DFT Exchange-Correlation Energy =    -277.2518613352388570
    Empirical Dispersion Energy =          -0.0017582100000000
    VV10 Nonlocal Energy =                  0.0000000000000000
    Total Energy =                      -6618.9079514202358041

Computation Completed


Properties will be evaluated at   0.000000,   0.000000,   0.000000 [a0]

Properties computed using the SCF density matrix

  Nuclear Dipole Moment: [e a0]
     X:     2.4611      Y:    14.1872      Z:     0.0000

  Electronic Dipole Moment: [e a0]
     X:    -2.1794      Y:   -12.5606      Z:     0.0000

  Dipole Moment: [e a0]
     X:     0.2817      Y:     1.6266      Z:     0.0000     Total:     1.6508

  Dipole Moment: [D]
     X:     0.7160      Y:     4.1344      Z:     0.0000     Total:     4.1960


*** tstop() called on compute415.bc4.acrc.priv at Tue Nov  2 11:12:01 2021
Module time:
	user time   =     247.71 seconds =       4.13 minutes
	system time =      14.69 seconds =       0.24 minutes
	total time  =         12 seconds =       0.20 minutes
Total time:
	user time   =     247.71 seconds =       4.13 minutes
	system time =      14.69 seconds =       0.24 minutes
	total time  =         12 seconds =       0.20 minutes

    Psi4 stopped on: Tuesday, 02 November 2021 11:12AM
    Psi4 wall time for execution: 0:00:12.52

*** Psi4 exiting successfully. Buy a developer a beer!
