
    -----------------------------------------------------------------------
          Psi4: An Open-Source Ab Initio Electronic Structure Package
                               Psi4 1.4.1 release

                         Git: Rev {HEAD} cd00f19 


    D. G. A. Smith, L. A. Burns, A. C. Simmonett, R. M. Parrish,
    M. C. Schieber, R. Galvelis, P. Kraus, H. Kruse, R. Di Remigio,
    A. Alenaizan, A. M. James, S. Lehtola, J. P. Misiewicz, M. Scheurer,
    R. A. Shaw, J. B. Schriber, Y. Xie, Z. L. Glick, D. A. Sirianni,
    J. S. O'Brien, J. M. Waldrop, A. Kumar, E. G. Hohenstein,
    B. P. Pritchard, B. R. Brooks, H. F. Schaefer III, A. Yu. Sokolov,
    K. Patkowski, A. E. DePrince III, U. Bozkaya, R. A. King,
    F. A. Evangelista, J. M. Turney, T. D. Crawford, C. D. Sherrill,
    J. Chem. Phys. 152(18) 184108 (2020). https://doi.org/10.1063/5.0006002

                            Additional Code Authors
    E. T. Seidl, C. L. Janssen, E. F. Valeev, M. L. Leininger,
    J. F. Gonthier, R. M. Richard, H. R. McAlexander, M. Saitow, X. Wang,
    P. Verma, and M. H. Lechner

             Previous Authors, Complete List of Code Contributors,
                       and Citations for Specific Modules
    https://github.com/psi4/psi4/blob/master/codemeta.json
    https://github.com/psi4/psi4/graphs/contributors
    http://psicode.org/psi4manual/master/introduction.html#citing-psifour

    -----------------------------------------------------------------------


    Psi4 started on: Tuesday, 02 November 2021 11:13AM

    Process ID: 25526
    Host:       compute495.bc4.acrc.priv
    PSIDATADIR: /mnt/storage/home/zw18965/.conda/envs/p4env/share/psi4
    Memory:     500.0 MiB
    Threads:    28
    
  ==> Input File <==

--------------------------------------------------------------------------
memory 144 GB

molecule {
2 2
Cu      -0.000000    1.401870   -0.545062 
Cu       1.214055   -0.700935   -0.545062 
Cu      -1.214055   -0.700935   -0.545062 
Cu       0.000000    0.000000    1.530006 
H        0.000000    0.000000    3.050192 
 }

set reference uks
set basis Def2-TZVPPD

energy("SCAN-D3BJ")
--------------------------------------------------------------------------

  Memory set to 134.110 GiB by Python driver.

Scratch directory: /tmp/

*** tstart() called on compute495.bc4.acrc.priv
*** at Tue Nov  2 11:13:15 2021

   => Loading Basis Set <=

    Name: DEF2-TZVPPD
    Role: ORBITAL
    Keyword: BASIS
    atoms 1-4 entry CU         line  1290 file /mnt/storage/home/zw18965/.conda/envs/p4env/share/psi4/basis/def2-tzvppd.gbs 
    atoms 5   entry H          line    14 file /mnt/storage/home/zw18965/.conda/envs/p4env/share/psi4/basis/def2-tzvppd.gbs 

   => SCAN-D3(BJ): Empirical Dispersion <=

    Grimme's -D3 (BJ-damping) Dispersion Correction
    Grimme S.; Ehrlich S.; Goerigk L. (2011), J. Comput. Chem., 32: 1456
    Parametrisation from:    J.G. Brandenburg, J. E. Bates, J. Sun, J.P. Perdew, Phys. Rev. B 94, 115144, 2016

        s6 =       1.000000
        s8 =       0.000000
        a1 =       0.538000
        a2 =       5.420000


         ---------------------------------------------------------
                                   SCF
               by Justin Turney, Rob Parrish, Andy Simmonett
                          and Daniel G. A. Smith
                              UKS Reference
                       28 Threads, 137329 MiB Core
         ---------------------------------------------------------

  ==> Geometry <==

    Molecular point group: cs
    Full point group: Cs

    Geometry (in Angstrom), charge = 2, multiplicity = 2:

       Center              X                  Y                   Z               Mass       
    ------------   -----------------  -----------------  -----------------  -----------------
         CU          -1.401870000000     0.531035456593     0.000000000000    62.929597720000
         CU           0.700935000000     0.531035456593     1.214055000000    62.929597720000
         CU           0.700935000000     0.531035456593    -1.214055000000    62.929597720000
         CU          -0.000000000000    -1.544032543407     0.000000000000    62.929597720000
         H           -0.000000000000    -3.064218543407     0.000000000000     1.007825032230

  Running in cs symmetry.

  Rotational constants: A =      0.04544  B =      0.04233  C =      0.04233 [cm^-1]
  Rotational constants: A =   1362.15183  B =   1269.04675  C =   1269.04672 [MHz]
  Nuclear repulsion = 1105.027163594112380

  Charge       = 2
  Multiplicity = 2
  Electrons    = 115
  Nalpha       = 58
  Nbeta        = 57

  ==> Algorithm <==

  SCF Algorithm Type is DF.
  DIIS enabled.
  MOM disabled.
  Fractional occupation disabled.
  Guess Type is SAD.
  Energy threshold   = 1.00e-06
  Density threshold  = 1.00e-06
  Integral threshold = 1.00e-12

  ==> Primary Basis <==

  Basis Set: DEF2-TZVPPD
    Blend: DEF2-TZVPPD
    Number of shells: 83
    Number of basis functions: 285
    Number of Cartesian functions: 350
    Spherical Harmonics?: true
    Max angular momentum: 4

  ==> DFT Potential <==

   => Composite Functional: SCAN-D3BJ <= 

    SCAN Meta-GGA XC Functional
(10.1103/PhysRevLett.115.036402)
    J. Sun, A. Ruzsinszky, J. P. Perdew  Phys. Rev. Lett. 115, 036402, 2015


    Deriv               =              1
    GGA                 =           TRUE
    Meta                =           TRUE

    Exchange Hybrid     =          FALSE
    MP2 Hybrid          =          FALSE

   => Exchange Functionals <=

    1.0000   XC_MGGA_X_SCAN

   => Correlation Functionals <=

    1.0000   XC_MGGA_C_SCAN

   => LibXC Density Thresholds  <==

    XC_MGGA_C_SCAN:  1.00E-15 
    XC_MGGA_X_SCAN:  1.00E-15 

   => Molecular Quadrature <=

    Radial Scheme          =       TREUTLER
    Pruning Scheme         =           NONE
    Nuclear Scheme         =       TREUTLER

    BS radius alpha        =              1
    Pruning alpha          =              1
    Radial Points          =             75
    Spherical Points       =            302
    Total Points           =         108614
    Total Blocks           =            933
    Max Points             =            256
    Max Functions          =            263
    Weights Tolerance      =       1.00E-15

   => Loading Basis Set <=

    Name: (DEF2-TZVPPD AUX)
    Role: JKFIT
    Keyword: DF_BASIS_SCF
    atoms 1-4 entry CU         line  2356 file /mnt/storage/home/zw18965/.conda/envs/p4env/share/psi4/basis/def2-universal-jkfit.gbs 
    atoms 5   entry H          line    18 file /mnt/storage/home/zw18965/.conda/envs/p4env/share/psi4/basis/def2-universal-jkfit.gbs 

  ==> Integral Setup <==

  DFHelper Memory: AOs need 0.632 GiB; user supplied 99.324 GiB. Using in-core AOs.

  ==> MemDFJK: Density-Fitted J/K Matrices <==

    J tasked:                   Yes
    K tasked:                    No
    wK tasked:                   No
    OpenMP threads:              28
    Memory [MiB]:            101707
    Algorithm:                 Core
    Schwarz Cutoff:           1E-12
    Mask sparsity (%):      10.3022
    Fitting Condition:        1E-10

   => Auxiliary Basis Set <=

  Basis Set: (DEF2-TZVPPD AUX)
    Blend: DEF2-UNIVERSAL-JKFIT
    Number of shells: 238
    Number of basis functions: 1074
    Number of Cartesian functions: 1528
    Spherical Harmonics?: true
    Max angular momentum: 6

  Cached 100.0% of DFT collocation blocks in 1.259 [GiB].

  Minimum eigenvalue in the overlap matrix is 4.1382247410E-04.
  Reciprocal condition number of the overlap matrix is 5.8865608987E-05.
    Using symmetric orthogonalization.

  ==> Pre-Iterations <==

  SCF Guess: Superposition of Atomic Densities via on-the-fly atomic UHF (no occupation information).

   -------------------------
    Irrep   Nso     Nmo    
   -------------------------
     A'       165     165 
     A"       120     120 
   -------------------------
    Total     285     285
   -------------------------

  ==> Iterations <==

                           Total Energy        Delta E     RMS |[F,P]|

   @DF-UKS iter SAD: -6556.02585020255538   -6.55603e+03   0.00000e+00 
    Occupation by irrep:
             Ap   App 
    DOCC [    37,   20 ]
    SOCC [     0,    1 ]

   @DF-UKS iter   1: -6550.88054620708863    5.14530e+00   4.21014e-02 DIIS
    Occupation by irrep:
             Ap   App 
    DOCC [    35,   22 ]
    SOCC [     1,    0 ]

   @DF-UKS iter   2: -6375.89081265972345    1.74990e+02   9.63916e-02 DIIS
    Occupation by irrep:
             Ap   App 
    DOCC [    37,   20 ]
    SOCC [     1,    0 ]

   @DF-UKS iter   3: -6559.98978968298616   -1.84099e+02   1.29793e-02 DIIS
    Occupation by irrep:
             Ap   App 
    DOCC [    36,   21 ]
    SOCC [     0,    1 ]

   @DF-UKS iter   4: -6514.36150158896999    4.56283e+01   5.90674e-02 DIIS
   @DF-UKS iter   5: -6560.37809987706987   -4.60166e+01   1.61216e-02 DIIS
   @DF-UKS iter   6: -6560.26335360683697    1.14746e-01   1.64481e-02 DIIS
    Occupation by irrep:
             Ap   App 
    DOCC [    35,   22 ]
    SOCC [     1,    0 ]

   @DF-UKS iter   7: -6561.93614265083124   -1.67279e+00   8.52981e-03 DIIS
   @DF-UKS iter   8: -6560.81801876347981    1.11812e+00   1.40357e-02 DIIS
   @DF-UKS iter   9: -6562.63196481604518   -1.81395e+00   3.52845e-03 DIIS
   @DF-UKS iter  10: -6562.74655134445584   -1.14587e-01   1.63798e-03 DIIS
   @DF-UKS iter  11: -6562.77730685528968   -3.07555e-02   4.20205e-04 DIIS
   @DF-UKS iter  12: -6562.77937226367521   -2.06541e-03   1.75316e-04 DIIS
   @DF-UKS iter  13: -6562.77973152911545   -3.59265e-04   8.58723e-05 DIIS
   @DF-UKS iter  14: -6562.77983198314814   -1.00454e-04   3.70490e-05 DIIS
   @DF-UKS iter  15: -6562.77984971392107   -1.77308e-05   1.14935e-05 DIIS
   @DF-UKS iter  16: -6562.77985153606460   -1.82214e-06   1.21529e-05 DIIS
   @DF-UKS iter  17: -6562.77985325342979   -1.71737e-06   5.57276e-06 DIIS
   @DF-UKS iter  18: -6562.77985372735657   -4.73927e-07   2.37839e-06 DIIS
   @DF-UKS iter  19: -6562.77985378267113   -5.53146e-08   7.33068e-07 DIIS
  Energy and wave function converged.


  ==> Post-Iterations <==

   Electrons on quadrature grid:
      Nalpha   =   57.9999833439 ; deviation = -1.666e-05
      Nbeta    =   56.9999787122 ; deviation = -2.129e-05
      Ntotal   =  114.9999620562 ; deviation = -3.794e-05 

   @Spin Contamination Metric:   5.966649407E-03
   @S^2 Expected:                7.500000000E-01
   @S^2 Observed:                7.559666494E-01
   @S   Expected:                5.000000000E-01
   @S   Observed:                5.000000000E-01

    Orbital Energies [Eh]
    ---------------------

    Alpha Occupied:                                                       

       1Ap  -322.846217     2Ap  -322.811095     1App -322.811084  
       3Ap  -322.811078     4Ap   -39.112324     5Ap   -39.064201  
       2App  -39.064190     6Ap   -39.064169     7Ap   -34.302205  
       8Ap   -34.285697     3App  -34.285689     9Ap   -34.246780  
       4App  -34.246769    10Ap   -34.246766    11Ap   -34.245199  
       5App  -34.245188    12Ap   -34.245185     6App  -34.244962  
       7App  -34.244945    13Ap   -34.244941    14Ap    -4.730898  
      15Ap    -4.687753    16Ap    -4.687448     8App   -4.687439  
      17Ap    -3.218906    18Ap    -3.186093     9App   -3.186071  
      19Ap    -3.160041    20Ap    -3.157931    10App   -3.157922  
      21Ap    -3.154391    22Ap    -3.154136    11App   -3.154125  
      12App   -3.153661    23Ap    -3.153658    13App   -3.152976  
      24Ap    -0.757075    25Ap    -0.697336    26Ap    -0.681952  
      14App   -0.681907    27Ap    -0.665080    28Ap    -0.661171  
      15App   -0.661170    29Ap    -0.651322    16App   -0.650441  
      30Ap    -0.650439    31Ap    -0.641918    17App   -0.633735  
      32Ap    -0.633719    33Ap    -0.623637    18App   -0.623600  
      19App   -0.621221    34Ap    -0.621208    20App   -0.620640  
      35Ap    -0.618342    36Ap    -0.617148    21App   -0.617144  
      22App   -0.606327  

    Alpha Virtual:                                                        

      37Ap    -0.498232    23App   -0.498226    38Ap    -0.463436  
      39Ap    -0.371145    40Ap    -0.361216    24App   -0.361212  
      41Ap    -0.349272    25App   -0.349271    42Ap    -0.250104  
      43Ap    -0.212252    26App   -0.212237    27App   -0.198713  
      44Ap    -0.198713    28App   -0.196415    45Ap    -0.187166  
      46Ap    -0.159815    47Ap    -0.142893    48Ap    -0.139295  
      29App   -0.139216    49Ap    -0.132536    50Ap    -0.131170  
      30App   -0.131168    31App   -0.128155    51Ap    -0.128155  
      52Ap    -0.104996    53Ap    -0.075913    32App   -0.075909  
      33App   -0.065667    54Ap    -0.064390    34App   -0.064382  
      55Ap    -0.057189    56Ap    -0.046808    35App   -0.046796  
      57Ap    -0.022979    36App   -0.022918    58Ap    -0.015897  
      59Ap    -0.006760    37App   -0.006460    38App   -0.005905  
      60Ap     0.024488    61Ap     0.043503    39App    0.043507  
      62Ap     0.053382    40App    0.053451    63Ap     0.060655  
      64Ap     0.103047    41App    0.103079    65Ap     0.106832  
      66Ap     0.127518    42App    0.127581    43App    0.130987  
      67Ap     0.182610    68Ap     0.182845    44App    0.182885  
      69Ap     0.229664    70Ap     0.301918    71Ap     0.355403  
      45App    0.355406    72Ap     0.356517    46App    0.356525  
      73Ap     0.394580    74Ap     0.400812    47App    0.400861  
      75Ap     0.433951    48App    0.456448    76Ap     0.456453  
      77Ap     0.457024    78Ap     0.490460    49App    0.490467  
      50App    0.526519    79Ap     0.534308    51App    0.534452  
      80Ap     0.581288    52App    0.581290    81Ap     0.589762  
      53App    0.609401    82Ap     0.610367    54App    0.610521  
      83Ap     0.639056    55App    0.639063    84Ap     0.655348  
      85Ap     0.693447    56App    0.693507    86Ap     0.838323  
      57App    0.838324    87Ap     0.844338    58App    0.858791  
      88Ap     0.935224    59App    0.935252    89Ap     1.089470  
      90Ap     2.329264    91Ap     2.415223    92Ap     2.545103  
      60App    2.545139    93Ap     2.611981    61App    2.612022  
      94Ap     2.616803    95Ap     2.652910    62App    2.660091  
      96Ap     2.660103    97Ap     2.754122    63App    2.754219  
      64App    2.805481    98Ap     2.826526    65App    2.827451  
      99Ap     2.833720   100Ap     2.870248    66App    2.870330  
     101Ap     2.888944   102Ap     2.967913   103Ap     2.981678  
      67App    2.981678   104Ap     2.987625    68App    2.988338  
     105Ap     2.994080    69App    3.001841   106Ap     3.001930  
      70App    3.004767   107Ap     3.004851    71App    3.006706  
     108Ap     3.009033    72App    3.009050   109Ap     3.009462  
      73App    3.009465    74App    3.009607    75App    3.027951  
     110Ap     3.027970    76App    3.034039   111Ap     3.034051  
     112Ap     3.045909    77App    3.055375   113Ap     3.065484  
      78App    3.068500   114Ap     3.068526    79App    3.177294  
     115Ap     3.177329   116Ap     3.249057    80App    3.249149  
     117Ap     3.250210   118Ap     3.270089   119Ap     3.309514  
      81App    3.309667    82App    3.325800   120Ap     3.331519  
      83App    3.331545   121Ap     3.413234    84App    3.413249  
     122Ap     3.459839    85App    3.472131   123Ap     3.472181  
      86App    3.518633   124Ap     3.518672   125Ap     3.533455  
      87App    3.572681   126Ap     3.588075    88App    3.588159  
     127Ap     3.742108    89App    3.742124   128Ap     3.864379  
     129Ap     3.923815    90App    3.923847   130Ap     3.987377  
     131Ap     4.818965   132Ap    12.667018   133Ap    12.669882  
      91App   12.670430   134Ap    12.674496    92App   12.674601  
      93App   12.684527   135Ap    12.685188   136Ap    12.687129  
      94App   12.687189   137Ap    12.709751    95App   12.710087  
     138Ap    12.710094    96App   12.710585   139Ap    12.710656  
      97App   12.711043   140Ap    12.711182    98App   12.711536  
     141Ap    12.711542    99App   12.712194   142Ap    12.712301  
     100App   12.712405   143Ap    12.712650   101App   12.712865  
     144Ap    12.713061   102App   12.713917   145Ap    12.714157  
     146Ap    12.714250   103App   12.714261   147Ap    12.714462  
     104App   12.714484   148Ap    12.716434   105App   12.716600  
     149Ap    12.716631   106App   12.716881   107App   12.716920  
     150Ap    12.716930   151Ap    12.764338   108App   12.764341  
     109App   12.765161   152Ap    12.766691   153Ap    12.790795  
     110App   12.790820   154Ap    12.791967   111App   12.793010  
     155Ap    12.793562   112App   12.793600   156Ap    12.796080  
     113App   12.796498   157Ap    12.796536   114App   12.797093  
     158Ap    12.799136   159Ap    12.799801   115App   12.799831  
     160Ap    12.801502   116App   12.801547   161Ap    12.809142  
     117App   12.809163   162Ap    12.828088   118App   12.828163  
     163Ap    12.844000   119App   12.855650   164Ap    12.863049  
     120App   12.863073   165Ap    13.125256  

    Beta Occupied:                                                        

       1Ap  -322.844657     2Ap  -322.811005     1App -322.810995  
       3Ap  -322.810988     4Ap   -39.101636     5Ap   -39.063646  
       2App  -39.063634     6Ap   -39.063614     7Ap   -34.288168  
       8Ap   -34.281488     3App  -34.281485     9Ap   -34.246201  
       4App  -34.246188    10Ap   -34.246185     5App  -34.244918  
       6App  -34.244900    11Ap   -34.244896    12Ap   -34.244656  
       7App  -34.244644    13Ap   -34.244642    14Ap    -4.710743  
      15Ap    -4.686912    16Ap    -4.686609     8App   -4.686599  
      17Ap    -3.179602     9App   -3.179596    18Ap    -3.175944  
      19Ap    -3.158445    20Ap    -3.156483    10App   -3.156472  
      21Ap    -3.153982    11App   -3.153978    22Ap    -3.153353  
      12App   -3.153125    23Ap    -3.152809    13App   -3.152802  
      24Ap    -0.734116    25Ap    -0.682029    14App   -0.681978  
      26Ap    -0.670856    27Ap    -0.654500    15App   -0.654486  
      28Ap    -0.650643    16App   -0.645842    29Ap    -0.645836  
      30Ap    -0.642038    31Ap    -0.638686    17App   -0.631815  
      32Ap    -0.631803    33Ap    -0.622216    18App   -0.622184  
      19App   -0.620638    34Ap    -0.620618    20App   -0.620365  
      35Ap    -0.614707    21App   -0.614688    22App   -0.606224  

    Beta Virtual:                                                         

      36Ap    -0.560065    37Ap    -0.496482    23App   -0.496472  
      38Ap    -0.450007    39Ap    -0.369242    40Ap    -0.356757  
      24App   -0.356754    25App   -0.344083    41Ap    -0.344082  
      42Ap    -0.229812    43Ap    -0.202028    26App   -0.202028  
      44Ap    -0.197707    27App   -0.197706    28App   -0.196175  
      45Ap    -0.186559    46Ap    -0.155688    47Ap    -0.143306  
      48Ap    -0.137844    29App   -0.137834    30App   -0.131778  
      49Ap    -0.131777    50Ap    -0.129821    51Ap    -0.129135  
      31App   -0.129134    52Ap    -0.103759    32App   -0.072300  
      53Ap    -0.072299    33App   -0.065595    34App   -0.065531  
      54Ap    -0.065528    55Ap    -0.058473    35App   -0.041976  
      56Ap    -0.041975    57Ap    -0.021313    36App   -0.021299  
      58Ap    -0.012662    59Ap    -0.006554    37App   -0.006514  
      38App   -0.005002    60Ap     0.029931    61Ap     0.049695  
      39App    0.049699    62Ap     0.053553    40App    0.053565  
      63Ap     0.093976    64Ap     0.103756    41App    0.111214  
      65Ap     0.111216    66Ap     0.130475    42App    0.130494  
      43App    0.131098    44App    0.176106    67Ap     0.176134  
      68Ap     0.191949    69Ap     0.241224    70Ap     0.308444  
      45App    0.356187    71Ap     0.356190    46App    0.363167  
      72Ap     0.363178    73Ap     0.395949    47App    0.401494  
      74Ap     0.401502    75Ap     0.434792    48App    0.455258  
      76Ap     0.455266    77Ap     0.457202    49App    0.494515  
      78Ap     0.494522    50App    0.527387    79Ap     0.532957  
      51App    0.532960    52App    0.590709    80Ap     0.590716  
      81Ap     0.596845    53App    0.610206    82Ap     0.615514  
      54App    0.615530    55App    0.645800    83Ap     0.645802  
      84Ap     0.678429    85Ap     0.712922    56App    0.712922  
      86Ap     0.840099    57App    0.840150    58App    0.858534  
      87Ap     0.884634    59App    0.958786    88Ap     0.958796  
      89Ap     1.158901    90Ap     2.451428    91Ap     2.465231  
      92Ap     2.568763    60App    2.568806    93Ap     2.617757  
      61App    2.617792    94Ap     2.620499    95Ap     2.668339  
      62App    2.679618    96Ap     2.679637    63App    2.764557  
      97Ap     2.764563    64App    2.805135    98Ap     2.841520  
      99Ap     2.869038    65App    2.869175   100Ap     2.896172  
     101Ap     2.923000    66App    2.923554   102Ap     2.968851  
      67App    2.983653   103Ap     2.983656   104Ap     2.994215  
      68App    3.002907   105Ap     3.002999    69App    3.004696  
      70App    3.005706   106Ap     3.005772   107Ap     3.007560  
      71App    3.008123    72App    3.009700   108Ap     3.009856  
      73App    3.009858   109Ap     3.010196    74App    3.010223  
     110Ap     3.030743    75App    3.030747    76App    3.036031  
     111Ap     3.036051   112Ap     3.048168    77App    3.055964  
     113Ap     3.080092   114Ap     3.139754    78App    3.140744  
     115Ap     3.183394    79App    3.183577   116Ap     3.253906  
     117Ap     3.256479    80App    3.256770   118Ap     3.280737  
     119Ap     3.314034    81App    3.314207    82App    3.325893  
     120Ap     3.332300    83App    3.332334    84App    3.469721  
     121Ap     3.469742   122Ap     3.472343    85App    3.519602  
     123Ap     3.519630    86App    3.527935   124Ap     3.527984  
     125Ap     3.548506    87App    3.572521   126Ap     3.613590  
      88App    3.613681   127Ap     3.893910    89App    3.893941  
     128Ap     3.931603    90App    3.931691   129Ap     3.963471  
     130Ap     4.058460   131Ap     4.952488   132Ap    12.683842  
      91App   12.684110    92App   12.686712   133Ap    12.687196  
     134Ap    12.687615    93App   12.687895   135Ap    12.698897  
      94App   12.698952   136Ap    12.704831    95App   12.711286  
     137Ap    12.711289   138Ap    12.711554    96App   12.711782  
     139Ap    12.711851   140Ap    12.712017    97App   12.712123  
      98App   12.712570   141Ap    12.712666    99App   12.712829  
     142Ap    12.712956   100App   12.713586   101App   12.713773  
     143Ap    12.713821   144Ap    12.713995   145Ap    12.714437  
     102App   12.714441   146Ap    12.714652   103App   12.714834  
     104App   12.714977   147Ap    12.715282   148Ap    12.717073  
     105App   12.717102   149Ap    12.717134   106App   12.717315  
     107App   12.717438   150Ap    12.717486   151Ap    12.767687  
     108App   12.767787   109App   12.771360   152Ap    12.772839  
     153Ap    12.791335   110App   12.791363   111App   12.793262  
     154Ap    12.793522   155Ap    12.794805   112App   12.794835  
     113App   12.796670   114App   12.797070   156Ap    12.797097  
     157Ap    12.798474   158Ap    12.799560   159Ap    12.801116  
     115App   12.801155   160Ap    12.803290   116App   12.803314  
     161Ap    12.812446   117App   12.812465   162Ap    12.844719  
     118App   12.844812   163Ap    12.845216   119App   12.857918  
     164Ap    12.867954   120App   12.867996   165Ap    13.162693  

    Final Occupation by Irrep:
             Ap   App 
    DOCC [    35,   22 ]
    SOCC [     1,    0 ]

  @DF-UKS Final Energy: -6562.77985378267113

   => Energetics <=

    Nuclear Repulsion Energy =           1105.0271635941123805
    One-Electron Energy =              -11310.3668405735334090
    Two-Electron Energy =                3912.0857603856611604
    DFT Exchange-Correlation Energy =    -269.5248653989114018
    Empirical Dispersion Energy =          -0.0010717900000000
    VV10 Nonlocal Energy =                  0.0000000000000000
    Total Energy =                      -6562.7798537826720349

  UHF NO Occupations:
  HONO-2 :   34 Ap 1.9995806
  HONO-1 :   35 Ap 1.9982476
  HONO-0 :   36 Ap 1.0000000
  LUNO+0 :   37 Ap 0.0017524
  LUNO+1 :   38 Ap 0.0004194
  LUNO+2 :   39 Ap 0.0003067
  LUNO+3 :   23App 0.0003063


Computation Completed


Properties will be evaluated at   0.000000,   0.000000,   0.000000 [a0]

Properties computed using the SCF density matrix

  Nuclear Dipole Moment: [e a0]
     X:    -0.0000      Y:    -3.1012      Z:    -0.0000

  Electronic Dipole Moment: [e a0]
     X:    -0.0000      Y:     3.4292      Z:     0.0000

  Dipole Moment: [e a0]
     X:    -0.0000      Y:     0.3280      Z:    -0.0000     Total:     0.3280

  Dipole Moment: [D]
     X:    -0.0001      Y:     0.8336      Z:    -0.0000     Total:     0.8336


*** tstop() called on compute495.bc4.acrc.priv at Tue Nov  2 11:14:25 2021
Module time:
	user time   =    1730.97 seconds =      28.85 minutes
	system time =      73.54 seconds =       1.23 minutes
	total time  =         70 seconds =       1.17 minutes
Total time:
	user time   =    1730.97 seconds =      28.85 minutes
	system time =      73.54 seconds =       1.23 minutes
	total time  =         70 seconds =       1.17 minutes

    Psi4 stopped on: Tuesday, 02 November 2021 11:14AM
    Psi4 wall time for execution: 0:01:10.01

*** Psi4 exiting successfully. Buy a developer a beer!
