
    -----------------------------------------------------------------------
          Psi4: An Open-Source Ab Initio Electronic Structure Package
                               Psi4 1.4.1 release

                         Git: Rev {HEAD} cd00f19 


    D. G. A. Smith, L. A. Burns, A. C. Simmonett, R. M. Parrish,
    M. C. Schieber, R. Galvelis, P. Kraus, H. Kruse, R. Di Remigio,
    A. Alenaizan, A. M. James, S. Lehtola, J. P. Misiewicz, M. Scheurer,
    R. A. Shaw, J. B. Schriber, Y. Xie, Z. L. Glick, D. A. Sirianni,
    J. S. O'Brien, J. M. Waldrop, A. Kumar, E. G. Hohenstein,
    B. P. Pritchard, B. R. Brooks, H. F. Schaefer III, A. Yu. Sokolov,
    K. Patkowski, A. E. DePrince III, U. Bozkaya, R. A. King,
    F. A. Evangelista, J. M. Turney, T. D. Crawford, C. D. Sherrill,
    J. Chem. Phys. 152(18) 184108 (2020). https://doi.org/10.1063/5.0006002

                            Additional Code Authors
    E. T. Seidl, C. L. Janssen, E. F. Valeev, M. L. Leininger,
    J. F. Gonthier, R. M. Richard, H. R. McAlexander, M. Saitow, X. Wang,
    P. Verma, and M. H. Lechner

             Previous Authors, Complete List of Code Contributors,
                       and Citations for Specific Modules
    https://github.com/psi4/psi4/blob/master/codemeta.json
    https://github.com/psi4/psi4/graphs/contributors
    http://psicode.org/psi4manual/master/introduction.html#citing-psifour

    -----------------------------------------------------------------------


    Psi4 started on: Tuesday, 02 November 2021 11:12AM

    Process ID: 25281
    Host:       compute495.bc4.acrc.priv
    PSIDATADIR: /mnt/storage/home/zw18965/.conda/envs/p4env/share/psi4
    Memory:     500.0 MiB
    Threads:    28
    
  ==> Input File <==

--------------------------------------------------------------------------
memory 144 GB

molecule {
2 1
Cu      -0.000001   -0.000007    1.488630 
Cu       0.000001   -1.403449   -0.496203 
Cu       1.215485    0.701727   -0.496214 
Cu      -1.215485    0.701729   -0.496213 
 }

set basis Def2-TZVPPD

energy("SCAN-D3BJ")
--------------------------------------------------------------------------

  Memory set to 134.110 GiB by Python driver.

Scratch directory: /tmp/

*** tstart() called on compute495.bc4.acrc.priv
*** at Tue Nov  2 11:12:09 2021

   => Loading Basis Set <=

    Name: DEF2-TZVPPD
    Role: ORBITAL
    Keyword: BASIS
    atoms 1-4 entry CU         line  1290 file /mnt/storage/home/zw18965/.conda/envs/p4env/share/psi4/basis/def2-tzvppd.gbs 

   => SCAN-D3(BJ): Empirical Dispersion <=

    Grimme's -D3 (BJ-damping) Dispersion Correction
    Grimme S.; Ehrlich S.; Goerigk L. (2011), J. Comput. Chem., 32: 1456
    Parametrisation from:    J.G. Brandenburg, J. E. Bates, J. Sun, J.P. Perdew, Phys. Rev. B 94, 115144, 2016

        s6 =       1.000000
        s8 =       0.000000
        a1 =       0.538000
        a2 =       5.420000


         ---------------------------------------------------------
                                   SCF
               by Justin Turney, Rob Parrish, Andy Simmonett
                          and Daniel G. A. Smith
                              RKS Reference
                       28 Threads, 137329 MiB Core
         ---------------------------------------------------------

  ==> Geometry <==

    Molecular point group: c1
    Full point group: C1

    Geometry (in Angstrom), charge = 2, multiplicity = 1:

       Center              X                  Y                   Z               Mass       
    ------------   -----------------  -----------------  -----------------  -----------------
         CU          -0.000001000000    -0.000007000000     1.488630000000    62.929597720000
         CU           0.000001000000    -1.403449000000    -0.496203000000    62.929597720000
         CU           1.215485000000     0.701727000000    -0.496214000000    62.929597720000
         CU          -1.215485000000     0.701729000000    -0.496213000000    62.929597720000

  Running in c1 symmetry.

  Rotational constants: A =      0.04533  B =      0.04533  C =      0.04533 [cm^-1]
  Rotational constants: A =   1359.04280  B =   1359.01729  C =   1358.97410 [MHz]
  Nuclear repulsion = 1098.446239671754938

  Charge       = 2
  Multiplicity = 1
  Electrons    = 114
  Nalpha       = 57
  Nbeta        = 57

  ==> Algorithm <==

  SCF Algorithm Type is DF.
  DIIS enabled.
  MOM disabled.
  Fractional occupation disabled.
  Guess Type is SAD.
  Energy threshold   = 1.00e-06
  Density threshold  = 1.00e-06
  Integral threshold = 1.00e-12

  ==> Primary Basis <==

  Basis Set: DEF2-TZVPPD
    Blend: DEF2-TZVPPD
    Number of shells: 76
    Number of basis functions: 268
    Number of Cartesian functions: 332
    Spherical Harmonics?: true
    Max angular momentum: 4

  ==> DFT Potential <==

   => Composite Functional: SCAN-D3BJ <= 

    SCAN Meta-GGA XC Functional
(10.1103/PhysRevLett.115.036402)
    J. Sun, A. Ruzsinszky, J. P. Perdew  Phys. Rev. Lett. 115, 036402, 2015


    Deriv               =              1
    GGA                 =           TRUE
    Meta                =           TRUE

    Exchange Hybrid     =          FALSE
    MP2 Hybrid          =          FALSE

   => Exchange Functionals <=

    1.0000   XC_MGGA_X_SCAN

   => Correlation Functionals <=

    1.0000   XC_MGGA_C_SCAN

   => LibXC Density Thresholds  <==

    XC_MGGA_C_SCAN:  1.00E-15 
    XC_MGGA_X_SCAN:  1.00E-15 

   => Molecular Quadrature <=

    Radial Scheme          =       TREUTLER
    Pruning Scheme         =           NONE
    Nuclear Scheme         =       TREUTLER

    BS radius alpha        =              1
    Pruning alpha          =              1
    Radial Points          =             75
    Spherical Points       =            302
    Total Points           =          86913
    Total Blocks           =            769
    Max Points             =            256
    Max Functions          =            249
    Weights Tolerance      =       1.00E-15

   => Loading Basis Set <=

    Name: (DEF2-TZVPPD AUX)
    Role: JKFIT
    Keyword: DF_BASIS_SCF
    atoms 1-4 entry CU         line  2356 file /mnt/storage/home/zw18965/.conda/envs/p4env/share/psi4/basis/def2-universal-jkfit.gbs 

  ==> Integral Setup <==

  DFHelper Memory: AOs need 0.559 GiB; user supplied 99.613 GiB. Using in-core AOs.

  ==> MemDFJK: Density-Fitted J/K Matrices <==

    J tasked:                   Yes
    K tasked:                    No
    wK tasked:                   No
    OpenMP threads:              28
    Memory [MiB]:            102003
    Algorithm:                 Core
    Schwarz Cutoff:           1E-12
    Mask sparsity (%):       8.8800
    Fitting Condition:        1E-10

   => Auxiliary Basis Set <=

  Basis Set: (DEF2-TZVPPD AUX)
    Blend: DEF2-UNIVERSAL-JKFIT
    Number of shells: 232
    Number of basis functions: 1056
    Number of Cartesian functions: 1508
    Spherical Harmonics?: true
    Max angular momentum: 6

  Cached 100.0% of DFT collocation blocks in 0.970 [GiB].

  Minimum eigenvalue in the overlap matrix is 7.1201892812E-04.
  Reciprocal condition number of the overlap matrix is 9.2568595854E-05.
    Using symmetric orthogonalization.

  ==> Pre-Iterations <==

  SCF Guess: Superposition of Atomic Densities via on-the-fly atomic UHF (no occupation information).

   -------------------------
    Irrep   Nso     Nmo    
   -------------------------
     A        268     268 
   -------------------------
    Total     268     268
   -------------------------

  ==> Iterations <==

                           Total Energy        Delta E     RMS |[F,P]|

   @DF-RKS iter SAD: -6555.49033171693100   -6.55549e+03   0.00000e+00 
   @DF-RKS iter   1: -6550.81861408408622    4.67172e+00   3.17721e-02 DIIS
   @DF-RKS iter   2: -6389.19128801642273    1.61627e+02   7.20821e-02 DIIS
   @DF-RKS iter   3: -6560.31152063655554   -1.71120e+02   9.63874e-03 DIIS
   @DF-RKS iter   4: -6555.48652254062927    4.82500e+00   1.96000e-02 DIIS
   @DF-RKS iter   5: -6562.22139627589513   -6.73487e+00   1.21606e-03 DIIS
   @DF-RKS iter   6: -6562.20742501048062    1.39713e-02   1.50351e-03 DIIS
   @DF-RKS iter   7: -6562.22788195079102   -2.04569e-02   8.92383e-04 DIIS
   @DF-RKS iter   8: -6562.23573496687914   -7.85302e-03   4.16632e-04 DIIS
   @DF-RKS iter   9: -6562.23579972114567   -6.47543e-05   3.86920e-04 DIIS
   @DF-RKS iter  10: -6562.23786251936599   -2.06280e-03   5.98694e-05 DIIS
   @DF-RKS iter  11: -6562.23790694291984   -4.44236e-05   1.35474e-05 DIIS
   @DF-RKS iter  12: -6562.23790720349189   -2.60572e-07   1.34029e-05 DIIS
   @DF-RKS iter  13: -6562.23790973807172   -2.53458e-06   1.83258e-06 DIIS
   @DF-RKS iter  14: -6562.23790982864102   -9.05693e-08   3.27366e-07 DIIS
  Energy and wave function converged.


  ==> Post-Iterations <==

   Electrons on quadrature grid:
      Ntotal   =  113.9999905308 ; deviation = -9.469e-06 

    Orbital Energies [Eh]
    ---------------------

    Doubly Occupied:                                                      

       1A   -322.803474     2A   -322.803473     3A   -322.803471  
       4A   -322.803460     5A    -39.056313     6A    -39.056312  
       7A    -39.056309     8A    -39.056272     9A    -34.238693  
      10A    -34.238692    11A    -34.238689    12A    -34.238685  
      13A    -34.237417    14A    -34.237415    15A    -34.237414  
      16A    -34.237410    17A    -34.237407    18A    -34.237405  
      19A    -34.237405    20A    -34.237403    21A     -4.680022  
      22A     -4.679625    23A     -4.679623    24A     -4.679620  
      25A     -3.152350    26A     -3.149758    27A     -3.149755  
      28A     -3.149751    29A     -3.146827    30A     -3.146814  
      31A     -3.146472    32A     -3.146470    33A     -3.146461  
      34A     -3.145749    35A     -3.145740    36A     -3.145738  
      37A     -0.719466    38A     -0.657891    39A     -0.657886  
      40A     -0.657870    41A     -0.642734    42A     -0.642729  
      43A     -0.638419    44A     -0.633880    45A     -0.633854  
      46A     -0.633843    47A     -0.615901    48A     -0.615886  
      49A     -0.615869    50A     -0.613579    51A     -0.613569  
      52A     -0.613538    53A     -0.613284    54A     -0.613246  
      55A     -0.599307    56A     -0.599295    57A     -0.599291  

    Virtual:                                                              

      58A     -0.491219    59A     -0.491211    60A     -0.491205  
      61A     -0.372130    62A     -0.353349    63A     -0.353347  
      64A     -0.353339    65A     -0.340628    66A     -0.340625  
      67A     -0.196960    68A     -0.196959    69A     -0.196955  
      70A     -0.193472    71A     -0.193468    72A     -0.193466  
      73A     -0.164015    74A     -0.144190    75A     -0.135348  
      76A     -0.135347    77A     -0.135346    78A     -0.130708  
      79A     -0.130706    80A     -0.127969    81A     -0.127968  
      82A     -0.127964    83A     -0.067718    84A     -0.067716  
      85A     -0.067711    86A     -0.064014    87A     -0.064012  
      88A     -0.064011    89A     -0.034515    90A     -0.034515  
      91A     -0.034513    92A     -0.016957    93A     -0.016955  
      94A     -0.003535    95A     -0.003533    96A     -0.003531  
      97A      0.009859    98A      0.054871    99A      0.054874  
     100A      0.054880   101A      0.056276   102A      0.056281  
     103A      0.123254   104A      0.123266   105A      0.123272  
     106A      0.132957   107A      0.132960   108A      0.132961  
     109A      0.292132   110A      0.346812   111A      0.346834  
     112A      0.362731   113A      0.362749   114A      0.362765  
     115A      0.390708   116A      0.390724   117A      0.390730  
     118A      0.441535   119A      0.445667   120A      0.445671  
     121A      0.445673   122A      0.515549   123A      0.515564  
     124A      0.530287   125A      0.530293   126A      0.530300  
     127A      0.613946   128A      0.613959   129A      0.613975  
     130A      0.619751   131A      0.619760   132A      0.619771  
     133A      0.669256   134A      0.669266   135A      0.826058  
     136A      0.826098   137A      0.826135   138A      0.862509  
     139A      0.862522   140A      0.862540   141A      2.589751  
     142A      2.589782   143A      2.589796   144A      2.604727  
     145A      2.624739   146A      2.624780   147A      2.738911  
     148A      2.738955   149A      2.738984   150A      2.757598  
     151A      2.812025   152A      2.812035   153A      2.812051  
     154A      2.972274   155A      2.972292   156A      2.972353  
     157A      2.978386   158A      3.008057   159A      3.008108  
     160A      3.008122   161A      3.010066   162A      3.010085  
     163A      3.010118   164A      3.011467   165A      3.011499  
     166A      3.015047   167A      3.015088   168A      3.015097  
     169A      3.015877   170A      3.015886   171A      3.015906  
     172A      3.016486   173A      3.024202   174A      3.024209  
     175A      3.041427   176A      3.041442   177A      3.041461  
     178A      3.055097   179A      3.060280   180A      3.060306  
     181A      3.060331   182A      3.182851   183A      3.182862  
     184A      3.182880   185A      3.262314   186A      3.262332  
     187A      3.262417   188A      3.325192   189A      3.325281  
     190A      3.334677   191A      3.334746   192A      3.334757  
     193A      3.469423   194A      3.504870   195A      3.504895  
     196A      3.504901   197A      3.534170   198A      3.534232  
     199A      3.580395   200A      3.580453   201A      3.580463  
     202A      3.960074   203A      3.960094   204A      3.960173  
     205A     12.717965   206A     12.718017   207A     12.718102  
     208A     12.718199   209A     12.718309   210A     12.718442  
     211A     12.718688   212A     12.718706   213A     12.718780  
     214A     12.719191   215A     12.719222   216A     12.719522  
     217A     12.719924   218A     12.720000   219A     12.720062  
     220A     12.720279   221A     12.720327   222A     12.720601  
     223A     12.720739   224A     12.721065   225A     12.721298  
     226A     12.721356   227A     12.721610   228A     12.721697  
     229A     12.721732   230A     12.721923   231A     12.722072  
     232A     12.722089   233A     12.724029   234A     12.724039  
     235A     12.724088   236A     12.724095   237A     12.724216  
     238A     12.724265   239A     12.724273   240A     12.724276  
     241A     12.798914   242A     12.798926   243A     12.798981  
     244A     12.799523   245A     12.799524   246A     12.799536  
     247A     12.801299   248A     12.801309   249A     12.801508  
     250A     12.801871   251A     12.801877   252A     12.801892  
     253A     12.802527   254A     12.806401   255A     12.806418  
     256A     12.806438   257A     12.807845   258A     12.808614  
     259A     12.808634   260A     12.808648   261A     12.813435  
     262A     12.813466   263A     12.864048   264A     12.864072  
     265A     12.864077   266A     12.871908   267A     12.871920  
     268A     12.871930  

    Final Occupation by Irrep:
              A 
    DOCC [    57 ]

  @DF-RKS Final Energy: -6562.23790982864102

   => Energetics <=

    Nuclear Repulsion Energy =           1098.4462396717549382
    One-Electron Energy =              -11298.7972957190486341
    Two-Electron Energy =                3907.3716174267788119
    DFT Exchange-Correlation Energy =    -269.2575935481273177
    Empirical Dispersion Energy =          -0.0008776600000000
    VV10 Nonlocal Energy =                  0.0000000000000000
    Total Energy =                      -6562.2379098286410226

Computation Completed


Properties will be evaluated at   0.000000,   0.000000,   0.000000 [a0]

Properties computed using the SCF density matrix

  Nuclear Dipole Moment: [e a0]
     X:     0.0000      Y:    -0.0000      Z:     0.0000

  Electronic Dipole Moment: [e a0]
     X:     0.0000      Y:     0.0001      Z:    -0.0000

  Dipole Moment: [e a0]
     X:     0.0000      Y:     0.0001      Z:    -0.0000     Total:     0.0001

  Dipole Moment: [D]
     X:     0.0000      Y:     0.0004      Z:    -0.0000     Total:     0.0004


*** tstop() called on compute495.bc4.acrc.priv at Tue Nov  2 11:12:18 2021
Module time:
	user time   =     147.39 seconds =       2.46 minutes
	system time =       8.65 seconds =       0.14 minutes
	total time  =          9 seconds =       0.15 minutes
Total time:
	user time   =     147.39 seconds =       2.46 minutes
	system time =       8.65 seconds =       0.14 minutes
	total time  =          9 seconds =       0.15 minutes

    Psi4 stopped on: Tuesday, 02 November 2021 11:12AM
    Psi4 wall time for execution: 0:00:08.68

*** Psi4 exiting successfully. Buy a developer a beer!
