
    -----------------------------------------------------------------------
          Psi4: An Open-Source Ab Initio Electronic Structure Package
                               Psi4 1.4.1 release

                         Git: Rev {HEAD} cd00f19 


    D. G. A. Smith, L. A. Burns, A. C. Simmonett, R. M. Parrish,
    M. C. Schieber, R. Galvelis, P. Kraus, H. Kruse, R. Di Remigio,
    A. Alenaizan, A. M. James, S. Lehtola, J. P. Misiewicz, M. Scheurer,
    R. A. Shaw, J. B. Schriber, Y. Xie, Z. L. Glick, D. A. Sirianni,
    J. S. O'Brien, J. M. Waldrop, A. Kumar, E. G. Hohenstein,
    B. P. Pritchard, B. R. Brooks, H. F. Schaefer III, A. Yu. Sokolov,
    K. Patkowski, A. E. DePrince III, U. Bozkaya, R. A. King,
    F. A. Evangelista, J. M. Turney, T. D. Crawford, C. D. Sherrill,
    J. Chem. Phys. 152(18) 184108 (2020). https://doi.org/10.1063/5.0006002

                            Additional Code Authors
    E. T. Seidl, C. L. Janssen, E. F. Valeev, M. L. Leininger,
    J. F. Gonthier, R. M. Richard, H. R. McAlexander, M. Saitow, X. Wang,
    P. Verma, and M. H. Lechner

             Previous Authors, Complete List of Code Contributors,
                       and Citations for Specific Modules
    https://github.com/psi4/psi4/blob/master/codemeta.json
    https://github.com/psi4/psi4/graphs/contributors
    http://psicode.org/psi4manual/master/introduction.html#citing-psifour

    -----------------------------------------------------------------------


    Psi4 started on: Tuesday, 02 November 2021 11:10AM

    Process ID: 24836
    Host:       compute495.bc4.acrc.priv
    PSIDATADIR: /mnt/storage/home/zw18965/.conda/envs/p4env/share/psi4
    Memory:     500.0 MiB
    Threads:    28
    
  ==> Input File <==

--------------------------------------------------------------------------
memory 144 GB

molecule {
2 2
Cu      -0.000000    1.387730   -0.507533 
Cu       1.201809   -0.693865   -0.507533 
Cu      -1.201809   -0.693865   -0.507533 
Cu       0.000000    0.000000    1.576640 
H        0.000000    0.000000   -1.567185 
 }

set reference uks
set basis Def2-TZVPPD

energy("SCAN-D3BJ")
--------------------------------------------------------------------------

  Memory set to 134.110 GiB by Python driver.

Scratch directory: /tmp/

*** tstart() called on compute495.bc4.acrc.priv
*** at Tue Nov  2 11:10:22 2021

   => Loading Basis Set <=

    Name: DEF2-TZVPPD
    Role: ORBITAL
    Keyword: BASIS
    atoms 1-4 entry CU         line  1290 file /mnt/storage/home/zw18965/.conda/envs/p4env/share/psi4/basis/def2-tzvppd.gbs 
    atoms 5   entry H          line    14 file /mnt/storage/home/zw18965/.conda/envs/p4env/share/psi4/basis/def2-tzvppd.gbs 

   => SCAN-D3(BJ): Empirical Dispersion <=

    Grimme's -D3 (BJ-damping) Dispersion Correction
    Grimme S.; Ehrlich S.; Goerigk L. (2011), J. Comput. Chem., 32: 1456
    Parametrisation from:    J.G. Brandenburg, J. E. Bates, J. Sun, J.P. Perdew, Phys. Rev. B 94, 115144, 2016

        s6 =       1.000000
        s8 =       0.000000
        a1 =       0.538000
        a2 =       5.420000


         ---------------------------------------------------------
                                   SCF
               by Justin Turney, Rob Parrish, Andy Simmonett
                          and Daniel G. A. Smith
                              UKS Reference
                       28 Threads, 137329 MiB Core
         ---------------------------------------------------------

  ==> Geometry <==

    Molecular point group: cs
    Full point group: Cs

    Geometry (in Angstrom), charge = 2, multiplicity = 2:

       Center              X                  Y                   Z               Mass       
    ------------   -----------------  -----------------  -----------------  -----------------
         CU          -1.387730000000     0.514739732039     0.000000000000    62.929597720000
         CU           0.693865000000     0.514739732039     1.201809000000    62.929597720000
         CU           0.693865000000     0.514739732039    -1.201809000000    62.929597720000
         CU           0.000000000000    -1.569433267961     0.000000000000    62.929597720000
         H            0.000000000000     1.574391732039     0.000000000000     1.007825032230

  Running in cs symmetry.

  Rotational constants: A =      0.04637  B =      0.04330  C =      0.04330 [cm^-1]
  Rotational constants: A =   1390.05246  B =   1298.15266  C =   1298.15222 [MHz]
  Nuclear repulsion = 1119.920232779677008

  Charge       = 2
  Multiplicity = 2
  Electrons    = 115
  Nalpha       = 58
  Nbeta        = 57

  ==> Algorithm <==

  SCF Algorithm Type is DF.
  DIIS enabled.
  MOM disabled.
  Fractional occupation disabled.
  Guess Type is SAD.
  Energy threshold   = 1.00e-06
  Density threshold  = 1.00e-06
  Integral threshold = 1.00e-12

  ==> Primary Basis <==

  Basis Set: DEF2-TZVPPD
    Blend: DEF2-TZVPPD
    Number of shells: 83
    Number of basis functions: 285
    Number of Cartesian functions: 350
    Spherical Harmonics?: true
    Max angular momentum: 4

  ==> DFT Potential <==

   => Composite Functional: SCAN-D3BJ <= 

    SCAN Meta-GGA XC Functional
(10.1103/PhysRevLett.115.036402)
    J. Sun, A. Ruzsinszky, J. P. Perdew  Phys. Rev. Lett. 115, 036402, 2015


    Deriv               =              1
    GGA                 =           TRUE
    Meta                =           TRUE

    Exchange Hybrid     =          FALSE
    MP2 Hybrid          =          FALSE

   => Exchange Functionals <=

    1.0000   XC_MGGA_X_SCAN

   => Correlation Functionals <=

    1.0000   XC_MGGA_C_SCAN

   => LibXC Density Thresholds  <==

    XC_MGGA_C_SCAN:  1.00E-15 
    XC_MGGA_X_SCAN:  1.00E-15 

   => Molecular Quadrature <=

    Radial Scheme          =       TREUTLER
    Pruning Scheme         =           NONE
    Nuclear Scheme         =       TREUTLER

    BS radius alpha        =              1
    Pruning alpha          =              1
    Radial Points          =             75
    Spherical Points       =            302
    Total Points           =         108160
    Total Blocks           =            933
    Max Points             =            256
    Max Functions          =            267
    Weights Tolerance      =       1.00E-15

   => Loading Basis Set <=

    Name: (DEF2-TZVPPD AUX)
    Role: JKFIT
    Keyword: DF_BASIS_SCF
    atoms 1-4 entry CU         line  2356 file /mnt/storage/home/zw18965/.conda/envs/p4env/share/psi4/basis/def2-universal-jkfit.gbs 
    atoms 5   entry H          line    18 file /mnt/storage/home/zw18965/.conda/envs/p4env/share/psi4/basis/def2-universal-jkfit.gbs 

  ==> Integral Setup <==

  DFHelper Memory: AOs need 0.645 GiB; user supplied 99.221 GiB. Using in-core AOs.

  ==> MemDFJK: Density-Fitted J/K Matrices <==

    J tasked:                   Yes
    K tasked:                    No
    wK tasked:                   No
    OpenMP threads:              28
    Memory [MiB]:            101602
    Algorithm:                 Core
    Schwarz Cutoff:           1E-12
    Mask sparsity (%):       8.3743
    Fitting Condition:        1E-10

   => Auxiliary Basis Set <=

  Basis Set: (DEF2-TZVPPD AUX)
    Blend: DEF2-UNIVERSAL-JKFIT
    Number of shells: 238
    Number of basis functions: 1074
    Number of Cartesian functions: 1528
    Spherical Harmonics?: true
    Max angular momentum: 6

  Cached 100.0% of DFT collocation blocks in 1.361 [GiB].

  Minimum eigenvalue in the overlap matrix is 5.2393104976E-04.
  Reciprocal condition number of the overlap matrix is 6.5156963386E-05.
    Using symmetric orthogonalization.

  ==> Pre-Iterations <==

  SCF Guess: Superposition of Atomic Densities via on-the-fly atomic UHF (no occupation information).

   -------------------------
    Irrep   Nso     Nmo    
   -------------------------
     A'       165     165 
     A"       120     120 
   -------------------------
    Total     285     285
   -------------------------

  ==> Iterations <==

                           Total Energy        Delta E     RMS |[F,P]|

   @DF-UKS iter SAD: -6556.30554260527242   -6.55631e+03   0.00000e+00 
    Occupation by irrep:
             Ap   App 
    DOCC [    37,   20 ]
    SOCC [     0,    1 ]

   @DF-UKS iter   1: -6551.13610308943862    5.16944e+00   4.19298e-02 DIIS
    Occupation by irrep:
             Ap   App 
    DOCC [    35,   22 ]
    SOCC [     1,    0 ]

   @DF-UKS iter   2: -6387.23685189304342    1.63899e+02   9.54942e-02 DIIS
   @DF-UKS iter   3: -6560.76247807736036   -1.73526e+02   1.24879e-02 DIIS
    Occupation by irrep:
             Ap   App 
    DOCC [    36,   21 ]
    SOCC [     1,    0 ]

   @DF-UKS iter   4: -6550.21988624800906    1.05426e+01   3.10306e-02 DIIS
    Occupation by irrep:
             Ap   App 
    DOCC [    35,   22 ]
    SOCC [     1,    0 ]

   @DF-UKS iter   5: -6550.05031613776919    1.69570e-01   3.41142e-02 DIIS
   @DF-UKS iter   6: -6562.49282297272111   -1.24425e+01   5.62870e-03 DIIS
   @DF-UKS iter   7: -6562.20283163978092    2.89991e-01   8.25278e-03 DIIS
   @DF-UKS iter   8: -6562.56826340139742   -3.65432e-01   5.33233e-03 DIIS
   @DF-UKS iter   9: -6562.75832316588458   -1.90060e-01   2.06564e-03 DIIS
   @DF-UKS iter  10: -6562.79685435749616   -3.85312e-02   8.64287e-04 DIIS
   @DF-UKS iter  11: -6562.80312696192777   -6.27260e-03   1.79922e-04 DIIS
   @DF-UKS iter  12: -6562.80342572151312   -2.98760e-04   5.79156e-05 DIIS
   @DF-UKS iter  13: -6562.80345439867597   -2.86772e-05   3.59819e-05 DIIS
   @DF-UKS iter  14: -6562.80346749847649   -1.30998e-05   1.11128e-05 DIIS
   @DF-UKS iter  15: -6562.80346880547768   -1.30700e-06   4.20035e-06 DIIS
   @DF-UKS iter  16: -6562.80346902570909   -2.20231e-07   1.07365e-06 DIIS
   @DF-UKS iter  17: -6562.80346904635189   -2.06428e-08   6.05383e-07 DIIS
  Energy and wave function converged.


  ==> Post-Iterations <==

   Electrons on quadrature grid:
      Nalpha   =   57.9999811476 ; deviation = -1.885e-05
      Nbeta    =   56.9999789777 ; deviation = -2.102e-05
      Ntotal   =  114.9999601253 ; deviation = -3.987e-05 

   @Spin Contamination Metric:   9.313915413E-03
   @S^2 Expected:                7.500000000E-01
   @S^2 Observed:                7.593139154E-01
   @S   Expected:                5.000000000E-01
   @S   Observed:                5.000000000E-01

    Orbital Energies [Eh]
    ---------------------

    Alpha Occupied:                                                       

       1Ap  -322.825667     1App -322.825654     2Ap  -322.825647  
       3Ap  -322.797071     4Ap   -39.081735     2App  -39.081727  
       5Ap   -39.081702     6Ap   -39.049395     7Ap   -34.264331  
       3App  -34.264324     8Ap   -34.264320     9Ap   -34.262250  
       4App  -34.262241    10Ap   -34.262238     5App  -34.260549  
       6App  -34.260535    11Ap   -34.260531    12Ap   -34.232611  
       7App  -34.230694    13Ap   -34.230691    14Ap    -4.705531  
      15Ap    -4.705183     8App   -4.705176    16Ap    -4.670841  
      17Ap    -3.179850    18Ap    -3.177361     9App   -3.177353  
      19Ap    -3.172437    20Ap    -3.172029    10App   -3.172018  
      11App   -3.168798    21Ap    -3.168797    12App   -3.167818  
      22Ap    -3.141193    23Ap    -3.137396    13App   -3.137392  
      24Ap    -0.814389    25Ap    -0.714099    26Ap    -0.672759  
      14App   -0.672752    27Ap    -0.666175    15App   -0.662575  
      28Ap    -0.662563    29Ap    -0.655653    30Ap    -0.647154  
      16App   -0.647137    17App   -0.642028    31Ap    -0.642015  
      32Ap    -0.636616    18App   -0.636582    19App   -0.634551  
      20App   -0.621306    33Ap    -0.615949    21App   -0.612624  
      34Ap    -0.612616    35Ap    -0.607426    22App   -0.607388  
      36Ap    -0.568028  

    Alpha Virtual:                                                        

      37Ap    -0.504386    23App   -0.504376    38Ap    -0.419907  
      39Ap    -0.382912    40Ap    -0.363777    24App   -0.363769  
      25App   -0.357398    41Ap    -0.357385    42Ap    -0.216059  
      43Ap    -0.208824    26App   -0.208775    44Ap    -0.208753  
      45Ap    -0.201076    27App   -0.201063    28App   -0.197710  
      46Ap    -0.163628    47Ap    -0.148775    48Ap    -0.142948  
      29App   -0.142941    49Ap    -0.135536    50Ap    -0.135015  
      30App   -0.134991    31App   -0.130120    51Ap    -0.130118  
      52Ap    -0.079676    32App   -0.075940    53Ap    -0.075927  
      33App   -0.069872    54Ap    -0.069870    34App   -0.066705  
      55Ap    -0.056384    56Ap    -0.037520    35App   -0.037507  
      57Ap    -0.026256    36App   -0.019954    58Ap    -0.019935  
      59Ap    -0.010835    37App   -0.010786    38App   -0.003858  
      60Ap     0.005736    61Ap     0.024338    62Ap     0.048124  
      39App    0.048140    40App    0.051996    63Ap     0.051998  
      64Ap     0.092185    41App    0.110936    65Ap     0.110944  
      66Ap     0.113737    42App    0.121247    67Ap     0.121252  
      43App    0.129953    68Ap     0.153288    44App    0.153809  
      69Ap     0.282932    70Ap     0.330558    71Ap     0.340126  
      45App    0.340127    46App    0.361799    72Ap     0.361831  
      73Ap     0.369734    74Ap     0.417117    47App    0.417268  
      75Ap     0.434966    76Ap     0.438590    48App    0.438594  
      77Ap     0.484413    49App    0.503309    78Ap     0.503316  
      50App    0.529644    51App    0.540330    79Ap     0.540438  
      80Ap     0.551177    81Ap     0.581088    52App    0.581196  
      53App    0.607445    82Ap     0.610647    54App    0.610705  
      83Ap     0.655066    55App    0.660549    84Ap     0.660567  
      85Ap     0.803670    56App    0.803747    86Ap     0.805440  
      87Ap     0.824633    57App    0.824756    58App    0.853103  
      88Ap     0.985290    59App    0.986074    89Ap     1.088592  
      90Ap     2.275570    60App    2.544942    91Ap     2.544962  
      92Ap     2.576835    93Ap     2.582753    61App    2.582880  
      94Ap     2.606721    95Ap     2.658070    62App    2.658259  
      96Ap     2.716291    63App    2.727789    97Ap     2.727865  
      64App    2.737071    98Ap     2.737084    65App    2.786462  
      99Ap     2.860699   100Ap     2.865338    66App    2.865374  
     101Ap     2.930438   102Ap     2.971468   103Ap     2.976665  
      67App    2.976673    68App    2.993682   104Ap     2.993867  
      69App    2.993901    70App    2.995340   105Ap     2.995421  
      71App    2.996344    72App    2.999791   106Ap     2.999802  
     107Ap     3.011943    73App    3.019539   108Ap     3.019544  
      74App    3.021725   109Ap     3.040989   110Ap     3.041243  
      75App    3.041284   111Ap     3.044466   112Ap     3.053188  
      76App    3.053205    77App    3.054689   113Ap     3.143758  
     114Ap     3.178060    78App    3.178065   115Ap     3.241700  
      79App    3.241740   116Ap     3.244939    80App    3.262687  
     117Ap     3.262718    81App    3.315977   118Ap     3.340594  
      82App    3.340602   119Ap     3.352123   120Ap     3.356810  
      83App    3.356844   121Ap     3.448865   122Ap     3.467709  
      84App    3.468282   123Ap     3.476152   124Ap     3.516971  
      85App    3.517034    86App    3.536395   125Ap     3.536397  
      87App    3.562236   126Ap     3.630868    88App    3.631206  
     127Ap     3.649247   128Ap     3.922524   129Ap     4.128292  
      89App    4.128524   130Ap     4.339384    90App    4.443830  
     131Ap     4.443928    91App   12.691098   132Ap    12.691281  
      92App   12.692202   133Ap    12.692603   134Ap    12.692903  
      93App   12.693072   135Ap    12.693926    94App   12.694078  
     136Ap    12.694538   137Ap    12.695379    95App   12.695450  
      96App   12.695533   138Ap    12.695553    97App   12.696329  
     139Ap    12.696483    98App   12.696773   140Ap    12.696911  
      99App   12.697197   141Ap    12.697617   100App   12.697721  
     142Ap    12.697898   101App   12.701541   143Ap    12.701661  
     102App   12.701820   144Ap    12.701845   103App   12.701919  
     145Ap    12.702005   146Ap    12.725652   147Ap    12.726112  
     104App   12.726566   148Ap    12.727745   105App   12.727898  
     106App   12.728843   149Ap    12.729562   150Ap    12.730343  
     107App   12.730365   108App   12.775445   109App   12.777099  
     151Ap    12.777452   152Ap    12.777859   110App   12.777866  
     153Ap    12.780740   111App   12.780769   154Ap    12.784522  
     112App   12.784531   155Ap    12.785791   113App   12.785800  
     156Ap    12.791942   114App   12.791947   157Ap    12.794234  
     158Ap    12.806986   115App   12.808554   159Ap    12.810391  
     116App   12.810423   160Ap    12.810836   161Ap    12.834449  
     162Ap    12.844519   117App   12.844552   118App   12.848486  
     163Ap    12.859761   119App   12.859778   120App   12.938527  
     164Ap    12.938537   165Ap    13.024274  

    Beta Occupied:                                                        

       1Ap  -322.825294     1App -322.825281     2Ap  -322.825274  
       3Ap  -322.796000     4Ap   -39.077264     2App  -39.077253  
       5Ap   -39.077229     6Ap   -39.052072     7Ap   -34.259982  
       3App  -34.259969     8Ap   -34.259966     4App  -34.259345  
       5App  -34.259328     9Ap   -34.259324    10Ap   -34.258513  
       6App  -34.258501    11Ap   -34.258498    12Ap   -34.234485  
       7App  -34.232230    13Ap   -34.232227    14Ap    -4.698593  
      15Ap    -4.698240     8App   -4.698228    16Ap    -4.674181  
      17Ap    -3.170141     9App   -3.168389    18Ap    -3.168385  
      19Ap    -3.166862    10App   -3.166848    11App   -3.166686  
      20Ap    -3.163744    21Ap    -3.163316    12App   -3.163298  
      22Ap    -3.145364    23Ap    -3.139916    13App   -3.139914  
      24Ap    -0.799519    25Ap    -0.699661    26Ap    -0.671287  
      14App   -0.671273    27Ap    -0.661966    15App   -0.655032  
      28Ap    -0.655016    29Ap    -0.652136    30Ap    -0.646039  
      16App   -0.646025    31Ap    -0.634583    17App   -0.634551  
      18App   -0.631586    19App   -0.625567    32Ap    -0.625562  
      20App   -0.618695    33Ap    -0.612259    21App   -0.611086  
      34Ap    -0.611077    35Ap    -0.605547    22App   -0.605503  

    Beta Virtual:                                                         

      36Ap    -0.536300    37Ap    -0.496673    23App   -0.496660  
      38Ap    -0.406322    39Ap    -0.374287    40Ap    -0.355196  
      24App   -0.355189    25App   -0.345203    41Ap    -0.345192  
      42Ap    -0.210161    26App   -0.202202    43Ap    -0.202192  
      44Ap    -0.198792    27App   -0.198790    28App   -0.195784  
      45Ap    -0.195420    46Ap    -0.162451    47Ap    -0.146876  
      29App   -0.139594    48Ap    -0.139592    30App   -0.133115  
      49Ap    -0.133112    50Ap    -0.132909    31App   -0.128332  
      51Ap    -0.128324    52Ap    -0.075192    32App   -0.074500  
      53Ap    -0.074492    33App   -0.066875    54Ap    -0.066873  
      34App   -0.065844    55Ap    -0.052525    35App   -0.037869  
      56Ap    -0.037869    57Ap    -0.024576    58Ap    -0.019399  
      36App   -0.019399    37App   -0.008900    59Ap    -0.008893  
      38App   -0.004300    60Ap     0.007536    61Ap     0.030651  
      62Ap     0.049945    39App    0.049947    40App    0.054206  
      63Ap     0.054216    64Ap     0.086887    65Ap     0.110927  
      41App    0.110934    66Ap     0.114312    42App    0.124645  
      67Ap     0.124662    43App    0.131291    68Ap     0.148569  
      44App    0.148599    69Ap     0.280146    70Ap     0.334974  
      71Ap     0.340738    45App    0.340785    46App    0.359791  
      72Ap     0.359812    73Ap     0.368928    47App    0.413569  
      74Ap     0.413597    75Ap     0.437304    48App    0.439762  
      76Ap     0.439763    77Ap     0.486114    49App    0.505473  
      78Ap     0.505486    50App    0.527228    79Ap     0.538737  
      51App    0.538758    80Ap     0.560327    52App    0.581215  
      81Ap     0.581257    53App    0.608978    54App    0.613057  
      82Ap     0.613065    83Ap     0.654784    55App    0.664460  
      84Ap     0.664496    85Ap     0.806343    56App    0.806504  
      86Ap     0.813149    87Ap     0.829603    57App    0.829607  
      58App    0.854726    59App    1.002409    88Ap     1.002425  
      89Ap     1.096560    90Ap     2.320693    60App    2.555813  
      91Ap     2.555915    92Ap     2.579670    93Ap     2.591220  
      61App    2.591245    94Ap     2.634094    95Ap     2.678451  
      62App    2.678620    96Ap     2.730120    63App    2.737982  
      97Ap     2.737997    64App    2.748939    98Ap     2.748995  
      65App    2.788258    99Ap     2.862832   100Ap     2.868885  
      66App    2.868970   101Ap     2.937828   102Ap     2.973807  
     103Ap     2.980159    67App    2.980163    68App    2.997222  
     104Ap     2.997226    69App    2.998902    70App    3.000237  
      71App    3.000482   105Ap     3.000498    72App    3.002716  
     106Ap     3.002739   107Ap     3.015030    73App    3.021951  
     108Ap     3.021956    74App    3.024066   109Ap     3.043421  
     110Ap     3.045769    75App    3.045824   111Ap     3.046454  
      76App    3.056094   112Ap     3.056459    77App    3.056496  
     113Ap     3.146217   114Ap     3.179949    78App    3.179960  
     115Ap     3.243633    79App    3.243643   116Ap     3.280586  
      80App    3.283768   117Ap     3.283815    81App    3.319255  
     118Ap     3.350618    82App    3.350741   119Ap     3.363583  
      83App    3.363654   120Ap     3.372317   121Ap     3.464834  
     122Ap     3.492729   123Ap     3.494256    84App    3.494392  
     124Ap     3.531531    85App    3.531757   125Ap     3.542753  
      86App    3.542790    87App    3.565108   126Ap     3.648602  
      88App    3.648696   127Ap     3.670533   128Ap     3.927385  
     129Ap     4.167936    89App    4.168050   130Ap     4.412650  
     131Ap     4.499227    90App    4.499681   132Ap    12.697946  
     133Ap    12.697979    91App   12.698000    92App   12.698250  
      93App   12.699134   134Ap    12.699190    94App   12.700988  
      95App   12.701215   135Ap    12.701536    96App   12.701672  
     136Ap    12.701750   137Ap    12.702424   138Ap    12.702727  
      97App   12.702791    98App   12.703566   139Ap    12.704511  
      99App   12.704719   140Ap    12.704768   141Ap    12.705654  
     100App   12.705899   142Ap    12.706060   101App   12.706219  
     143Ap    12.706275   102App   12.706485   144Ap    12.707444  
     103App   12.707555   145Ap    12.707629   146Ap    12.726392  
     147Ap    12.727229   104App   12.727263   148Ap    12.728182  
     105App   12.728289   106App   12.729586   149Ap    12.730361  
     150Ap    12.734331   107App   12.734333   151Ap    12.779859  
     108App   12.781505   109App   12.782420   152Ap    12.782425  
     153Ap    12.785053   110App   12.785086   111App   12.787300  
     112App   12.787799   154Ap    12.787804   155Ap    12.791943  
     113App   12.791958   156Ap    12.798293   157Ap    12.801979  
     114App   12.801991   158Ap    12.808971   115App   12.808993  
     159Ap    12.810073   116App   12.810802   160Ap    12.811292  
     161Ap    12.843894   162Ap    12.846892   117App   12.846931  
     118App   12.849589   163Ap    12.862918   119App   12.862938  
     164Ap    12.951228   120App   12.951230   165Ap    13.036971  

    Final Occupation by Irrep:
             Ap   App 
    DOCC [    35,   22 ]
    SOCC [     1,    0 ]

  @DF-UKS Final Energy: -6562.80346904635189

   => Energetics <=

    Nuclear Repulsion Energy =           1119.9202327796770078
    One-Electron Energy =              -11340.1910783039165835
    Two-Electron Energy =                3927.0508022038593481
    DFT Exchange-Correlation Energy =    -269.5823103059714185
    Empirical Dispersion Energy =          -0.0011154200000000
    VV10 Nonlocal Energy =                  0.0000000000000000
    Total Energy =                      -6562.8034690463509833

  UHF NO Occupations:
  HONO-2 :   22App 1.9986405
  HONO-1 :   35 Ap 1.9986379
  HONO-0 :   36 Ap 1.0000000
  LUNO+0 :   37 Ap 0.0013621
  LUNO+1 :   23App 0.0013595
  LUNO+2 :   38 Ap 0.0011189
  LUNO+3 :   39 Ap 0.0001790


Computation Completed


Properties will be evaluated at   0.000000,   0.000000,   0.000000 [a0]

Properties computed using the SCF density matrix

  Nuclear Dipole Moment: [e a0]
     X:    -0.0000      Y:     1.5934      Z:     0.0000

  Electronic Dipole Moment: [e a0]
     X:    -0.0002      Y:    -1.4784      Z:     0.0000

  Dipole Moment: [e a0]
     X:    -0.0002      Y:     0.1150      Z:     0.0000     Total:     0.1150

  Dipole Moment: [D]
     X:    -0.0004      Y:     0.2924      Z:     0.0000     Total:     0.2924


*** tstop() called on compute495.bc4.acrc.priv at Tue Nov  2 11:11:33 2021
Module time:
	user time   =    1746.70 seconds =      29.11 minutes
	system time =      71.92 seconds =       1.20 minutes
	total time  =         71 seconds =       1.18 minutes
Total time:
	user time   =    1746.70 seconds =      29.11 minutes
	system time =      71.92 seconds =       1.20 minutes
	total time  =         71 seconds =       1.18 minutes

    Psi4 stopped on: Tuesday, 02 November 2021 11:11AM
    Psi4 wall time for execution: 0:01:10.44

*** Psi4 exiting successfully. Buy a developer a beer!
