
    -----------------------------------------------------------------------
          Psi4: An Open-Source Ab Initio Electronic Structure Package
                               Psi4 1.4.1 release

                         Git: Rev {HEAD} cd00f19 


    D. G. A. Smith, L. A. Burns, A. C. Simmonett, R. M. Parrish,
    M. C. Schieber, R. Galvelis, P. Kraus, H. Kruse, R. Di Remigio,
    A. Alenaizan, A. M. James, S. Lehtola, J. P. Misiewicz, M. Scheurer,
    R. A. Shaw, J. B. Schriber, Y. Xie, Z. L. Glick, D. A. Sirianni,
    J. S. O'Brien, J. M. Waldrop, A. Kumar, E. G. Hohenstein,
    B. P. Pritchard, B. R. Brooks, H. F. Schaefer III, A. Yu. Sokolov,
    K. Patkowski, A. E. DePrince III, U. Bozkaya, R. A. King,
    F. A. Evangelista, J. M. Turney, T. D. Crawford, C. D. Sherrill,
    J. Chem. Phys. 152(18) 184108 (2020). https://doi.org/10.1063/5.0006002

                            Additional Code Authors
    E. T. Seidl, C. L. Janssen, E. F. Valeev, M. L. Leininger,
    J. F. Gonthier, R. M. Richard, H. R. McAlexander, M. Saitow, X. Wang,
    P. Verma, and M. H. Lechner

             Previous Authors, Complete List of Code Contributors,
                       and Citations for Specific Modules
    https://github.com/psi4/psi4/blob/master/codemeta.json
    https://github.com/psi4/psi4/graphs/contributors
    http://psicode.org/psi4manual/master/introduction.html#citing-psifour

    -----------------------------------------------------------------------


    Psi4 started on: Tuesday, 02 November 2021 11:11AM

    Process ID: 13856
    Host:       compute130.bc4.acrc.priv
    PSIDATADIR: /mnt/storage/home/zw18965/.conda/envs/p4env/share/psi4
    Memory:     500.0 MiB
    Threads:    28
    
  ==> Input File <==

--------------------------------------------------------------------------
memory 144 GB

molecule {
0 1
N       -0.000000    0.125670    0.000000 
H       -0.933163   -0.293418    0.000000 
H        0.466582   -0.293138    0.808252 
H        0.466582   -0.293138   -0.808252 
 }

set basis Def2-TZVPPD

energy("SCAN-D3BJ")
--------------------------------------------------------------------------

  Memory set to 134.110 GiB by Python driver.

Scratch directory: /tmp/

*** tstart() called on compute130.bc4.acrc.priv
*** at Tue Nov  2 11:11:00 2021

   => Loading Basis Set <=

    Name: DEF2-TZVPPD
    Role: ORBITAL
    Keyword: BASIS
    atoms 1   entry N          line   181 file /mnt/storage/home/zw18965/.conda/envs/p4env/share/psi4/basis/def2-tzvppd.gbs 
    atoms 2-4 entry H          line    14 file /mnt/storage/home/zw18965/.conda/envs/p4env/share/psi4/basis/def2-tzvppd.gbs 

   => SCAN-D3(BJ): Empirical Dispersion <=

    Grimme's -D3 (BJ-damping) Dispersion Correction
    Grimme S.; Ehrlich S.; Goerigk L. (2011), J. Comput. Chem., 32: 1456
    Parametrisation from:    J.G. Brandenburg, J. E. Bates, J. Sun, J.P. Perdew, Phys. Rev. B 94, 115144, 2016

        s6 =       1.000000
        s8 =       0.000000
        a1 =       0.538000
        a2 =       5.420000


         ---------------------------------------------------------
                                   SCF
               by Justin Turney, Rob Parrish, Andy Simmonett
                          and Daniel G. A. Smith
                              RKS Reference
                       28 Threads, 137329 MiB Core
         ---------------------------------------------------------

  ==> Geometry <==

    Molecular point group: cs
    Full point group: Cs

    Geometry (in Angstrom), charge = 0, multiplicity = 1:

       Center              X                  Y                   Z               Mass       
    ------------   -----------------  -----------------  -----------------  -----------------
         N           -0.000000059191     0.074386050971     0.000000000000    14.003074004430
         H           -0.933163059191    -0.344701949029     0.000000000000     1.007825032230
         H            0.466581940809    -0.344421949029     0.808252000000     1.007825032230
         H            0.466581940809    -0.344421949029    -0.808252000000     1.007825032230

  Running in cs symmetry.

  Rotational constants: A =      9.61780  B =      9.61585  C =      6.40201 [cm^-1]
  Rotational constants: A = 288334.35503  B = 288276.04109  C = 191927.39317 [MHz]
  Nuclear repulsion =   11.845742920749892

  Charge       = 0
  Multiplicity = 1
  Electrons    = 10
  Nalpha       = 5
  Nbeta        = 5

  ==> Algorithm <==

  SCF Algorithm Type is DF.
  DIIS enabled.
  MOM disabled.
  Fractional occupation disabled.
  Guess Type is SAD.
  Energy threshold   = 1.00e-06
  Density threshold  = 1.00e-06
  Integral threshold = 1.00e-12

  ==> Primary Basis <==

  Basis Set: DEF2-TZVPPD
    Blend: DEF2-TZVPPD
    Number of shells: 34
    Number of basis functions: 88
    Number of Cartesian functions: 97
    Spherical Harmonics?: true
    Max angular momentum: 3

  ==> DFT Potential <==

   => Composite Functional: SCAN-D3BJ <= 

    SCAN Meta-GGA XC Functional
(10.1103/PhysRevLett.115.036402)
    J. Sun, A. Ruzsinszky, J. P. Perdew  Phys. Rev. Lett. 115, 036402, 2015


    Deriv               =              1
    GGA                 =           TRUE
    Meta                =           TRUE

    Exchange Hybrid     =          FALSE
    MP2 Hybrid          =          FALSE

   => Exchange Functionals <=

    1.0000   XC_MGGA_X_SCAN

   => Correlation Functionals <=

    1.0000   XC_MGGA_C_SCAN

   => LibXC Density Thresholds  <==

    XC_MGGA_C_SCAN:  1.00E-15 
    XC_MGGA_X_SCAN:  1.00E-15 

   => Molecular Quadrature <=

    Radial Scheme          =       TREUTLER
    Pruning Scheme         =           NONE
    Nuclear Scheme         =       TREUTLER

    BS radius alpha        =              1
    Pruning alpha          =              1
    Radial Points          =             75
    Spherical Points       =            302
    Total Points           =          88342
    Total Blocks           =            714
    Max Points             =            255
    Max Functions          =             88
    Weights Tolerance      =       1.00E-15

   => Loading Basis Set <=

    Name: (DEF2-TZVPPD AUX)
    Role: JKFIT
    Keyword: DF_BASIS_SCF
    atoms 1   entry N          line   258 file /mnt/storage/home/zw18965/.conda/envs/p4env/share/psi4/basis/def2-universal-jkfit.gbs 
    atoms 2-4 entry H          line    18 file /mnt/storage/home/zw18965/.conda/envs/p4env/share/psi4/basis/def2-universal-jkfit.gbs 

  ==> Integral Setup <==

  DFHelper Memory: AOs need 0.011 GiB; user supplied 100.032 GiB. Using in-core AOs.

  ==> MemDFJK: Density-Fitted J/K Matrices <==

    J tasked:                   Yes
    K tasked:                    No
    wK tasked:                   No
    OpenMP threads:              28
    Memory [MiB]:            102432
    Algorithm:                 Core
    Schwarz Cutoff:           1E-12
    Mask sparsity (%):       0.0000
    Fitting Condition:        1E-10

   => Auxiliary Basis Set <=

  Basis Set: (DEF2-TZVPPD AUX)
    Blend: DEF2-UNIVERSAL-JKFIT
    Number of shells: 43
    Number of basis functions: 131
    Number of Cartesian functions: 153
    Spherical Harmonics?: true
    Max angular momentum: 4

  Cached 100.0% of DFT collocation blocks in 0.551 [GiB].

  Minimum eigenvalue in the overlap matrix is 3.4469453826E-04.
  Reciprocal condition number of the overlap matrix is 4.7324818716E-05.
    Using symmetric orthogonalization.

  ==> Pre-Iterations <==

  SCF Guess: Superposition of Atomic Densities via on-the-fly atomic UHF (no occupation information).

   -------------------------
    Irrep   Nso     Nmo    
   -------------------------
     A'        54      54 
     A"        34      34 
   -------------------------
    Total      88      88
   -------------------------

  ==> Iterations <==

                           Total Energy        Delta E     RMS |[F,P]|

   @DF-RKS iter SAD:   -56.14476445861887   -5.61448e+01   0.00000e+00 
   @DF-RKS iter   1:   -56.27878025761679   -1.34016e-01   1.30505e-02 DIIS
   @DF-RKS iter   2:   -55.73870347171305    5.40077e-01   1.95302e-02 DIIS
   @DF-RKS iter   3:   -56.54946690913954   -8.10763e-01   1.72591e-03 DIIS
   @DF-RKS iter   4:   -56.55615871761105   -6.69181e-03   2.18876e-04 DIIS
   @DF-RKS iter   5:   -56.55624002270424   -8.13051e-05   6.42411e-05 DIIS
   @DF-RKS iter   6:   -56.55624679934943   -6.77665e-06   4.40265e-06 DIIS
   @DF-RKS iter   7:   -56.55624682566553   -2.63161e-08   7.71952e-07 DIIS
  Energy and wave function converged.


  ==> Post-Iterations <==

   Electrons on quadrature grid:
      Ntotal   =    9.9999979719 ; deviation = -2.028e-06 

    Orbital Energies [Eh]
    ---------------------

    Doubly Occupied:                                                      

       1Ap   -14.129987     2Ap    -0.819618     1App   -0.423288  
       3Ap    -0.423242     4Ap    -0.243361  

    Virtual:                                                              

       5Ap     0.016773     6Ap     0.104135     2App    0.104157  
       7Ap     0.156150     3App    0.162527     8Ap     0.162549  
       9Ap     0.210207    10Ap     0.213492     4App    0.213537  
      11Ap     0.273635    12Ap     0.312890     5App    0.312925  
       6App    0.342772     7App    0.412270    13Ap     0.412366  
      14Ap     0.442774    15Ap     0.470780     8App    0.470800  
      16Ap     0.598459    17Ap     0.617415    18Ap     0.653593  
       9App    0.653717    10App    0.729975    19Ap     0.729998  
      20Ap     0.873575    11App    0.982415    21Ap     0.982469  
      12App    1.104024    22Ap     1.122507    13App    1.244774  
      23Ap     1.244818    24Ap     1.287400    14App    1.287493  
      25Ap     1.456400    26Ap     1.616039    15App    1.667029  
      27Ap     1.667206    16App    1.828012    28Ap     1.828090  
      29Ap     2.285554    30Ap     2.540965    17App    2.541014  
      31Ap     2.606107    32Ap     2.828554    33Ap     2.980542  
      18App    2.980554    34Ap     3.154506    19App    3.327115  
      20App    3.381057    35Ap     3.381088    21App    3.410523  
      36Ap     3.410600    22App    3.592897    23App    3.603823  
      37Ap     3.603914    38Ap     3.942750    24App    3.967042  
      39Ap     3.967115    40Ap     4.071828    25App    4.075164  
      41Ap     4.075387    26App    4.276674    42Ap     4.276705  
      27App    4.558503    43Ap     4.597868    28App    4.597899  
      44Ap     4.633187    45Ap     4.896436    46Ap     5.039418  
      29App    5.039547    47Ap     5.395122    30App    5.395592  
      48Ap     5.429856    49Ap     5.655950    31App    6.028344  
      50Ap     6.049264    32App    6.049642    51Ap     6.177188  
      33App    6.177478    52Ap     6.632749    34App    6.853786  
      53Ap     6.853870    54Ap    32.742720  

    Final Occupation by Irrep:
             Ap   App 
    DOCC [     4,    1 ]

  @DF-RKS Final Energy:   -56.55624682566553

   => Energetics <=

    Nuclear Repulsion Energy =             11.8457429207498919
    One-Electron Energy =                 -99.5095624579466147
    Two-Electron Energy =                  39.1001691198606949
    DFT Exchange-Correlation Energy =      -7.9924276483294916
    Empirical Dispersion Energy =          -0.0001687600000000
    VV10 Nonlocal Energy =                  0.0000000000000000
    Total Energy =                        -56.5562468256655251

Computation Completed


Properties will be evaluated at   0.000000,   0.000000,   0.000000 [a0]

Properties computed using the SCF density matrix

  Nuclear Dipole Moment: [e a0]
     X:     0.0000      Y:    -0.9691      Z:     0.0000

  Electronic Dipole Moment: [e a0]
     X:     0.0000      Y:     0.3373      Z:     0.0000

  Dipole Moment: [e a0]
     X:     0.0000      Y:    -0.6318      Z:     0.0000     Total:     0.6318

  Dipole Moment: [D]
     X:     0.0001      Y:    -1.6059      Z:     0.0000     Total:     1.6059


*** tstop() called on compute130.bc4.acrc.priv at Tue Nov  2 11:11:03 2021
Module time:
	user time   =      26.10 seconds =       0.43 minutes
	system time =       2.56 seconds =       0.04 minutes
	total time  =          3 seconds =       0.05 minutes
Total time:
	user time   =      26.10 seconds =       0.43 minutes
	system time =       2.56 seconds =       0.04 minutes
	total time  =          3 seconds =       0.05 minutes

    Psi4 stopped on: Tuesday, 02 November 2021 11:11AM
    Psi4 wall time for execution: 0:00:03.00

*** Psi4 exiting successfully. Buy a developer a beer!
