
                                 *****************
                                 * O   R   C   A *
                                 *****************

           --- An Ab Initio, DFT and Semiempirical electronic structure package ---

                  #######################################################
                  #                        -***-                        #
                  #          Department of theory and spectroscopy      #
                  #               Directorship: Frank Neese             #
                  #        Max Planck Institute fuer Kohlenforschung    #
                  #                Kaiser Wilhelm Platz 1               #
                  #                 D-45470 Muelheim/Ruhr               #
                  #                      Germany                        #
                  #                                                     #
                  #                  All rights reserved                #
                  #                        -***-                        #
                  #######################################################


                         Program Version 4.2.0 -  RELEASE  -


 With contributions from (in alphabetic order):
   Daniel Aravena         : Magnetic Suceptibility
   Michael Atanasov       : Ab Initio Ligand Field Theory (pilot matlab implementation)
   Alexander A. Auer      : GIAO ZORA, VPT2
   Ute Becker             : Parallelization
   Giovanni Bistoni       : ED, misc. LED, open-shell LED, HFLED
   Martin Brehm           : Molecular dynamics
   Dmytro Bykov           : SCF Hessian
   Vijay G. Chilkuri      : MRCI spin determinant printing, contributions to CSF-ICE
   Dipayan Datta          : RHF DLPNO-CCSD density
   Achintya Kumar Dutta   : EOM-CC, STEOM-CC
   Dmitry Ganyushin       : Spin-Orbit,Spin-Spin,Magnetic field MRCI
   Miquel Garcia          : C-PCM Hessian, Gaussian charge scheme
   Yang Guo               : DLPNO-NEVPT2, CIM, IAO-localization
   Andreas Hansen         : Spin unrestricted coupled pair/coupled cluster methods
   Benjamin Helmich-Paris : CASSCF linear response (MC-RPA)
   Lee Huntington         : MR-EOM, pCC
   Robert Izsak           : Overlap fitted RIJCOSX, COSX-SCS-MP3, EOM
   Christian Kollmar      : KDIIS, OOCD, Brueckner-CCSD(T), CCSD density
   Simone Kossmann        : Meta GGA functionals, TD-DFT gradient, OOMP2, MP2 Hessian
   Martin Krupicka        : AUTO-CI
   Lucas Lang             : DCDCAS
   Dagmar Lenk            : GEPOL surface, SMD
   Dimitrios Liakos       : Extrapolation schemes; Compound Job, initial MDCI parallelization
   Dimitrios Manganas     : Further ROCIS development; embedding schemes
   Dimitrios Pantazis     : SARC Basis sets
   Taras Petrenko         : DFT Hessian,TD-DFT gradient, ASA, ECA, R-Raman, ABS, FL, XAS/XES, NRVS
   Peter Pinski           : DLPNO-MP2, DLPNO-MP2 Gradient
   Christoph Reimann      : Effective Core Potentials
   Marius Retegan         : Local ZFS, SOC
   Christoph Riplinger    : Optimizer, TS searches, QM/MM, DLPNO-CCSD(T), (RO)-DLPNO pert. Triples
   Tobias Risthaus        : Range-separated hybrids, TD-DFT gradient, RPA, STAB
   Michael Roemelt        : Original ROCIS implementation
   Masaaki Saitow         : Open-shell DLPNO-CCSD energy and density
   Barbara Sandhoefer     : DKH picture change effects
   Avijit Sen             : IP-ROCIS
   Kantharuban Sivalingam : CASSCF convergence, NEVPT2, FIC-MRCI
   Bernardo de Souza      : ESD, SOC TD-DFT
   Georgi Stoychev        : AutoAux, RI-MP2 NMR
   Willem Van den Heuvel  : Paramagnetic NMR
   Boris Wezisla          : Elementary symmetry handling
   Frank Wennmohs         : Technical directorship


 We gratefully acknowledge several colleagues who have allowed us to
 interface, adapt or use parts of their codes:
   Stefan Grimme, W. Hujo, H. Kruse,             : VdW corrections, initial TS optimization,
                  C. Bannwarth                     DFT functionals, gCP, sTDA/sTD-DF
   Ed Valeev, F. Pavosevic, A. Kumar             : LibInt (2-el integral package), F12 methods
   Garnet Chan, S. Sharma, J. Yang, R. Olivares  : DMRG
   Ulf Ekstrom                                   : XCFun DFT Library
   Mihaly Kallay                                 : mrcc  (arbitrary order and MRCC methods)
   Andreas Klamt, Michael Diedenhofen            : otool_cosmo (COSMO solvation model)
   Jiri Pittner, Ondrej Demel                    : Mk-CCSD
   Frank Weinhold                                : gennbo (NPA and NBO analysis)
   Christopher J. Cramer and Donald G. Truhlar   : smd solvation model
   Lars Goerigk                                  : TD-DFT with DH, B97 family of functionals
   V. Asgeirsson, H. Jonsson                     : NEB implementation
   FAccTs GmbH                                   : IRC, NEB, NEB-TS, Multilevel, MM, QM/MM, CI optimization
   S Lehtola, MJT Oliveira, MAL Marques          : LibXC Library


 Your calculation uses the libint2 library for the computation of 2-el integrals
 For citations please refer to: http://libint.valeyev.net

 Your ORCA version has been built with support for libXC version: 4.2.3
 For citations please refer to: https://tddft.org/programs/libxc/

 This ORCA versions uses:
   CBLAS   interface :  Fast vector & matrix operations
   LAPACKE interface :  Fast linear algebra routines
   SCALAPACK package :  Parallel linear algebra routines


Your calculation utilizes the atom-pairwise dispersion correction
with the Becke-Johnson damping scheme (D3BJ)
Cite in your paper:
S.Grimme, S.Ehrlich, L.Goerigk, J Comput Chem, (2011), 32, 1456–1465 
S.Grimme, J.Antony, S.Ehrlich and H.Krieg, J.Chem.Phys., 132, (2010), 154104 
   

----- Orbital basis set information -----
Your calculation utilizes the basis: def2-TZVPPD
   F. Weigend and R. Ahlrichs, Phys. Chem. Chem. Phys. 7, 3297 (2005).
   D. Rappoport and F. Furche, J. Chem. Phys. 133 134105 (2010).

----- AuxC basis set information -----
Your calculation utilizes the auxiliary basis: def2-TZVPPD/C
   A. Hellweg, C. Hattig, S. Hofener and W. Klopper, Theor. Chem. Acc. 117, 587 (2007).

----- AuxJK basis set information -----
Your calculation utilizes the auxiliary basis: def2/JK
   H-Ba, Hf-Rn: F. Weigend, J. Comput. Chem. 29, 167 (2008).

cite the ECPs for Ag [Def2-ECP] as follows:
Ce-Yb(ecp-28): M. Dolg, H. Stoll, H.Preuss, J. Chem. Phys., 1989, 90, 1730-1734.
Y-Cd(ecp-28), Hf-Hg(ecp-46): D. Andrae,U. Haeussermann, M. Dolg, H. Stoll, H. Preuss, Theor. Chim. Acta, 1990, 77, 123-141.
In-Sb(ecp-28), Tl-Bi(ecp-46): B. Metz, H. Stoll, M. Dolg, J. Chem. Phys., 2000, 113, 2563-2569.
Te-Xe(ecp-28), Po-Rn(ecp-46): K. A. Peterson, D. Figgen, E. Goll, H. Stoll, M. Dolg, J. Chem. Phys., 2003, 119, 11113-11123.
Rb(ecp-28), Cs(ecp-46): T. Leininger, A. Nicklass, W. Kuechle, H. Stoll, M. Dolg, A. Bergner, Chem. Phys. Lett., 1996, 255, 274-280.
Sr(ecp-28), Ba(ecp-46): M. Kaupp, P. V. Schleyer, H. Stoll and H. Preuss, J. Chem. Phys., 1991, 94, 1360-1366.
La(ecp-46): M. Dolg, H. Stoll, A. Savin, H. Preuss, Theor. Chim. Acta, 1989, 75, 173-194.
Lu(ecp-28): X. Cao, M. Dolg, J. Chem. Phys., 2001, 115, 7348-7355.

ECP parameters for Ag [Def2-ECP] have been obtained from:
TURBOMOLE (7.0.2)

================================================================================
                                        WARNINGS
                       Please study these warnings very carefully!
================================================================================


WARNING: No MP2 level density has been requested!
         To caclulate MP2 level properties use
         %mp2 Density relaxed end
         or
         %mp2 Density unrelaxed end
         Otherwise for double-hybrid DFT only the energy is correct!

WARNING: The frozen-core approximation is turned on by default for 
         the MP2 part of double-hybrid DFT.

INFO   : the flag for use of LIBINT has been found!

================================================================================
                                       INPUT FILE
================================================================================
NAME = Ag02N0.in
|  1> #
|  2> # Ag02N0 ri-B2PLYP-D3BJ/Def2-TZVPPD
|  3> #
|  4> ! rijk ri-b2plyp d3bj def2-tzvppd def2/jk def2-tzvppd/c grid4 nofinalgrid
|  5> 
|  6> *xyz 0 1
|  7> Ag       0.000000    0.000000    1.261821 
|  8> Ag       0.000000    0.000000   -1.261821 
|  9> *
| 10> 
| 11> %maxcore 5000
| 12> 
| 13> %pal
| 14> nprocs = 24
| 15> end
| 16> 
| 17> 
| 18>                          ****END OF INPUT****
================================================================================

                       ****************************
                       * Single Point Calculation *
                       ****************************

---------------------------------
CARTESIAN COORDINATES (ANGSTROEM)
---------------------------------
  Ag     0.000000    0.000000    1.261821
  Ag     0.000000    0.000000   -1.261821

----------------------------
CARTESIAN COORDINATES (A.U.)
----------------------------
  NO LB      ZA    FRAG     MASS         X           Y           Z
   0 Ag   19.0000*   0   107.870    0.000000    0.000000    2.384496
   1 Ag   19.0000*   0   107.870    0.000000    0.000000   -2.384496
* core charge reduced due to ECP

--------------------------------
INTERNAL COORDINATES (ANGSTROEM)
--------------------------------
 Ag     0   0   0     0.000000000000     0.00000000     0.00000000
 Ag     1   0   0     2.523642000000     0.00000000     0.00000000

---------------------------
INTERNAL COORDINATES (A.U.)
---------------------------
 Ag     0   0   0     0.000000000000     0.00000000     0.00000000
 Ag     1   0   0     4.768992240061     0.00000000     0.00000000

---------------------
BASIS SET INFORMATION
---------------------
There are 1 groups of distinct atoms

 Group   1 Type Ag  : 7s7p6d2f1g contracted to 6s4p3d2f1g pattern {211111/4111/411/11/1}

Atom   0Ag   basis set group =>   1
Atom   1Ag   basis set group =>   1
---------------------------------
AUXILIARY/C BASIS SET INFORMATION
---------------------------------
There are 1 groups of distinct atoms

 Group   1 Type Ag  : 8s7p6d5f4g3h1i contracted to 8s7p6d5f4g3h1i pattern {11111111/1111111/111111/11111/1111/111/1}

Atom   0Ag   basis set group =>   1
Atom   1Ag   basis set group =>   1
----------------------------------
AUXILIARY/JK BASIS SET INFORMATION
----------------------------------
There are 1 groups of distinct atoms

 Group   1 Type Ag  : 13s12p10d9f6g3h2i contracted to 11s10p9d8f6g3h2i pattern {31111111111/3111111111/211111111/21111111/111111/111/11}

Atom   0Ag   basis set group =>   1
Atom   1Ag   basis set group =>   1
-------------------------
ECP PARAMETER INFORMATION
-------------------------

 Group 1, Type Ag ECP Def2-ECP (replacing 28 core electrons, lmax=3)

Atom   0Ag   ECP group =>   1
Atom   1Ag   ECP group =>   1



           ************************************************************
           *        Program running with 24 parallel MPI-processes    *
           *              working on a common directory               *
           ************************************************************
------------------------------------------------------------------------------
                           ORCA GTO INTEGRAL CALCULATION
                           -- RI-GTO INTEGRALS CHOSEN --
------------------------------------------------------------------------------

                         BASIS SET STATISTICS AND STARTUP INFO

Gaussian basis set:
 # of primitive gaussian shells          ...   46
 # of primitive gaussian functions       ...  162
 # of contracted shells                  ...   32
 # of contracted basis functions         ...  112
 Highest angular momentum                ...    4
 Maximum contraction depth               ...    4
Auxiliary gaussian basis set:
 # of primitive gaussian shells          ...  110
 # of primitive gaussian functions       ...  550
 # of contracted shells                  ...   98
 # of contracted aux-basis functions     ...  510
 Highest angular momentum                ...    6
 Maximum contraction depth               ...    3
Ratio of auxiliary to basis functions    ...  4.55
Integral package used                  ... LIBINT
 One Electron integrals                  
   ECP integrals                         ... done
 Ordering auxiliary basis shells         ... done
 Integral threshhold             Thresh  ...  1.000e-10
 Primitive cut-off               TCut    ...  1.000e-11
 Pre-screening matrix                    ... done
 Shell pair data                         ... 
 Ordering of the shell pairs             ... done (   0.000 sec) 518 of 528 pairs
 Determination of significant pairs      ... done (   0.000 sec)
 Creation of shell pair data             ... done (   0.000 sec)
 Storage of shell pair data              ... done (   0.009 sec)
 Shell pair data done in (   0.009 sec)
 Computing two index integrals           ... done
 Cholesky decomposition of the V-matrix  ... done


Timings:
 Total evaluation time                   ...   0.498 sec (  0.008 min)
 One electron matrix time                ...   0.158 sec (  0.003 min) = 31.7%
 Schwartz matrix evaluation time         ...   0.121 sec (  0.002 min) = 24.3%
 Two index repulsion integral time       ...   0.090 sec (  0.002 min) = 18.1%
 Cholesky decomposition of V             ...   0.077 sec (  0.001 min) = 15.5%
 Three index repulsion integral time     ...   0.000 sec (  0.000 min) =  0.0%



           ************************************************************
           *        Program running with 24 parallel MPI-processes    *
           *              working on a common directory               *
           ************************************************************
-------------------------------------------------------------------------------
                                 ORCA SCF
-------------------------------------------------------------------------------

------------
SCF SETTINGS
------------
Hamiltonian:
 Density Functional     Method          .... DFT(GTOs)
 Exchange Functional    Exchange        .... B88
   X-Alpha parameter    XAlpha          ....  0.666667
   Becke's b parameter  XBeta           ....  0.004200
 Correlation Functional Correlation     .... LYP
 LDA part of GGA corr.  LDAOpt          .... VWN-3
 Gradients option       PostSCFGGA      .... off
 Hybrid DFT is turned on
   Fraction HF Exchange ScalHFX         ....  0.530000
   Scaling of DF-GGA-X  ScalDFX         ....  0.470000
   Scaling of DF-GGA-C  ScalDFC         ....  0.730000
   Scaling of DF-LDA-C  ScalLDAC        ....  0.730000
   Perturbative correction              ....  0.270000
   Density functional embedding theory  .... OFF
 RI-approximation to the Coulomb term is turned on
   Number of auxiliary basis functions  .... 510
   RI-JK (J+K treated both via RI)      .... on


General Settings:
 Integral files         IntName         .... Ag02N0
 Hartree-Fock type      HFTyp           .... RHF
 Total Charge           Charge          ....    0
 Multiplicity           Mult            ....    1
 Number of Electrons    NEL             ....   38
 Basis Dimension        Dim             ....  112
 Nuclear Repulsion      ENuc            ....     75.6973343273 Eh

Convergence Acceleration:
 DIIS                   CNVDIIS         .... on
   Start iteration      DIISMaxIt       ....    12
   Startup error        DIISStart       ....  0.200000
   # of expansion vecs  DIISMaxEq       ....     5
   Bias factor          DIISBfac        ....   1.050
   Max. coefficient     DIISMaxC        ....  10.000
 Newton-Raphson         CNVNR           .... off
 SOSCF                  CNVSOSCF        .... off
 Level Shifting         CNVShift        .... on
   Level shift para.    LevelShift      ....    0.2500
   Turn off err/grad.   ShiftErr        ....    0.0010
 Zerner damping         CNVZerner       .... off
 Static damping         CNVDamp         .... on
   Fraction old density DampFac         ....    0.7000
   Max. Damping (<1)    DampMax         ....    0.9800
   Min. Damping (>=0)   DampMin         ....    0.0000
   Turn off err/grad.   DampErr         ....    0.1000
 Fernandez-Rico         CNVRico         .... off

SCF Procedure:
 Maximum # iterations   MaxIter         ....   125
 SCF integral mode      SCFMode         .... Direct
   Integral package                     .... LIBINT
 Reset frequency        DirectResetFreq ....    20
 Integral Threshold     Thresh          ....  1.000e-10 Eh
 Primitive CutOff       TCut            ....  1.000e-11 Eh

Convergence Tolerance:
 Convergence Check Mode ConvCheckMode   .... Total+1el-Energy
 Convergence forced     ConvForced      .... 0
 Energy Change          TolE            ....  1.000e-06 Eh
 1-El. energy change                    ....  1.000e-03 Eh
 DIIS Error             TolErr          ....  1.000e-06


Diagonalization of the overlap matrix:
Smallest eigenvalue                        ... 4.183e-03
Time for diagonalization                   ...    0.003 sec
Threshold for overlap eigenvalues          ... 1.000e-08
Number of eigenvalues below threshold      ... 0
Time for construction of square roots      ...    0.002 sec
Total time needed                          ...    0.005 sec

-------------------
DFT GRID GENERATION
-------------------

General Integration Accuracy     IntAcc      ...  4.670
Radial Grid Type                 RadialGrid  ... Gauss-Chebyshev
Angular Grid (max. acc.)         AngularGrid ... Lebedev-302
Angular grid pruning method      GridPruning ... 3 (G Style)
Weight generation scheme         WeightScheme... Becke
Basis function cutoff            BFCut       ...    1.0000e-10
Integration weight cutoff        WCut        ...    1.0000e-14
Grids for H and He will be reduced by one unit

# of grid points (after initial pruning)     ...  21316 (   0.0 sec)
# of grid points (after weights+screening)   ...  21280 (   0.0 sec)
nearest neighbour list constructed           ...    0.0 sec
Grid point re-assignment to atoms done       ...    0.0 sec
Grid point division into batches done        ...    0.3 sec
Reduced shell lists constructed in    0.3 sec

Total number of grid points                  ...    21280
Total number of batches                      ...      334
Average number of points per batch           ...       63
Average number of grid points per atom       ...    10640
Average number of shells per batch           ...     1.47 ( 4.58%)
Average number of basis functions per batch  ...     2.93 ( 2.62%)
Average number of large shells per batch     ...     1.27 (86.36%)
Average number of large basis fcns per batch ...     2.73 (93.18%)
Average number of aux-shells per batch       ...     1.47 ( 1.50%)
Average number of aux functions per batch    ...     2.93 ( 0.58%)
Maximum spatial batch extension              ...  31.14, 31.14, 19.99 au
Average spatial batch extension              ...   0.98,  0.98,  0.74 au

Time for grid setup =    0.327 sec

------------------------------
INITIAL GUESS: MODEL POTENTIAL
------------------------------
Loading Hartree-Fock densities                     ... done
  calling /sw/apps/orca/orca_4_2_0_linux_x86-64_openmpi314/orca Ag02N0_atom47.inp > Ag02N0_atom47.out in order to generate an atomic fitting density for atom 0 (Ag with ECP) on-the-fly... 
    atom 0 (Ag), assumed electronic state with S=2: 1s2 2s2 2p6 3s2 3p6 4s2 3d10 4p6 5s2 4d9           ... done
Calculating cut-offs                               ... done
Setting up the integral package                    ... done
Initializing the effective Hamiltonian             ... done
Starting the Coulomb interaction                   ... done (   0.0 sec)
Reading the grid                                   ... done
Mapping shells                                     ... done
Starting the XC term evaluation                    ... done (   0.0 sec)
  promolecular density results
     # of electrons  =     94.001400707
     EX              =   -288.144523769
     EC              =     -1.800261188
     EX+EC           =   -289.944784957
Transforming the Hamiltonian                       ... done (   0.0 sec)
Diagonalizing the Hamiltonian                      ... done (   0.0 sec)
Back transforming the eigenvectors                 ... done (   0.0 sec)
Now organizing SCF variables                       ... done
                      ------------------
                      INITIAL GUESS DONE (   1.8 sec)
                      ------------------
--------------
SCF ITERATIONS
--------------
ITER       Energy         Delta-E        Max-DP      RMS-DP      [F,P]     Damp
  0   -293.2480441877   0.000000000000 0.11745117  0.00296986  0.4909379 0.7000
  1   -293.0505741853   0.197470002365 0.08071329  0.00238155  0.3384570 0.7000
  2   -293.1454430329  -0.094868847511 0.04749383  0.00133875  0.2200792 0.7000
                               ***Turning on DIIS***
  3   -293.2939015935  -0.148458560659 0.03298684  0.00075035  0.1467547 0.7000
  4   -293.3840361696  -0.090134576059 0.02262607  0.00056301  0.1022874 0.7000
  5   -293.4264751262  -0.042438956590 0.06167067  0.00159693  0.0743429 0.0000
  6   -293.4079459998   0.018529126322 0.00577274  0.00025863  0.0213427 0.0000
  7   -293.4092681687  -0.001322168814 0.00455362  0.00014740  0.0078602 0.0000
  8   -293.4094886233  -0.000220454606 0.00169120  0.00007828  0.0031387 0.0000
  9   -293.4095274180  -0.000038794712 0.00226774  0.00006392  0.0005524 0.0000
 10   -293.4095308581  -0.000003440096 0.00051988  0.00001295  0.0001897 0.0000
                 **** Energy Check signals convergence ****

               *****************************************************
               *                     SUCCESS                       *
               *           SCF CONVERGED AFTER  11 CYCLES          *
               *****************************************************


----------------
TOTAL SCF ENERGY
----------------

Total Energy       :         -293.40953105 Eh           -7984.07924 eV

Components:
Nuclear Repulsion  :           75.69733433 Eh            2059.82919 eV
Electronic Energy  :         -369.10686537 Eh          -10043.90843 eV
One Electron Energy:         -674.36474973 Eh          -18350.39776 eV
Two Electron Energy:          305.25788436 Eh            8306.48933 eV

Virial components:
Potential Energy   :         -406.29322944 Eh          -11055.80084 eV
Kinetic Energy     :          112.88369839 Eh            3071.72160 eV
Virial Ratio       :            3.59921969


DFT components:
N(Alpha)           :       18.999989764679 electrons
N(Beta)            :       18.999989764679 electrons
N(Total)           :       37.999979529358 electrons
E(X)               :      -12.622950870399 Eh       
E(C)               :       -1.049837260570 Eh       
E(XC)              :      -13.672788130970 Eh       
DFET-embed. en.    :        0.000000000000 Eh       

---------------
SCF CONVERGENCE
---------------

  Last Energy change         ...   -1.8856e-07  Tolerance :   1.0000e-06
  Last MAX-Density change    ...    2.6781e-04  Tolerance :   1.0000e-05
  Last RMS-Density change    ...    6.2151e-06  Tolerance :   1.0000e-06
  Last DIIS Error            ...    6.3213e-05  Tolerance :   1.0000e-06

             **** THE GBW FILE WAS UPDATED (Ag02N0.gbw) ****
             **** DENSITY FILE WAS UPDATED (Ag02N0.scfp) ****
             **** ENERGY FILE WAS UPDATED (Ag02N0.en.tmp) ****
             **** THE GBW FILE WAS UPDATED (Ag02N0.gbw) ****
             **** DENSITY FILE WAS UPDATED (Ag02N0.scfp) ****
----------------
ORBITAL ENERGIES
----------------

  NO   OCC          E(Eh)            E(eV) 
   0   2.0000      -3.969926      -108.0272 
   1   2.0000      -3.969167      -108.0065 
   2   2.0000      -2.510107       -68.3035 
   3   2.0000      -2.503012       -68.1104 
   4   2.0000      -2.503012       -68.1104 
   5   2.0000      -2.502305       -68.0912 
   6   2.0000      -2.502305       -68.0912 
   7   2.0000      -2.501872       -68.0794 
   8   2.0000      -0.432481       -11.7684 
   9   2.0000      -0.414491       -11.2789 
  10   2.0000      -0.414491       -11.2789 
  11   2.0000      -0.393290       -10.7020 
  12   2.0000      -0.393288       -10.7019 
  13   2.0000      -0.385239       -10.4829 
  14   2.0000      -0.385237       -10.4828 
  15   2.0000      -0.371621       -10.1123 
  16   2.0000      -0.371621       -10.1123 
  17   2.0000      -0.362023        -9.8511 
  18   2.0000      -0.220135        -5.9902 
  19   0.0000      -0.050470        -1.3734 
  20   0.0000       0.009740         0.2650 
  21   0.0000       0.009740         0.2650 
  22   0.0000       0.031462         0.8561 
  23   0.0000       0.069388         1.8881 
  24   0.0000       0.069388         1.8881 
  25   0.0000       0.118894         3.2353 
  26   0.0000       0.140691         3.8284 
  27   0.0000       0.184269         5.0142 
  28   0.0000       0.229525         6.2457 
  29   0.0000       0.232174         6.3178 
  30   0.0000       0.232174         6.3178 
  31   0.0000       0.295338         8.0366 
  32   0.0000       0.295338         8.0366 
  33   0.0000       0.440261        11.9801 
  34   0.0000       0.440262        11.9802 
  35   0.0000       0.442143        12.0313 
  36   0.0000       0.485826        13.2200 
  37   0.0000       0.485826        13.2200 
  38   0.0000       0.531654        14.4670 
  39   0.0000       0.531655        14.4671 
  40   0.0000       0.647152        17.6099 
  41   0.0000       0.651578        17.7303 
  42   0.0000       0.651578        17.7303 
  43   0.0000       0.787792        21.4369 
  44   0.0000       1.515660        41.2432 
  45   0.0000       1.660662        45.1889 
  46   0.0000       1.660662        45.1889 
  47   0.0000       1.711802        46.5805 
  48   0.0000       1.711804        46.5805 
  49   0.0000       1.728758        47.0419 
  50   0.0000       1.728758        47.0419 
  51   0.0000       1.731271        47.1103 
  52   0.0000       1.731271        47.1103 
  53   0.0000       1.745481        47.4970 
  54   0.0000       1.745483        47.4970 
  55   0.0000       1.748228        47.5717 
  56   0.0000       1.748228        47.5717 
  57   0.0000       1.754614        47.7455 
  58   0.0000       1.754614        47.7455 
  59   0.0000       1.774033        48.2739 
  60   0.0000       1.859602        50.6023 
  61   0.0000       1.872115        50.9428 
  62   0.0000       1.872115        50.9428 
  63   0.0000       1.905362        51.8475 
  64   0.0000       2.096393        57.0458 
  65   0.0000       2.186659        59.5020 
  66   0.0000       2.186672        59.5024 
  67   0.0000       2.203899        59.9711 
  68   0.0000       2.203899        59.9711 
  69   0.0000       2.224710        60.5374 
  70   0.0000       2.224721        60.5377 
  71   0.0000       2.284536        62.1654 
  72   0.0000       2.293885        62.4198 
  73   0.0000       2.293885        62.4198 
  74   0.0000       2.466237        67.1097 
  75   0.0000       2.519001        68.5455 
  76   0.0000       5.032104       136.9305 
  77   0.0000       5.032104       136.9305 
  78   0.0000       5.041374       137.1828 
  79   0.0000       5.072598       138.0324 
  80   0.0000       5.072755       138.0367 
  81   0.0000       5.084873       138.3664 
  82   0.0000       5.084873       138.3664 
  83   0.0000       5.086831       138.4197 
  84   0.0000       5.086831       138.4197 
  85   0.0000       5.099809       138.7729 
  86   0.0000       5.099967       138.7772 
  87   0.0000       5.186171       141.1229 
  88   0.0000       5.186171       141.1229 
  89   0.0000       5.384023       146.5067 
  90   0.0000       5.791465       157.5938 
  91   0.0000       5.791465       157.5938 
  92   0.0000       5.793487       157.6488 
  93   0.0000       5.793495       157.6490 
  94   0.0000       5.793511       157.6495 
  95   0.0000       5.794152       157.6669 
  96   0.0000       5.794170       157.6674 
  97   0.0000       5.795563       157.7053 
  98   0.0000       5.795563       157.7053 
  99   0.0000       5.795614       157.7067 
 100   0.0000       5.795614       157.7067 
 101   0.0000       5.796722       157.7368 
 102   0.0000       5.796722       157.7368 
 103   0.0000       5.797424       157.7559 
 104   0.0000       5.797424       157.7559 
 105   0.0000       5.797795       157.7660 
 106   0.0000       5.797795       157.7660 
 107   0.0000       5.813197       158.1851 
 108   0.0000      33.506801       911.7664 
 109   0.0000      33.751659       918.4293 
 110   0.0000     109.474331      2978.9480 
 111   0.0000     109.551243      2981.0409 

                    ********************************
                    * MULLIKEN POPULATION ANALYSIS *
                    ********************************

-----------------------
MULLIKEN ATOMIC CHARGES
-----------------------
   0 Ag:    0.000003
   1 Ag:   -0.000003
Sum of atomic charges:    0.0000000

--------------------------------
MULLIKEN REDUCED ORBITAL CHARGES
--------------------------------
  0 Ags       :     2.977832  s :     2.977832
      pz      :     2.040368  p :     6.051100
      px      :     2.005366
      py      :     2.005366
      dz2     :     1.981108  d :     9.969598
      dxz     :     1.994297
      dyz     :     1.994297
      dx2y2   :     1.999948
      dxy     :     1.999948
      f0      :     0.000680  f :     0.001448
      f+1     :     0.000333
      f-1     :     0.000333
      f+2     :     0.000051
      f-2     :     0.000051
      f+3     :     0.000000
      f-3     :     0.000000
      g0      :     0.000009  g :     0.000020
      g+1     :     0.000005
      g-1     :     0.000005
      g+2     :     0.000001
      g-2     :     0.000001
      g+3     :     0.000000
      g-3     :     0.000000
      g+4     :     0.000000
      g-4     :     0.000000
  1 Ags       :     2.977836  s :     2.977836
      pz      :     2.040369  p :     6.051101
      px      :     2.005366
      py      :     2.005366
      dz2     :     1.981108  d :     9.969598
      dxz     :     1.994297
      dyz     :     1.994297
      dx2y2   :     1.999948
      dxy     :     1.999948
      f0      :     0.000680  f :     0.001448
      f+1     :     0.000333
      f-1     :     0.000333
      f+2     :     0.000051
      f-2     :     0.000051
      f+3     :     0.000000
      f-3     :     0.000000
      g0      :     0.000009  g :     0.000020
      g+1     :     0.000005
      g-1     :     0.000005
      g+2     :     0.000001
      g-2     :     0.000001
      g+3     :     0.000000
      g-3     :     0.000000
      g+4     :     0.000000
      g-4     :     0.000000


                     *******************************
                     * LOEWDIN POPULATION ANALYSIS *
                     *******************************

----------------------
LOEWDIN ATOMIC CHARGES
----------------------
   0 Ag:    0.000000
   1 Ag:   -0.000000

-------------------------------
LOEWDIN REDUCED ORBITAL CHARGES
-------------------------------
  0 Ags       :     2.908678  s :     2.908678
      pz      :     2.093796  p :     6.108904
      px      :     2.007554
      py      :     2.007554
      dz2     :     1.996548  d :     9.980339
      dxz     :     1.991956
      dyz     :     1.991956
      dx2y2   :     1.999940
      dxy     :     1.999940
      f0      :     0.000966  f :     0.002053
      f+1     :     0.000484
      f-1     :     0.000484
      f+2     :     0.000059
      f-2     :     0.000059
      f+3     :     0.000000
      f-3     :     0.000000
      g0      :     0.000012  g :     0.000026
      g+1     :     0.000006
      g-1     :     0.000006
      g+2     :     0.000001
      g-2     :     0.000001
      g+3     :     0.000000
      g-3     :     0.000000
      g+4     :     0.000000
      g-4     :     0.000000
  1 Ags       :     2.908678  s :     2.908678
      pz      :     2.093796  p :     6.108904
      px      :     2.007554
      py      :     2.007554
      dz2     :     1.996548  d :     9.980339
      dxz     :     1.991956
      dyz     :     1.991956
      dx2y2   :     1.999940
      dxy     :     1.999940
      f0      :     0.000966  f :     0.002053
      f+1     :     0.000484
      f-1     :     0.000484
      f+2     :     0.000059
      f-2     :     0.000059
      f+3     :     0.000000
      f-3     :     0.000000
      g0      :     0.000012  g :     0.000026
      g+1     :     0.000006
      g-1     :     0.000006
      g+2     :     0.000001
      g-2     :     0.000001
      g+3     :     0.000000
      g-3     :     0.000000
      g+4     :     0.000000
      g-4     :     0.000000


                      *****************************
                      * MAYER POPULATION ANALYSIS *
                      *****************************

  NA   - Mulliken gross atomic population
  ZA   - Total nuclear charge
  QA   - Mulliken gross atomic charge
  VA   - Mayer's total valence
  BVA  - Mayer's bonded valence
  FA   - Mayer's free valence

  ATOM       NA         ZA         QA         VA         BVA        FA
  0 Ag    19.0000    19.0000     0.0000     1.0325     1.0325     0.0000
  1 Ag    19.0000    19.0000    -0.0000     1.0325     1.0325     0.0000

  Mayer bond orders larger than 0.100000
B(  0-Ag,  1-Ag) :   1.0325 

-------
TIMINGS
-------

Total SCF time: 0 days 0 hours 0 min 3 sec 

Total time                  ....       3.566 sec
Sum of individual times     ....       3.463 sec  ( 97.1%)

Fock matrix formation       ....       1.627 sec  ( 45.6%)
  XC integration            ....       0.138 sec  (  8.5% of F)
    Basis function eval.    ....       0.019 sec  ( 13.5% of XC)
    Density eval.           ....       0.010 sec  (  7.2% of XC)
    XC-Functional eval.     ....       0.007 sec  (  4.9% of XC)
    XC-Potential eval.      ....       0.017 sec  ( 12.4% of XC)
Diagonalization             ....       0.019 sec  (  0.5%)
Density matrix formation    ....       0.004 sec  (  0.1%)
Population analysis         ....       0.003 sec  (  0.1%)
Initial guess               ....       1.474 sec  ( 41.3%)
Orbital Transformation      ....       0.000 sec  (  0.0%)
Orbital Orthonormalization  ....       0.000 sec  (  0.0%)
DIIS solution               ....       0.009 sec  (  0.2%)
Grid generation             ....       0.327 sec  (  9.2%)


           ************************************************************
           *        Program running with 24 parallel MPI-processes    *
           *              working on a common directory               *
           ************************************************************

------------------------------------------------------------------------------
                                ORCA  MP2 
------------------------------------------------------------------------------

Freezing NCore=0 chemical core electrons

-------------
RI-MP2 ENERGY
-------------
Dimension of the basis                    ...  112
Memory devoted to MP2                     ... 5000 MB   
Data format for buffers                   ... DOUBLE
Compression type for matrix containers    ... UNCOMPRESSED
Overall scaling of the MP2 energy         ...   2.700e-01
Calculating two index integrals           ... done (    0.005 sec)
Cholesky decomposition of V**-1           ... done (    0.054 sec)

-----------------
RI-TRANSFORMATION (AUX index driven)
-----------------

Dimension of the orbital-basis         ... 112
Dimension of the aux-basis             ... 352
Transformation of internal/external MOs...    0-  18 to   19- 111
Number Format for Storage              ... Double (8 Byte)
Integral mode                          ... Direct

First Phase: integral generation and transformation of MO indices
  Aux angular momentum 0               ... done (    0.000 sec)
  Aux angular momentum 1               ... done (    0.001 sec)
  Aux angular momentum 2               ... done (    0.001 sec)
  Aux angular momentum 3               ... done (    0.002 sec)
  Aux angular momentum 4               ... done (    0.002 sec)
  Aux angular momentum 5               ... done (    0.004 sec)
  Aux angular momentum 6               ... done (    0.006 sec)
Closing buffer VIA ( 0.00 GB; CompressionRatio= 1.00)
  Phase 1 completed in     0.101 sec
Second Phase: sorting and transformation of aux index

IA-Transformation
Memory available                       ... 4999 MB 
Max. # MO pairs treated in a batch     ... 1    
# of internal orbitals                 ... 19
# batches for internal orbitals        ... 1
Closing buffer IAV ( 0.00 GB; CompressionRatio= 1.00)
(ia|v) transformation done in     0.004 sec

  Phase 2 completed in     0.010 sec
RI-Integral transformation completed in     0.113 sec
Opening buffers                              ... done

Starting loop over batches of integrals:

Operator 0  - window                       ... (  0- 18)x( 19-111)
Operator 0  - Memory available             ...  5000 MB
Operator 0  - Memory needed per MO         ...   0.2 MB
Operator 0  - Number of orbitals per batch ... 1
Operator 0  - Number of batches            ... 1

OPERATOR  0   PASS   0:  MOs     0 ...    0 +    1 ...    1 +    2 ...    2 +    3 ...    3
                            +    4 ...    4 +    5 ...    5 +    6 ...    6 +    7 ...    7
                            +    8 ...    8 +    9 ...    9 +   10 ...   10 +   11 ...   11
                            +   12 ...   12 +   13 ...   13 +   14 ...   14 +   15 ...   15
                            +   16 ...   16 +   17 ...   17 +   18 ...   18
  Reading integrals       ... ok
Time spent in pair loops =     0.003 sec

-----------------------------------------------
 RI-MP2 CORRELATION ENERGY:     -0.423102102 Eh
-----------------------------------------------


-------
TIMINGS
-------

Total time                :    0.195 sec
Integral trafo            :    0.129 sec ( 65.8%)
I/O of integrals          :    0.000 sec (  0.1%)
K(i,j) Operators          :    0.000 sec (  0.1%)
T(i,j) pair energies      :    0.000 sec (  0.0%)
V-calculation             :    0.005 sec (  2.8%)
V**(-1/2)                 :    0.054 sec ( 27.6%)
Gamma(ia|P)               :    0.000 sec (  0.0%)
Gamma-Trafo               :    0.000 sec (  0.0%)
D(virtual)                :    0.000 sec (  0.0%)
D(internal)               :    0.000 sec (  0.0%)
W(virtual)                :    0.000 sec (  0.0%)
W(internal)               :    0.000 sec (  0.0%)
L(virtual)                :    0.000 sec (  0.0%)
L(internal)               :    0.000 sec (  0.0%)
G(D)                      :    0.000 sec (  0.0%)
G(Z)                      :    0.000 sec (  0.0%)
Z-Vector Solution         :    0.000 sec (  0.0%)
Z-Vector Solution         :    0.000 sec (  0.0%)
3-Index Derivative 
+ Separable RIJ part      :    0.000 sec (  0.0%)
2-Index Derivative 
+ Separable RIJ part      :    0.000 sec (  0.0%)
Separable Gradient (X)    :    0.000 sec (  0.0%)


---------------------------------------
MP2 TOTAL ENERGY:     -293.832633148 Eh
---------------------------------------


-------------------------------------------------------------------------------
                          DFT DISPERSION CORRECTION                            
                                                                               
                              DFTD3 V3.1  Rev 1                                
                          USING Becke-Johnson damping                          
-------------------------------------------------------------------------------
The B2PLYP functional is recognized
Active option DFTDOPT                   ...         4   

molecular C6(AA) [au] = 1086.308375 


            DFT-D V3
 parameters
 s6 scaling factor         :     0.6400 
 a1 scaling factor         :     0.3065 
 s8 scaling factor         :     0.9147 
 a2 scaling factor         :     5.0570 
 ad hoc parameters k1-k3   :    16.0000     1.3333    -4.0000 

 Edisp/kcal,au: -1.270784045683  -0.002025123066 
 E6   /kcal   :  -0.413860990 
 E8   /kcal   :  -0.856923056 
 % E8         :  67.432626215 

-------------------------   ----------------
Dispersion correction           -0.002025123
-------------------------   ----------------


-------------------------   --------------------
FINAL SINGLE POINT ENERGY      -293.834658271269
-------------------------   --------------------


                            ***************************************
                            *     ORCA property calculations      *
                            ***************************************


  WARNING: The energy has been calculated at the MP2 level but the densities
           used in the property calculations are still SCF densities
           MP2 response densities have not been calculated 
           use %mp2 Density relaxed end
           or  %mp2 Density unrelaxed end

                                    ---------------------
                                    Active property flags
                                    ---------------------
   (+) Dipole Moment


------------------------------------------------------------------------------
                       ORCA ELECTRIC PROPERTIES CALCULATION
------------------------------------------------------------------------------

Dipole Moment Calculation                       ... on
Quadrupole Moment Calculation                   ... off
Polarizability Calculation                      ... off
GBWName                                         ... Ag02N0.gbw
Electron density file                           ... Ag02N0.scfp
The origin for moment calculation is the CENTER OF MASS  = ( 0.000000,  0.000000  0.000000)

-------------
DIPOLE MOMENT
-------------
                                X             Y             Z
Electronic contribution:      0.00000       0.00000       0.00000
Nuclear contribution   :      0.00000       0.00000       0.00000
                        -----------------------------------------
Total Dipole Moment    :      0.00000       0.00000       0.00000
                        -----------------------------------------
Magnitude (a.u.)       :      0.00000
Magnitude (Debye)      :      0.00000



--------------------
Rotational spectrum 
--------------------
 
Rotational constants in cm-1:     0.000000     0.049076     0.049076 
Rotational constants in MHz :     0.000000  1471.266775  1471.266775 

 Dipole components along the rotational axes: 
x,y,z [a.u.] :     0.000000     0.000000     0.000000 
x,y,z [Debye]:     0.000000     0.000000     0.000000 

 

Timings for individual modules:

Sum of individual times         ...        5.976 sec (=   0.100 min)
GTO integral calculation        ...        1.039 sec (=   0.017 min)  17.4 %
SCF iterations                  ...        3.977 sec (=   0.066 min)  66.6 %
MP2 module                      ...        0.960 sec (=   0.016 min)  16.1 %
                             ****ORCA TERMINATED NORMALLY****
TOTAL RUN TIME: 0 days 0 hours 0 minutes 6 seconds 569 msec
