
                                 *****************
                                 * O   R   C   A *
                                 *****************

           --- An Ab Initio, DFT and Semiempirical electronic structure package ---

                  #######################################################
                  #                        -***-                        #
                  #          Department of theory and spectroscopy      #
                  #               Directorship: Frank Neese             #
                  #        Max Planck Institute fuer Kohlenforschung    #
                  #                Kaiser Wilhelm Platz 1               #
                  #                 D-45470 Muelheim/Ruhr               #
                  #                      Germany                        #
                  #                                                     #
                  #                  All rights reserved                #
                  #                        -***-                        #
                  #######################################################


                         Program Version 4.2.0 -  RELEASE  -


 With contributions from (in alphabetic order):
   Daniel Aravena         : Magnetic Suceptibility
   Michael Atanasov       : Ab Initio Ligand Field Theory (pilot matlab implementation)
   Alexander A. Auer      : GIAO ZORA, VPT2
   Ute Becker             : Parallelization
   Giovanni Bistoni       : ED, misc. LED, open-shell LED, HFLED
   Martin Brehm           : Molecular dynamics
   Dmytro Bykov           : SCF Hessian
   Vijay G. Chilkuri      : MRCI spin determinant printing, contributions to CSF-ICE
   Dipayan Datta          : RHF DLPNO-CCSD density
   Achintya Kumar Dutta   : EOM-CC, STEOM-CC
   Dmitry Ganyushin       : Spin-Orbit,Spin-Spin,Magnetic field MRCI
   Miquel Garcia          : C-PCM Hessian, Gaussian charge scheme
   Yang Guo               : DLPNO-NEVPT2, CIM, IAO-localization
   Andreas Hansen         : Spin unrestricted coupled pair/coupled cluster methods
   Benjamin Helmich-Paris : CASSCF linear response (MC-RPA)
   Lee Huntington         : MR-EOM, pCC
   Robert Izsak           : Overlap fitted RIJCOSX, COSX-SCS-MP3, EOM
   Christian Kollmar      : KDIIS, OOCD, Brueckner-CCSD(T), CCSD density
   Simone Kossmann        : Meta GGA functionals, TD-DFT gradient, OOMP2, MP2 Hessian
   Martin Krupicka        : AUTO-CI
   Lucas Lang             : DCDCAS
   Dagmar Lenk            : GEPOL surface, SMD
   Dimitrios Liakos       : Extrapolation schemes; Compound Job, initial MDCI parallelization
   Dimitrios Manganas     : Further ROCIS development; embedding schemes
   Dimitrios Pantazis     : SARC Basis sets
   Taras Petrenko         : DFT Hessian,TD-DFT gradient, ASA, ECA, R-Raman, ABS, FL, XAS/XES, NRVS
   Peter Pinski           : DLPNO-MP2, DLPNO-MP2 Gradient
   Christoph Reimann      : Effective Core Potentials
   Marius Retegan         : Local ZFS, SOC
   Christoph Riplinger    : Optimizer, TS searches, QM/MM, DLPNO-CCSD(T), (RO)-DLPNO pert. Triples
   Tobias Risthaus        : Range-separated hybrids, TD-DFT gradient, RPA, STAB
   Michael Roemelt        : Original ROCIS implementation
   Masaaki Saitow         : Open-shell DLPNO-CCSD energy and density
   Barbara Sandhoefer     : DKH picture change effects
   Avijit Sen             : IP-ROCIS
   Kantharuban Sivalingam : CASSCF convergence, NEVPT2, FIC-MRCI
   Bernardo de Souza      : ESD, SOC TD-DFT
   Georgi Stoychev        : AutoAux, RI-MP2 NMR
   Willem Van den Heuvel  : Paramagnetic NMR
   Boris Wezisla          : Elementary symmetry handling
   Frank Wennmohs         : Technical directorship


 We gratefully acknowledge several colleagues who have allowed us to
 interface, adapt or use parts of their codes:
   Stefan Grimme, W. Hujo, H. Kruse,             : VdW corrections, initial TS optimization,
                  C. Bannwarth                     DFT functionals, gCP, sTDA/sTD-DF
   Ed Valeev, F. Pavosevic, A. Kumar             : LibInt (2-el integral package), F12 methods
   Garnet Chan, S. Sharma, J. Yang, R. Olivares  : DMRG
   Ulf Ekstrom                                   : XCFun DFT Library
   Mihaly Kallay                                 : mrcc  (arbitrary order and MRCC methods)
   Andreas Klamt, Michael Diedenhofen            : otool_cosmo (COSMO solvation model)
   Jiri Pittner, Ondrej Demel                    : Mk-CCSD
   Frank Weinhold                                : gennbo (NPA and NBO analysis)
   Christopher J. Cramer and Donald G. Truhlar   : smd solvation model
   Lars Goerigk                                  : TD-DFT with DH, B97 family of functionals
   V. Asgeirsson, H. Jonsson                     : NEB implementation
   FAccTs GmbH                                   : IRC, NEB, NEB-TS, Multilevel, MM, QM/MM, CI optimization
   S Lehtola, MJT Oliveira, MAL Marques          : LibXC Library


 Your calculation uses the libint2 library for the computation of 2-el integrals
 For citations please refer to: http://libint.valeyev.net

 Your ORCA version has been built with support for libXC version: 4.2.3
 For citations please refer to: https://tddft.org/programs/libxc/

 This ORCA versions uses:
   CBLAS   interface :  Fast vector & matrix operations
   LAPACKE interface :  Fast linear algebra routines
   SCALAPACK package :  Parallel linear algebra routines


Your calculation utilizes the atom-pairwise dispersion correction
with the Becke-Johnson damping scheme (D3BJ)
Cite in your paper:
S.Grimme, S.Ehrlich, L.Goerigk, J Comput Chem, (2011), 32, 1456–1465 
S.Grimme, J.Antony, S.Ehrlich and H.Krieg, J.Chem.Phys., 132, (2010), 154104 
   

----- Orbital basis set information -----
Your calculation utilizes the basis: def2-TZVPPD
   F. Weigend and R. Ahlrichs, Phys. Chem. Chem. Phys. 7, 3297 (2005).
   D. Rappoport and F. Furche, J. Chem. Phys. 133 134105 (2010).

----- AuxC basis set information -----
Your calculation utilizes the auxiliary basis: def2-TZVPPD/C
   A. Hellweg, C. Hattig, S. Hofener and W. Klopper, Theor. Chem. Acc. 117, 587 (2007).

----- AuxJK basis set information -----
Your calculation utilizes the auxiliary basis: def2/JK
   H-Ba, Hf-Rn: F. Weigend, J. Comput. Chem. 29, 167 (2008).

cite the ECPs for Ag [Def2-ECP] as follows:
Ce-Yb(ecp-28): M. Dolg, H. Stoll, H.Preuss, J. Chem. Phys., 1989, 90, 1730-1734.
Y-Cd(ecp-28), Hf-Hg(ecp-46): D. Andrae,U. Haeussermann, M. Dolg, H. Stoll, H. Preuss, Theor. Chim. Acta, 1990, 77, 123-141.
In-Sb(ecp-28), Tl-Bi(ecp-46): B. Metz, H. Stoll, M. Dolg, J. Chem. Phys., 2000, 113, 2563-2569.
Te-Xe(ecp-28), Po-Rn(ecp-46): K. A. Peterson, D. Figgen, E. Goll, H. Stoll, M. Dolg, J. Chem. Phys., 2003, 119, 11113-11123.
Rb(ecp-28), Cs(ecp-46): T. Leininger, A. Nicklass, W. Kuechle, H. Stoll, M. Dolg, A. Bergner, Chem. Phys. Lett., 1996, 255, 274-280.
Sr(ecp-28), Ba(ecp-46): M. Kaupp, P. V. Schleyer, H. Stoll and H. Preuss, J. Chem. Phys., 1991, 94, 1360-1366.
La(ecp-46): M. Dolg, H. Stoll, A. Savin, H. Preuss, Theor. Chim. Acta, 1989, 75, 173-194.
Lu(ecp-28): X. Cao, M. Dolg, J. Chem. Phys., 2001, 115, 7348-7355.

ECP parameters for Ag [Def2-ECP] have been obtained from:
TURBOMOLE (7.0.2)

================================================================================
                                        WARNINGS
                       Please study these warnings very carefully!
================================================================================


WARNING: No MP2 level density has been requested!
         To caclulate MP2 level properties use
         %mp2 Density relaxed end
         or
         %mp2 Density unrelaxed end
         Otherwise for double-hybrid DFT only the energy is correct!

WARNING: The frozen-core approximation is turned on by default for 
         the MP2 part of double-hybrid DFT.

INFO   : the flag for use of LIBINT has been found!

================================================================================
                                       INPUT FILE
================================================================================
NAME = Ag03C1_D3H.in
|  1> #
|  2> # Ag03C1_D3H ri-B2PLYP-D3BJ/Def2-TZVPPD
|  3> #
|  4> ! rijk ri-b2plyp d3bj def2-tzvppd def2/jk def2-tzvppd/c grid4 nofinalgrid
|  5> 
|  6> *xyz 1 1
|  7> Ag       0.000000    1.529877    0.000000 
|  8> Ag       1.324912   -0.764938    0.000000 
|  9> Ag      -1.324912   -0.764938    0.000000 
| 10> *
| 11> 
| 12> %maxcore 5000
| 13> 
| 14> %pal
| 15> nprocs = 24
| 16> end
| 17> 
| 18> 
| 19>                          ****END OF INPUT****
================================================================================

                       ****************************
                       * Single Point Calculation *
                       ****************************

---------------------------------
CARTESIAN COORDINATES (ANGSTROEM)
---------------------------------
  Ag     0.000000    1.529877    0.000000
  Ag     1.324912   -0.764938    0.000000
  Ag    -1.324912   -0.764938    0.000000

----------------------------
CARTESIAN COORDINATES (A.U.)
----------------------------
  NO LB      ZA    FRAG     MASS         X           Y           Z
   0 Ag   19.0000*   0   107.870    0.000000    2.891049    0.000000
   1 Ag   19.0000*   0   107.870    2.503721   -1.445523    0.000000
   2 Ag   19.0000*   0   107.870   -2.503721   -1.445523    0.000000
* core charge reduced due to ECP

--------------------------------
INTERNAL COORDINATES (ANGSTROEM)
--------------------------------
 Ag     0   0   0     0.000000000000     0.00000000     0.00000000
 Ag     1   0   0     2.649824086986     0.00000000     0.00000000
 Ag     2   1   0     2.649824000000    60.00000109     0.00000000

---------------------------
INTERNAL COORDINATES (A.U.)
---------------------------
 Ag     0   0   0     0.000000000000     0.00000000     0.00000000
 Ag     1   0   0     5.007441827471     0.00000000     0.00000000
 Ag     2   1   0     5.007441663092    60.00000109     0.00000000

---------------------
BASIS SET INFORMATION
---------------------
There are 1 groups of distinct atoms

 Group   1 Type Ag  : 7s7p6d2f1g contracted to 6s4p3d2f1g pattern {211111/4111/411/11/1}

Atom   0Ag   basis set group =>   1
Atom   1Ag   basis set group =>   1
Atom   2Ag   basis set group =>   1
---------------------------------
AUXILIARY/C BASIS SET INFORMATION
---------------------------------
There are 1 groups of distinct atoms

 Group   1 Type Ag  : 8s7p6d5f4g3h1i contracted to 8s7p6d5f4g3h1i pattern {11111111/1111111/111111/11111/1111/111/1}

Atom   0Ag   basis set group =>   1
Atom   1Ag   basis set group =>   1
Atom   2Ag   basis set group =>   1
----------------------------------
AUXILIARY/JK BASIS SET INFORMATION
----------------------------------
There are 1 groups of distinct atoms

 Group   1 Type Ag  : 13s12p10d9f6g3h2i contracted to 11s10p9d8f6g3h2i pattern {31111111111/3111111111/211111111/21111111/111111/111/11}

Atom   0Ag   basis set group =>   1
Atom   1Ag   basis set group =>   1
Atom   2Ag   basis set group =>   1
-------------------------
ECP PARAMETER INFORMATION
-------------------------

 Group 1, Type Ag ECP Def2-ECP (replacing 28 core electrons, lmax=3)

Atom   0Ag   ECP group =>   1
Atom   1Ag   ECP group =>   1
Atom   2Ag   ECP group =>   1



           ************************************************************
           *        Program running with 24 parallel MPI-processes    *
           *              working on a common directory               *
           ************************************************************
------------------------------------------------------------------------------
                           ORCA GTO INTEGRAL CALCULATION
                           -- RI-GTO INTEGRALS CHOSEN --
------------------------------------------------------------------------------

                         BASIS SET STATISTICS AND STARTUP INFO

Gaussian basis set:
 # of primitive gaussian shells          ...   69
 # of primitive gaussian functions       ...  243
 # of contracted shells                  ...   48
 # of contracted basis functions         ...  168
 Highest angular momentum                ...    4
 Maximum contraction depth               ...    4
Auxiliary gaussian basis set:
 # of primitive gaussian shells          ...  165
 # of primitive gaussian functions       ...  825
 # of contracted shells                  ...  147
 # of contracted aux-basis functions     ...  765
 Highest angular momentum                ...    6
 Maximum contraction depth               ...    3
Ratio of auxiliary to basis functions    ...  4.55
Integral package used                  ... LIBINT
 One Electron integrals                  
   ECP integrals                         ... done
 Ordering auxiliary basis shells         ... done
 Integral threshhold             Thresh  ...  1.000e-10
 Primitive cut-off               TCut    ...  1.000e-11
 Pre-screening matrix                    ... done
 Shell pair data                         ... 
 Ordering of the shell pairs             ... done (   0.000 sec) 1134 of 1176 pairs
 Determination of significant pairs      ... done (   0.000 sec)
 Creation of shell pair data             ... done (   0.000 sec)
 Storage of shell pair data              ... done (   0.009 sec)
 Shell pair data done in (   0.009 sec)
 Computing two index integrals           ... done
 Cholesky decomposition of the V-matrix  ... done


Timings:
 Total evaluation time                   ...   0.690 sec (  0.012 min)
 One electron matrix time                ...   0.351 sec (  0.006 min) = 50.9%
 Schwartz matrix evaluation time         ...   0.141 sec (  0.002 min) = 20.5%
 Two index repulsion integral time       ...   0.149 sec (  0.002 min) = 21.5%
 Cholesky decomposition of V             ...   0.009 sec (  0.000 min) =  1.4%
 Three index repulsion integral time     ...   0.000 sec (  0.000 min) =  0.0%



           ************************************************************
           *        Program running with 24 parallel MPI-processes    *
           *              working on a common directory               *
           ************************************************************
-------------------------------------------------------------------------------
                                 ORCA SCF
-------------------------------------------------------------------------------

------------
SCF SETTINGS
------------
Hamiltonian:
 Density Functional     Method          .... DFT(GTOs)
 Exchange Functional    Exchange        .... B88
   X-Alpha parameter    XAlpha          ....  0.666667
   Becke's b parameter  XBeta           ....  0.004200
 Correlation Functional Correlation     .... LYP
 LDA part of GGA corr.  LDAOpt          .... VWN-3
 Gradients option       PostSCFGGA      .... off
 Hybrid DFT is turned on
   Fraction HF Exchange ScalHFX         ....  0.530000
   Scaling of DF-GGA-X  ScalDFX         ....  0.470000
   Scaling of DF-GGA-C  ScalDFC         ....  0.730000
   Scaling of DF-LDA-C  ScalLDAC        ....  0.730000
   Perturbative correction              ....  0.270000
   Density functional embedding theory  .... OFF
 RI-approximation to the Coulomb term is turned on
   Number of auxiliary basis functions  .... 765
   RI-JK (J+K treated both via RI)      .... on


General Settings:
 Integral files         IntName         .... Ag03C1_D3H
 Hartree-Fock type      HFTyp           .... RHF
 Total Charge           Charge          ....    1
 Multiplicity           Mult            ....    1
 Number of Electrons    NEL             ....   56
 Basis Dimension        Dim             ....  168
 Nuclear Repulsion      ENuc            ....    216.2781015067 Eh

Convergence Acceleration:
 DIIS                   CNVDIIS         .... on
   Start iteration      DIISMaxIt       ....    12
   Startup error        DIISStart       ....  0.200000
   # of expansion vecs  DIISMaxEq       ....     5
   Bias factor          DIISBfac        ....   1.050
   Max. coefficient     DIISMaxC        ....  10.000
 Newton-Raphson         CNVNR           .... off
 SOSCF                  CNVSOSCF        .... off
 Level Shifting         CNVShift        .... on
   Level shift para.    LevelShift      ....    0.2500
   Turn off err/grad.   ShiftErr        ....    0.0010
 Zerner damping         CNVZerner       .... off
 Static damping         CNVDamp         .... on
   Fraction old density DampFac         ....    0.7000
   Max. Damping (<1)    DampMax         ....    0.9800
   Min. Damping (>=0)   DampMin         ....    0.0000
   Turn off err/grad.   DampErr         ....    0.1000
 Fernandez-Rico         CNVRico         .... off

SCF Procedure:
 Maximum # iterations   MaxIter         ....   125
 SCF integral mode      SCFMode         .... Direct
   Integral package                     .... LIBINT
 Reset frequency        DirectResetFreq ....    20
 Integral Threshold     Thresh          ....  1.000e-10 Eh
 Primitive CutOff       TCut            ....  1.000e-11 Eh

Convergence Tolerance:
 Convergence Check Mode ConvCheckMode   .... Total+1el-Energy
 Convergence forced     ConvForced      .... 0
 Energy Change          TolE            ....  1.000e-06 Eh
 1-El. energy change                    ....  1.000e-03 Eh
 DIIS Error             TolErr          ....  1.000e-06


Diagonalization of the overlap matrix:
Smallest eigenvalue                        ... 2.894e-03
Time for diagonalization                   ...    0.006 sec
Threshold for overlap eigenvalues          ... 1.000e-08
Number of eigenvalues below threshold      ... 0
Time for construction of square roots      ...    0.003 sec
Total time needed                          ...    0.009 sec

-------------------
DFT GRID GENERATION
-------------------

General Integration Accuracy     IntAcc      ...  4.670
Radial Grid Type                 RadialGrid  ... Gauss-Chebyshev
Angular Grid (max. acc.)         AngularGrid ... Lebedev-302
Angular grid pruning method      GridPruning ... 3 (G Style)
Weight generation scheme         WeightScheme... Becke
Basis function cutoff            BFCut       ...    1.0000e-10
Integration weight cutoff        WCut        ...    1.0000e-14
Grids for H and He will be reduced by one unit

# of grid points (after initial pruning)     ...  31974 (   0.0 sec)
# of grid points (after weights+screening)   ...  31838 (   0.0 sec)
nearest neighbour list constructed           ...    0.0 sec
Grid point re-assignment to atoms done       ...    0.0 sec
Grid point division into batches done        ...    0.3 sec
Reduced shell lists constructed in    0.3 sec

Total number of grid points                  ...    31838
Total number of batches                      ...      500
Average number of points per batch           ...       63
Average number of grid points per atom       ...    10613
Average number of shells per batch           ...     4.27 ( 8.90%)
Average number of basis functions per batch  ...     9.18 ( 5.47%)
Average number of large shells per batch     ...     2.82 (65.96%)
Average number of large basis fcns per batch ...     5.91 (64.36%)
Average number of aux-shells per batch       ...     4.27 ( 2.91%)
Average number of aux functions per batch    ...     9.18 ( 1.20%)
Maximum spatial batch extension              ...  27.01, 22.64, 31.14 au
Average spatial batch extension              ...   0.75,  0.63,  0.73 au

Time for grid setup =    0.359 sec

------------------------------
INITIAL GUESS: MODEL POTENTIAL
------------------------------
Loading Hartree-Fock densities                     ... done
  calling /sw/apps/orca/orca_4_2_0_linux_x86-64_openmpi314/orca Ag03C1_D3H_atom47.inp > Ag03C1_D3H_atom47.out in order to generate an atomic fitting density for atom 0 (Ag with ECP) on-the-fly... 
    atom 0 (Ag), assumed electronic state with S=2: 1s2 2s2 2p6 3s2 3p6 4s2 3d10 4p6 5s2 4d9           ... done
Calculating cut-offs                               ... done
Setting up the integral package                    ... done
Initializing the effective Hamiltonian             ... done
Starting the Coulomb interaction                   ... done (   0.0 sec)
Reading the grid                                   ... done
Mapping shells                                     ... done
Starting the XC term evaluation                    ... done (   0.0 sec)
  promolecular density results
     # of electrons  =    141.001593444
     EX              =   -432.257514969
     EC              =     -2.709136761
     EX+EC           =   -434.966651730
Transforming the Hamiltonian                       ... done (   0.0 sec)
Diagonalizing the Hamiltonian                      ... done (   0.0 sec)
Back transforming the eigenvectors                 ... done (   0.0 sec)
Now organizing SCF variables                       ... done
                      ------------------
                      INITIAL GUESS DONE (   1.6 sec)
                      ------------------
--------------
SCF ITERATIONS
--------------
ITER       Energy         Delta-E        Max-DP      RMS-DP      [F,P]     Damp
  0   -439.7405397708   0.000000000000 0.09815506  0.00189074  0.4930499 0.7000
  1   -439.4970884583   0.243451312477 0.06837914  0.00137765  0.3428998 0.7000
  2   -439.6114676040  -0.114379145670 0.03400120  0.00065512  0.2254956 0.7000
                               ***Turning on DIIS***
  3   -439.7843040608  -0.172836456783 0.01604753  0.00031302  0.1510431 0.7000
  4   -439.8886855083  -0.104381447541 0.00833975  0.00028072  0.1047596 0.7000
  5   -439.9410108443  -0.052325336002 0.03519844  0.00082074  0.0755381 0.0000
  6   -439.9141056086   0.026905235708 0.00556829  0.00018456  0.0180801 0.0000
  7   -439.9154993523  -0.001393743664 0.00414476  0.00009609  0.0055346 0.0000
  8   -439.9156574449  -0.000158092643 0.00098088  0.00004008  0.0020544 0.0000
  9   -439.9156792787  -0.000021833766 0.00097568  0.00002756  0.0004605 0.0000
 10   -439.9156813447  -0.000002065966 0.00023228  0.00000517  0.0000455 0.0000
                 **** Energy Check signals convergence ****

               *****************************************************
               *                     SUCCESS                       *
               *           SCF CONVERGED AFTER  11 CYCLES          *
               *****************************************************


----------------
TOTAL SCF ENERGY
----------------

Total Energy       :         -439.91568140 Eh          -11970.71427 eV

Components:
Nuclear Repulsion  :          216.27810151 Eh            5885.22634 eV
Electronic Energy  :         -656.19378291 Eh          -17855.94061 eV
One Electron Energy:        -1205.44347080 Eh          -32801.78445 eV
Two Electron Energy:          549.24968789 Eh           14945.84384 eV

Virial components:
Potential Energy   :         -609.26527193 Eh          -16578.95091 eV
Kinetic Energy     :          169.34959053 Eh            4608.23664 eV
Virial Ratio       :            3.59767786


DFT components:
N(Alpha)           :       27.999983703784 electrons
N(Beta)            :       27.999983703784 electrons
N(Total)           :       55.999967407569 electrons
E(X)               :      -18.868506857213 Eh       
E(C)               :       -1.562870653370 Eh       
E(XC)              :      -20.431377510583 Eh       
DFET-embed. en.    :        0.000000000000 Eh       

---------------
SCF CONVERGENCE
---------------

  Last Energy change         ...   -5.7030e-08  Tolerance :   1.0000e-06
  Last MAX-Density change    ...    3.5605e-05  Tolerance :   1.0000e-05
  Last RMS-Density change    ...    9.0890e-07  Tolerance :   1.0000e-06
  Last DIIS Error            ...    3.8926e-05  Tolerance :   1.0000e-06

             **** THE GBW FILE WAS UPDATED (Ag03C1_D3H.gbw) ****
             **** DENSITY FILE WAS UPDATED (Ag03C1_D3H.scfp) ****
             **** ENERGY FILE WAS UPDATED (Ag03C1_D3H.en.tmp) ****
             **** THE GBW FILE WAS UPDATED (Ag03C1_D3H.gbw) ****
             **** DENSITY FILE WAS UPDATED (Ag03C1_D3H.scfp) ****
----------------
ORBITAL ENERGIES
----------------

  NO   OCC          E(Eh)            E(eV) 
   0   2.0000      -4.173385      -113.5636 
   1   2.0000      -4.172778      -113.5471 
   2   2.0000      -4.172776      -113.5470 
   3   2.0000      -2.713125       -73.8279 
   4   2.0000      -2.710013       -73.7432 
   5   2.0000      -2.710010       -73.7431 
   6   2.0000      -2.706493       -73.6474 
   7   2.0000      -2.706383       -73.6444 
   8   2.0000      -2.706127       -73.6374 
   9   2.0000      -2.706122       -73.6373 
  10   2.0000      -2.705764       -73.6276 
  11   2.0000      -2.705762       -73.6275 
  12   2.0000      -0.643823       -17.5193 
  13   2.0000      -0.626917       -17.0593 
  14   2.0000      -0.626915       -17.0592 
  15   2.0000      -0.621910       -16.9230 
  16   2.0000      -0.607368       -16.5273 
  17   2.0000      -0.604218       -16.4416 
  18   2.0000      -0.604212       -16.4415 
  19   2.0000      -0.584131       -15.8950 
  20   2.0000      -0.584130       -15.8950 
  21   2.0000      -0.580895       -15.8070 
  22   2.0000      -0.576970       -15.7002 
  23   2.0000      -0.576956       -15.6998 
  24   2.0000      -0.574831       -15.6419 
  25   2.0000      -0.574822       -15.6417 
  26   2.0000      -0.554636       -15.0924 
  27   2.0000      -0.441775       -12.0213 
  28   0.0000      -0.222271        -6.0483 
  29   0.0000      -0.222269        -6.0483 
  30   0.0000      -0.162422        -4.4197 
  31   0.0000      -0.129420        -3.5217 
  32   0.0000      -0.114321        -3.1108 
  33   0.0000      -0.114321        -3.1108 
  34   0.0000      -0.076171        -2.0727 
  35   0.0000      -0.076171        -2.0727 
  36   0.0000      -0.019214        -0.5228 
  37   0.0000      -0.019214        -0.5228 
  38   0.0000      -0.019203        -0.5225 
  39   0.0000      -0.001140        -0.0310 
  40   0.0000       0.057964         1.5773 
  41   0.0000       0.057968         1.5774 
  42   0.0000       0.058969         1.6046 
  43   0.0000       0.059524         1.6197 
  44   0.0000       0.081842         2.2270 
  45   0.0000       0.081843         2.2271 
  46   0.0000       0.126989         3.4556 
  47   0.0000       0.126991         3.4556 
  48   0.0000       0.197729         5.3805 
  49   0.0000       0.249151         6.7798 
  50   0.0000       0.259409         7.0589 
  51   0.0000       0.259411         7.0589 
  52   0.0000       0.283329         7.7098 
  53   0.0000       0.283331         7.7098 
  54   0.0000       0.297066         8.0836 
  55   0.0000       0.385416        10.4877 
  56   0.0000       0.385417        10.4877 
  57   0.0000       0.424265        11.5448 
  58   0.0000       0.452112        12.3026 
  59   0.0000       0.481676        13.1071 
  60   0.0000       0.481679        13.1072 
  61   0.0000       0.493227        13.4214 
  62   0.0000       0.493230        13.4215 
  63   0.0000       0.576659        15.6917 
  64   0.0000       0.576664        15.6918 
  65   0.0000       0.621051        16.8997 
  66   0.0000       1.404650        38.2225 
  67   0.0000       1.404653        38.2226 
  68   0.0000       1.440867        39.2080 
  69   0.0000       1.451632        39.5009 
  70   0.0000       1.483017        40.3549 
  71   0.0000       1.484782        40.4030 
  72   0.0000       1.484794        40.4033 
  73   0.0000       1.511916        41.1413 
  74   0.0000       1.511922        41.1415 
  75   0.0000       1.515059        41.2269 
  76   0.0000       1.530411        41.6446 
  77   0.0000       1.530421        41.6449 
  78   0.0000       1.531729        41.6805 
  79   0.0000       1.540775        41.9266 
  80   0.0000       1.540778        41.9267 
  81   0.0000       1.559070        42.4244 
  82   0.0000       1.559071        42.4245 
  83   0.0000       1.564511        42.5725 
  84   0.0000       1.575362        42.8678 
  85   0.0000       1.575367        42.8679 
  86   0.0000       1.585541        43.1448 
  87   0.0000       1.626488        44.2590 
  88   0.0000       1.642488        44.6944 
  89   0.0000       1.642503        44.6948 
  90   0.0000       1.668519        45.4027 
  91   0.0000       1.670439        45.4550 
  92   0.0000       1.670445        45.4551 
  93   0.0000       1.703313        46.3495 
  94   0.0000       1.703316        46.3496 
  95   0.0000       1.853388        50.4333 
  96   0.0000       1.921195        52.2784 
  97   0.0000       2.003076        54.5065 
  98   0.0000       2.013067        54.7784 
  99   0.0000       2.013090        54.7790 
 100   0.0000       2.045035        55.6482 
 101   0.0000       2.045060        55.6489 
 102   0.0000       2.048427        55.7405 
 103   0.0000       2.061970        56.1091 
 104   0.0000       2.072116        56.3851 
 105   0.0000       2.072160        56.3863 
 106   0.0000       2.090782        56.8931 
 107   0.0000       2.090833        56.8945 
 108   0.0000       2.193341        59.6838 
 109   0.0000       2.193374        59.6847 
 110   0.0000       2.223660        60.5089 
 111   0.0000       2.336678        63.5842 
 112   0.0000       2.518261        68.5254 
 113   0.0000       2.518262        68.5254 
 114   0.0000       4.822286       131.2211 
 115   0.0000       4.838612       131.6653 
 116   0.0000       4.838644       131.6662 
 117   0.0000       4.849238       131.9545 
 118   0.0000       4.851767       132.0233 
 119   0.0000       4.851812       132.0245 
 120   0.0000       4.859124       132.2235 
 121   0.0000       4.874637       132.6456 
 122   0.0000       4.878640       132.7545 
 123   0.0000       4.878663       132.7552 
 124   0.0000       4.887049       132.9834 
 125   0.0000       4.887093       132.9845 
 126   0.0000       4.892201       133.1235 
 127   0.0000       4.934885       134.2850 
 128   0.0000       4.956594       134.8758 
 129   0.0000       4.956630       134.8767 
 130   0.0000       4.958433       134.9258 
 131   0.0000       4.958534       134.9286 
 132   0.0000       5.113271       139.1392 
 133   0.0000       5.113277       139.1393 
 134   0.0000       5.130843       139.6173 
 135   0.0000       5.587616       152.0468 
 136   0.0000       5.588817       152.0794 
 137   0.0000       5.588861       152.0806 
 138   0.0000       5.589008       152.0846 
 139   0.0000       5.589143       152.0883 
 140   0.0000       5.589500       152.0980 
 141   0.0000       5.589589       152.1004 
 142   0.0000       5.589768       152.1053 
 143   0.0000       5.589807       152.1064 
 144   0.0000       5.590045       152.1129 
 145   0.0000       5.590179       152.1165 
 146   0.0000       5.590227       152.1178 
 147   0.0000       5.590789       152.1331 
 148   0.0000       5.590923       152.1367 
 149   0.0000       5.591390       152.1495 
 150   0.0000       5.591731       152.1587 
 151   0.0000       5.592122       152.1694 
 152   0.0000       5.592384       152.1765 
 153   0.0000       5.592391       152.1767 
 154   0.0000       5.592455       152.1784 
 155   0.0000       5.592536       152.1806 
 156   0.0000       5.592699       152.1851 
 157   0.0000       5.593350       152.2028 
 158   0.0000       5.593505       152.2070 
 159   0.0000       5.595427       152.2593 
 160   0.0000       5.603392       152.4761 
 161   0.0000       5.603453       152.4777 
 162   0.0000      33.345668       907.3818 
 163   0.0000      33.680839       916.5022 
 164   0.0000      33.680840       916.5022 
 165   0.0000     109.281912      2973.7120 
 166   0.0000     109.386893      2976.5687 
 167   0.0000     109.386897      2976.5688 

                    ********************************
                    * MULLIKEN POPULATION ANALYSIS *
                    ********************************

-----------------------
MULLIKEN ATOMIC CHARGES
-----------------------
   0 Ag:    0.333330
   1 Ag:    0.333336
   2 Ag:    0.333334
Sum of atomic charges:    1.0000000

--------------------------------
MULLIKEN REDUCED ORBITAL CHARGES
--------------------------------
  0 Ags       :     2.622225  s :     2.622225
      pz      :     2.006765  p :     6.096030
      px      :     2.007903
      py      :     2.081363
      dz2     :     1.994188  d :     9.946782
      dxz     :     1.997786
      dyz     :     1.995044
      dx2y2   :     1.990178
      dxy     :     1.969586
      f0      :     0.000135  f :     0.001613
      f+1     :     0.000096
      f-1     :     0.000286
      f+2     :     0.000086
      f-2     :     0.000178
      f+3     :     0.000507
      f-3     :     0.000324
      g0      :     0.000002  g :     0.000020
      g+1     :     0.000001
      g-1     :     0.000002
      g+2     :     0.000001
      g-2     :     0.000003
      g+3     :     0.000002
      g-3     :     0.000000
      g+4     :     0.000004
      g-4     :     0.000005
  1 Ags       :     2.622222  s :     2.622222
      pz      :     2.006764  p :     6.096031
      px      :     2.062999
      py      :     2.026267
      dz2     :     1.994187  d :     9.946779
      dxz     :     1.995731
      dyz     :     1.997100
      dx2y2   :     1.974733
      dxy     :     1.985028
      f0      :     0.000135  f :     0.001613
      f+1     :     0.000239
      f-1     :     0.000144
      f+2     :     0.000155
      f-2     :     0.000109
      f+3     :     0.000507
      f-3     :     0.000324
      g0      :     0.000002  g :     0.000020
      g+1     :     0.000002
      g-1     :     0.000001
      g+2     :     0.000002
      g-2     :     0.000002
      g+3     :     0.000002
      g-3     :     0.000000
      g+4     :     0.000005
      g-4     :     0.000004
  2 Ags       :     2.622223  s :     2.622223
      pz      :     2.006764  p :     6.096031
      px      :     2.062999
      py      :     2.026268
      dz2     :     1.994187  d :     9.946779
      dxz     :     1.995731
      dyz     :     1.997100
      dx2y2   :     1.974733
      dxy     :     1.985028
      f0      :     0.000135  f :     0.001613
      f+1     :     0.000239
      f-1     :     0.000144
      f+2     :     0.000155
      f-2     :     0.000109
      f+3     :     0.000507
      f-3     :     0.000324
      g0      :     0.000002  g :     0.000020
      g+1     :     0.000002
      g-1     :     0.000001
      g+2     :     0.000002
      g-2     :     0.000002
      g+3     :     0.000002
      g-3     :     0.000000
      g+4     :     0.000005
      g-4     :     0.000004


                     *******************************
                     * LOEWDIN POPULATION ANALYSIS *
                     *******************************

----------------------
LOEWDIN ATOMIC CHARGES
----------------------
   0 Ag:    0.333332
   1 Ag:    0.333334
   2 Ag:    0.333334

-------------------------------
LOEWDIN REDUCED ORBITAL CHARGES
-------------------------------
  0 Ags       :     2.526379  s :     2.526379
      pz      :     2.009501  p :     6.174317
      px      :     2.018081
      py      :     2.146735
      dz2     :     2.001068  d :     9.963662
      dxz     :     1.997135
      dyz     :     1.992816
      dx2y2   :     1.992367
      dxy     :     1.980276
      f0      :     0.000181  f :     0.002284
      f+1     :     0.000146
      f-1     :     0.000353
      f+2     :     0.000108
      f-2     :     0.000252
      f+3     :     0.000820
      f-3     :     0.000424
      g0      :     0.000002  g :     0.000026
      g+1     :     0.000001
      g-1     :     0.000002
      g+2     :     0.000001
      g-2     :     0.000004
      g+3     :     0.000003
      g-3     :     0.000000
      g+4     :     0.000005
      g-4     :     0.000007
  1 Ags       :     2.526374  s :     2.526374
      pz      :     2.009500  p :     6.174319
      px      :     2.114573
      py      :     2.050245
      dz2     :     2.001068  d :     9.963663
      dxz     :     1.993897
      dyz     :     1.996055
      dx2y2   :     1.983300
      dxy     :     1.989344
      f0      :     0.000181  f :     0.002284
      f+1     :     0.000302
      f-1     :     0.000198
      f+2     :     0.000216
      f-2     :     0.000144
      f+3     :     0.000819
      f-3     :     0.000424
      g0      :     0.000002  g :     0.000026
      g+1     :     0.000002
      g-1     :     0.000001
      g+2     :     0.000003
      g-2     :     0.000002
      g+3     :     0.000003
      g-3     :     0.000000
      g+4     :     0.000007
      g-4     :     0.000005
  2 Ags       :     2.526374  s :     2.526374
      pz      :     2.009500  p :     6.174319
      px      :     2.114573
      py      :     2.050245
      dz2     :     2.001068  d :     9.963663
      dxz     :     1.993897
      dyz     :     1.996055
      dx2y2   :     1.983300
      dxy     :     1.989344
      f0      :     0.000181  f :     0.002284
      f+1     :     0.000302
      f-1     :     0.000198
      f+2     :     0.000216
      f-2     :     0.000144
      f+3     :     0.000819
      f-3     :     0.000424
      g0      :     0.000002  g :     0.000026
      g+1     :     0.000002
      g-1     :     0.000001
      g+2     :     0.000003
      g-2     :     0.000002
      g+3     :     0.000003
      g-3     :     0.000000
      g+4     :     0.000007
      g-4     :     0.000005


                      *****************************
                      * MAYER POPULATION ANALYSIS *
                      *****************************

  NA   - Mulliken gross atomic population
  ZA   - Total nuclear charge
  QA   - Mulliken gross atomic charge
  VA   - Mayer's total valence
  BVA  - Mayer's bonded valence
  FA   - Mayer's free valence

  ATOM       NA         ZA         QA         VA         BVA        FA
  0 Ag    18.6667    19.0000     0.3333     1.0283     1.0283    -0.0000
  1 Ag    18.6667    19.0000     0.3333     1.0283     1.0283    -0.0000
  2 Ag    18.6667    19.0000     0.3333     1.0283     1.0283     0.0000

  Mayer bond orders larger than 0.100000
B(  0-Ag,  1-Ag) :   0.5142 B(  0-Ag,  2-Ag) :   0.5142 B(  1-Ag,  2-Ag) :   0.5141 


-------
TIMINGS
-------

Total SCF time: 0 days 0 hours 0 min 4 sec 

Total time                  ....       4.681 sec
Sum of individual times     ....       4.558 sec  ( 97.4%)

Fock matrix formation       ....       2.891 sec  ( 61.8%)
  XC integration            ....       0.352 sec  ( 12.2% of F)
    Basis function eval.    ....       0.047 sec  ( 13.2% of XC)
    Density eval.           ....       0.031 sec  (  8.8% of XC)
    XC-Functional eval.     ....       0.011 sec  (  3.2% of XC)
    XC-Potential eval.      ....       0.054 sec  ( 15.2% of XC)
Diagonalization             ....       0.043 sec  (  0.9%)
Density matrix formation    ....       0.008 sec  (  0.2%)
Population analysis         ....       0.005 sec  (  0.1%)
Initial guess               ....       1.235 sec  ( 26.4%)
Orbital Transformation      ....       0.000 sec  (  0.0%)
Orbital Orthonormalization  ....       0.000 sec  (  0.0%)
DIIS solution               ....       0.018 sec  (  0.4%)
Grid generation             ....       0.359 sec  (  7.7%)


           ************************************************************
           *        Program running with 24 parallel MPI-processes    *
           *              working on a common directory               *
           ************************************************************

------------------------------------------------------------------------------
                                ORCA  MP2 
------------------------------------------------------------------------------

Freezing NCore=0 chemical core electrons

-------------
RI-MP2 ENERGY
-------------
Dimension of the basis                    ...  168
Memory devoted to MP2                     ... 5000 MB   
Data format for buffers                   ... DOUBLE
Compression type for matrix containers    ... UNCOMPRESSED
Overall scaling of the MP2 energy         ...   2.700e-01
Calculating two index integrals           ... done (    0.013 sec)
Cholesky decomposition of V**-1           ... done (    0.015 sec)

-----------------
RI-TRANSFORMATION (AUX index driven)
-----------------

Dimension of the orbital-basis         ... 168
Dimension of the aux-basis             ... 528
Transformation of internal/external MOs...    0-  27 to   28- 167
Number Format for Storage              ... Double (8 Byte)
Integral mode                          ... Direct

First Phase: integral generation and transformation of MO indices
  Aux angular momentum 0               ... done (    0.001 sec)
  Aux angular momentum 1               ... done (    0.001 sec)
  Aux angular momentum 2               ... done (    0.002 sec)
  Aux angular momentum 3               ... done (    0.003 sec)
  Aux angular momentum 4               ... done (    0.005 sec)
  Aux angular momentum 5               ... done (    0.007 sec)
  Aux angular momentum 6               ... done (    0.011 sec)
Closing buffer VIA ( 0.02 GB; CompressionRatio= 1.00)
  Phase 1 completed in     0.101 sec
Second Phase: sorting and transformation of aux index

IA-Transformation
Memory available                       ... 4996 MB 
Max. # MO pairs treated in a batch     ... 2    
# of internal orbitals                 ... 28
# batches for internal orbitals        ... 1
Closing buffer IAV ( 0.00 GB; CompressionRatio= 1.00)
(ia|v) transformation done in     0.011 sec

  Phase 2 completed in     0.026 sec
RI-Integral transformation completed in     0.128 sec
Opening buffers                              ... done

Starting loop over batches of integrals:

Operator 0  - window                       ... (  0- 27)x( 28-167)
Operator 0  - Memory available             ...  5000 MB
Operator 0  - Memory needed per MO         ...   0.6 MB
Operator 0  - Number of orbitals per batch ... 2
Operator 0  - Number of batches            ... 1

OPERATOR  0   PASS   0:  MOs     0 ...    1 +    2 ...    3 +    4 ...    5 +    6 ...    7
                            +    8 ...    9 +   10 ...   11 +   12 ...   13 +   14 ...   15
                            +   16 ...   17 +   18 ...   19 +   20 ...   21 +   22 ...   23
                            +   24 ...   25 +   26 ...   27
  Reading integrals       ... ok
Time spent in pair loops =     0.003 sec

-----------------------------------------------
 RI-MP2 CORRELATION ENERGY:     -0.623186785 Eh
-----------------------------------------------


-------
TIMINGS
-------

Total time                :    0.203 sec
Integral trafo            :    0.144 sec ( 70.9%)
I/O of integrals          :    0.001 sec (  0.4%)
K(i,j) Operators          :    0.001 sec (  0.6%)
T(i,j) pair energies      :    0.000 sec (  0.1%)
V-calculation             :    0.013 sec (  6.3%)
V**(-1/2)                 :    0.015 sec (  7.2%)
Gamma(ia|P)               :    0.000 sec (  0.0%)
Gamma-Trafo               :    0.000 sec (  0.0%)
D(virtual)                :    0.000 sec (  0.0%)
D(internal)               :    0.000 sec (  0.0%)
W(virtual)                :    0.000 sec (  0.0%)
W(internal)               :    0.000 sec (  0.0%)
L(virtual)                :    0.000 sec (  0.0%)
L(internal)               :    0.000 sec (  0.0%)
G(D)                      :    0.000 sec (  0.0%)
G(Z)                      :    0.000 sec (  0.0%)
Z-Vector Solution         :    0.000 sec (  0.0%)
Z-Vector Solution         :    0.000 sec (  0.0%)
3-Index Derivative 
+ Separable RIJ part      :    0.000 sec (  0.0%)
2-Index Derivative 
+ Separable RIJ part      :    0.000 sec (  0.0%)
Separable Gradient (X)    :    0.000 sec (  0.0%)


---------------------------------------
MP2 TOTAL ENERGY:     -440.538868187 Eh
---------------------------------------


-------------------------------------------------------------------------------
                          DFT DISPERSION CORRECTION                            
                                                                               
                              DFTD3 V3.1  Rev 1                                
                          USING Becke-Johnson damping                          
-------------------------------------------------------------------------------
The B2PLYP functional is recognized
Active option DFTDOPT                   ...         4   

molecular C6(AA) [au] = 2417.546456 


            DFT-D V3
 parameters
 s6 scaling factor         :     0.6400 
 a1 scaling factor         :     0.3065 
 s8 scaling factor         :     0.9147 
 a2 scaling factor         :     5.0570 
 ad hoc parameters k1-k3   :    16.0000     1.3333    -4.0000 

 Edisp/kcal,au: -3.732487490859  -0.005948096797 
 E6   /kcal   :  -1.209681755 
 E8   /kcal   :  -2.522805736 
 % E8         :  67.590467264 

-------------------------   ----------------
Dispersion correction           -0.005948097
-------------------------   ----------------


-------------------------   --------------------
FINAL SINGLE POINT ENERGY      -440.544816283505
-------------------------   --------------------


                            ***************************************
                            *     ORCA property calculations      *
                            ***************************************


  WARNING: The energy has been calculated at the MP2 level but the densities
           used in the property calculations are still SCF densities
           MP2 response densities have not been calculated 
           use %mp2 Density relaxed end
           or  %mp2 Density unrelaxed end

                                    ---------------------
                                    Active property flags
                                    ---------------------
   (+) Dipole Moment


------------------------------------------------------------------------------
                       ORCA ELECTRIC PROPERTIES CALCULATION
------------------------------------------------------------------------------

Dipole Moment Calculation                       ... on
Quadrupole Moment Calculation                   ... off
Polarizability Calculation                      ... off
GBWName                                         ... Ag03C1_D3H.gbw
Electron density file                           ... Ag03C1_D3H.scfp
The origin for moment calculation is the CENTER OF MASS  = ( 0.000000,  0.000001  0.000000)

-------------
DIPOLE MOMENT
-------------
                                X             Y             Z
Electronic contribution:     -0.00000      -0.00001      -0.00000
Nuclear contribution   :      0.00000       0.00000       0.00000
                        -----------------------------------------
Total Dipole Moment    :     -0.00000      -0.00001      -0.00000
                        -----------------------------------------
Magnitude (a.u.)       :      0.00001
Magnitude (Debye)      :      0.00003



--------------------
Rotational spectrum 
--------------------
 
Rotational constants in cm-1:     0.044514     0.044514     0.022257 
Rotational constants in MHz :  1334.482437  1334.482320   667.241189 

 Dipole components along the rotational axes: 
x,y,z [a.u.] :    -0.000012    -0.000000    -0.000000 
x,y,z [Debye]:    -0.000030    -0.000000    -0.000000 

 

Timings for individual modules:

Sum of individual times         ...        6.668 sec (=   0.111 min)
GTO integral calculation        ...        1.030 sec (=   0.017 min)  15.4 %
SCF iterations                  ...        5.001 sec (=   0.083 min)  75.0 %
MP2 module                      ...        0.637 sec (=   0.011 min)   9.6 %
                             ****ORCA TERMINATED NORMALLY****
TOTAL RUN TIME: 0 days 0 hours 0 minutes 7 seconds 152 msec
