
                                 *****************
                                 * O   R   C   A *
                                 *****************

           --- An Ab Initio, DFT and Semiempirical electronic structure package ---

                  #######################################################
                  #                        -***-                        #
                  #          Department of theory and spectroscopy      #
                  #               Directorship: Frank Neese             #
                  #        Max Planck Institute fuer Kohlenforschung    #
                  #                Kaiser Wilhelm Platz 1               #
                  #                 D-45470 Muelheim/Ruhr               #
                  #                      Germany                        #
                  #                                                     #
                  #                  All rights reserved                #
                  #                        -***-                        #
                  #######################################################


                         Program Version 4.2.0 -  RELEASE  -


 With contributions from (in alphabetic order):
   Daniel Aravena         : Magnetic Suceptibility
   Michael Atanasov       : Ab Initio Ligand Field Theory (pilot matlab implementation)
   Alexander A. Auer      : GIAO ZORA, VPT2
   Ute Becker             : Parallelization
   Giovanni Bistoni       : ED, misc. LED, open-shell LED, HFLED
   Martin Brehm           : Molecular dynamics
   Dmytro Bykov           : SCF Hessian
   Vijay G. Chilkuri      : MRCI spin determinant printing, contributions to CSF-ICE
   Dipayan Datta          : RHF DLPNO-CCSD density
   Achintya Kumar Dutta   : EOM-CC, STEOM-CC
   Dmitry Ganyushin       : Spin-Orbit,Spin-Spin,Magnetic field MRCI
   Miquel Garcia          : C-PCM Hessian, Gaussian charge scheme
   Yang Guo               : DLPNO-NEVPT2, CIM, IAO-localization
   Andreas Hansen         : Spin unrestricted coupled pair/coupled cluster methods
   Benjamin Helmich-Paris : CASSCF linear response (MC-RPA)
   Lee Huntington         : MR-EOM, pCC
   Robert Izsak           : Overlap fitted RIJCOSX, COSX-SCS-MP3, EOM
   Christian Kollmar      : KDIIS, OOCD, Brueckner-CCSD(T), CCSD density
   Simone Kossmann        : Meta GGA functionals, TD-DFT gradient, OOMP2, MP2 Hessian
   Martin Krupicka        : AUTO-CI
   Lucas Lang             : DCDCAS
   Dagmar Lenk            : GEPOL surface, SMD
   Dimitrios Liakos       : Extrapolation schemes; Compound Job, initial MDCI parallelization
   Dimitrios Manganas     : Further ROCIS development; embedding schemes
   Dimitrios Pantazis     : SARC Basis sets
   Taras Petrenko         : DFT Hessian,TD-DFT gradient, ASA, ECA, R-Raman, ABS, FL, XAS/XES, NRVS
   Peter Pinski           : DLPNO-MP2, DLPNO-MP2 Gradient
   Christoph Reimann      : Effective Core Potentials
   Marius Retegan         : Local ZFS, SOC
   Christoph Riplinger    : Optimizer, TS searches, QM/MM, DLPNO-CCSD(T), (RO)-DLPNO pert. Triples
   Tobias Risthaus        : Range-separated hybrids, TD-DFT gradient, RPA, STAB
   Michael Roemelt        : Original ROCIS implementation
   Masaaki Saitow         : Open-shell DLPNO-CCSD energy and density
   Barbara Sandhoefer     : DKH picture change effects
   Avijit Sen             : IP-ROCIS
   Kantharuban Sivalingam : CASSCF convergence, NEVPT2, FIC-MRCI
   Bernardo de Souza      : ESD, SOC TD-DFT
   Georgi Stoychev        : AutoAux, RI-MP2 NMR
   Willem Van den Heuvel  : Paramagnetic NMR
   Boris Wezisla          : Elementary symmetry handling
   Frank Wennmohs         : Technical directorship


 We gratefully acknowledge several colleagues who have allowed us to
 interface, adapt or use parts of their codes:
   Stefan Grimme, W. Hujo, H. Kruse,             : VdW corrections, initial TS optimization,
                  C. Bannwarth                     DFT functionals, gCP, sTDA/sTD-DF
   Ed Valeev, F. Pavosevic, A. Kumar             : LibInt (2-el integral package), F12 methods
   Garnet Chan, S. Sharma, J. Yang, R. Olivares  : DMRG
   Ulf Ekstrom                                   : XCFun DFT Library
   Mihaly Kallay                                 : mrcc  (arbitrary order and MRCC methods)
   Andreas Klamt, Michael Diedenhofen            : otool_cosmo (COSMO solvation model)
   Jiri Pittner, Ondrej Demel                    : Mk-CCSD
   Frank Weinhold                                : gennbo (NPA and NBO analysis)
   Christopher J. Cramer and Donald G. Truhlar   : smd solvation model
   Lars Goerigk                                  : TD-DFT with DH, B97 family of functionals
   V. Asgeirsson, H. Jonsson                     : NEB implementation
   FAccTs GmbH                                   : IRC, NEB, NEB-TS, Multilevel, MM, QM/MM, CI optimization
   S Lehtola, MJT Oliveira, MAL Marques          : LibXC Library


 Your calculation uses the libint2 library for the computation of 2-el integrals
 For citations please refer to: http://libint.valeyev.net

 Your ORCA version has been built with support for libXC version: 4.2.3
 For citations please refer to: https://tddft.org/programs/libxc/

 This ORCA versions uses:
   CBLAS   interface :  Fast vector & matrix operations
   LAPACKE interface :  Fast linear algebra routines
   SCALAPACK package :  Parallel linear algebra routines


Your calculation utilizes the atom-pairwise dispersion correction
with the Becke-Johnson damping scheme (D3BJ)
Cite in your paper:
S.Grimme, S.Ehrlich, L.Goerigk, J Comput Chem, (2011), 32, 1456–1465 
S.Grimme, J.Antony, S.Ehrlich and H.Krieg, J.Chem.Phys., 132, (2010), 154104 
   

----- Orbital basis set information -----
Your calculation utilizes the basis: def2-TZVPPD
   F. Weigend and R. Ahlrichs, Phys. Chem. Chem. Phys. 7, 3297 (2005).
   D. Rappoport and F. Furche, J. Chem. Phys. 133 134105 (2010).

----- AuxC basis set information -----
Your calculation utilizes the auxiliary basis: def2-TZVPPD/C
   A. Hellweg, C. Hattig, S. Hofener and W. Klopper, Theor. Chem. Acc. 117, 587 (2007).

----- AuxJK basis set information -----
Your calculation utilizes the auxiliary basis: def2/JK
   H-Ba, Hf-Rn: F. Weigend, J. Comput. Chem. 29, 167 (2008).

cite the ECPs for Ag [Def2-ECP] as follows:
Ce-Yb(ecp-28): M. Dolg, H. Stoll, H.Preuss, J. Chem. Phys., 1989, 90, 1730-1734.
Y-Cd(ecp-28), Hf-Hg(ecp-46): D. Andrae,U. Haeussermann, M. Dolg, H. Stoll, H. Preuss, Theor. Chim. Acta, 1990, 77, 123-141.
In-Sb(ecp-28), Tl-Bi(ecp-46): B. Metz, H. Stoll, M. Dolg, J. Chem. Phys., 2000, 113, 2563-2569.
Te-Xe(ecp-28), Po-Rn(ecp-46): K. A. Peterson, D. Figgen, E. Goll, H. Stoll, M. Dolg, J. Chem. Phys., 2003, 119, 11113-11123.
Rb(ecp-28), Cs(ecp-46): T. Leininger, A. Nicklass, W. Kuechle, H. Stoll, M. Dolg, A. Bergner, Chem. Phys. Lett., 1996, 255, 274-280.
Sr(ecp-28), Ba(ecp-46): M. Kaupp, P. V. Schleyer, H. Stoll and H. Preuss, J. Chem. Phys., 1991, 94, 1360-1366.
La(ecp-46): M. Dolg, H. Stoll, A. Savin, H. Preuss, Theor. Chim. Acta, 1989, 75, 173-194.
Lu(ecp-28): X. Cao, M. Dolg, J. Chem. Phys., 2001, 115, 7348-7355.

ECP parameters for Ag [Def2-ECP] have been obtained from:
TURBOMOLE (7.0.2)

================================================================================
                                        WARNINGS
                       Please study these warnings very carefully!
================================================================================


WARNING: your system is open-shell and RHF/RKS was chosen
  ===> : WILL SWITCH to UHF/UKS


WARNING: No MP2 level density has been requested!
         To caclulate MP2 level properties use
         %mp2 Density relaxed end
         or
         %mp2 Density unrelaxed end
         Otherwise for double-hybrid DFT only the energy is correct!

WARNING: The frozen-core approximation is turned on by default for 
         the MP2 part of double-hybrid DFT.

INFO   : the flag for use of LIBINT has been found!

================================================================================
                                       INPUT FILE
================================================================================
NAME = Ag03N0_LIN.in
|  1> #
|  2> # Ag03N0_LIN ri-B2PLYP-D3BJ/Def2-TZVPPD
|  3> #
|  4> ! rijk ri-b2plyp d3bj def2-tzvppd def2/jk def2-tzvppd/c grid4 nofinalgrid
|  5> 
|  6> *xyz 0 2
|  7> Ag       0.000000    0.000000    0.000000 
|  8> Ag       0.000000    0.000000    2.592532 
|  9> Ag       0.000000    0.000000   -2.592532 
| 10> *
| 11> 
| 12> %maxcore 5000
| 13> 
| 14> %pal
| 15> nprocs = 24
| 16> end
| 17> 
| 18> 
| 19>                          ****END OF INPUT****
================================================================================

                       ****************************
                       * Single Point Calculation *
                       ****************************

---------------------------------
CARTESIAN COORDINATES (ANGSTROEM)
---------------------------------
  Ag     0.000000    0.000000    0.000000
  Ag     0.000000    0.000000    2.592532
  Ag     0.000000    0.000000   -2.592532

----------------------------
CARTESIAN COORDINATES (A.U.)
----------------------------
  NO LB      ZA    FRAG     MASS         X           Y           Z
   0 Ag   19.0000*   0   107.870    0.000000    0.000000    0.000000
   1 Ag   19.0000*   0   107.870    0.000000    0.000000    4.899175
   2 Ag   19.0000*   0   107.870    0.000000    0.000000   -4.899175
* core charge reduced due to ECP

--------------------------------
INTERNAL COORDINATES (ANGSTROEM)
--------------------------------
 Ag     0   0   0     0.000000000000     0.00000000     0.00000000
 Ag     1   0   0     2.592532000000     0.00000000     0.00000000
 Ag     1   2   0     2.592532000000   180.00000000     0.00000000

---------------------------
INTERNAL COORDINATES (A.U.)
---------------------------
 Ag     0   0   0     0.000000000000     0.00000000     0.00000000
 Ag     1   0   0     4.899175473427     0.00000000     0.00000000
 Ag     1   2   0     4.899175473427   180.00000000     0.00000000

---------------------
BASIS SET INFORMATION
---------------------
There are 1 groups of distinct atoms

 Group   1 Type Ag  : 7s7p6d2f1g contracted to 6s4p3d2f1g pattern {211111/4111/411/11/1}

Atom   0Ag   basis set group =>   1
Atom   1Ag   basis set group =>   1
Atom   2Ag   basis set group =>   1
---------------------------------
AUXILIARY/C BASIS SET INFORMATION
---------------------------------
There are 1 groups of distinct atoms

 Group   1 Type Ag  : 8s7p6d5f4g3h1i contracted to 8s7p6d5f4g3h1i pattern {11111111/1111111/111111/11111/1111/111/1}

Atom   0Ag   basis set group =>   1
Atom   1Ag   basis set group =>   1
Atom   2Ag   basis set group =>   1
----------------------------------
AUXILIARY/JK BASIS SET INFORMATION
----------------------------------
There are 1 groups of distinct atoms

 Group   1 Type Ag  : 13s12p10d9f6g3h2i contracted to 11s10p9d8f6g3h2i pattern {31111111111/3111111111/211111111/21111111/111111/111/11}

Atom   0Ag   basis set group =>   1
Atom   1Ag   basis set group =>   1
Atom   2Ag   basis set group =>   1
-------------------------
ECP PARAMETER INFORMATION
-------------------------

 Group 1, Type Ag ECP Def2-ECP (replacing 28 core electrons, lmax=3)

Atom   0Ag   ECP group =>   1
Atom   1Ag   ECP group =>   1
Atom   2Ag   ECP group =>   1



           ************************************************************
           *        Program running with 24 parallel MPI-processes    *
           *              working on a common directory               *
           ************************************************************
------------------------------------------------------------------------------
                           ORCA GTO INTEGRAL CALCULATION
                           -- RI-GTO INTEGRALS CHOSEN --
------------------------------------------------------------------------------

                         BASIS SET STATISTICS AND STARTUP INFO

Gaussian basis set:
 # of primitive gaussian shells          ...   69
 # of primitive gaussian functions       ...  243
 # of contracted shells                  ...   48
 # of contracted basis functions         ...  168
 Highest angular momentum                ...    4
 Maximum contraction depth               ...    4
Auxiliary gaussian basis set:
 # of primitive gaussian shells          ...  165
 # of primitive gaussian functions       ...  825
 # of contracted shells                  ...  147
 # of contracted aux-basis functions     ...  765
 Highest angular momentum                ...    6
 Maximum contraction depth               ...    3
Ratio of auxiliary to basis functions    ...  4.55
Integral package used                  ... LIBINT
 One Electron integrals                  
   ECP integrals                         ... done
 Ordering auxiliary basis shells         ... done
 Integral threshhold             Thresh  ...  1.000e-10
 Primitive cut-off               TCut    ...  1.000e-11
 Pre-screening matrix                    ... done
 Shell pair data                         ... 
 Ordering of the shell pairs             ... done (   0.000 sec) 1062 of 1176 pairs
 Determination of significant pairs      ... done (   0.000 sec)
 Creation of shell pair data             ... done (   0.000 sec)
 Storage of shell pair data              ... done (   0.004 sec)
 Shell pair data done in (   0.004 sec)
 Computing two index integrals           ... done
 Cholesky decomposition of the V-matrix  ... done


Timings:
 Total evaluation time                   ...   0.721 sec (  0.012 min)
 One electron matrix time                ...   0.330 sec (  0.006 min) = 45.8%
 Schwartz matrix evaluation time         ...   0.155 sec (  0.003 min) = 21.5%
 Two index repulsion integral time       ...   0.169 sec (  0.003 min) = 23.4%
 Cholesky decomposition of V             ...   0.009 sec (  0.000 min) =  1.2%
 Three index repulsion integral time     ...   0.000 sec (  0.000 min) =  0.0%



           ************************************************************
           *        Program running with 24 parallel MPI-processes    *
           *              working on a common directory               *
           ************************************************************
-------------------------------------------------------------------------------
                                 ORCA SCF
-------------------------------------------------------------------------------

------------
SCF SETTINGS
------------
Hamiltonian:
 Density Functional     Method          .... DFT(GTOs)
 Exchange Functional    Exchange        .... B88
   X-Alpha parameter    XAlpha          ....  0.666667
   Becke's b parameter  XBeta           ....  0.004200
 Correlation Functional Correlation     .... LYP
 LDA part of GGA corr.  LDAOpt          .... VWN-3
 Gradients option       PostSCFGGA      .... off
 Hybrid DFT is turned on
   Fraction HF Exchange ScalHFX         ....  0.530000
   Scaling of DF-GGA-X  ScalDFX         ....  0.470000
   Scaling of DF-GGA-C  ScalDFC         ....  0.730000
   Scaling of DF-LDA-C  ScalLDAC        ....  0.730000
   Perturbative correction              ....  0.270000
   Density functional embedding theory  .... OFF
 RI-approximation to the Coulomb term is turned on
   Number of auxiliary basis functions  .... 765
   RI-JK (J+K treated both via RI)      .... on


General Settings:
 Integral files         IntName         .... Ag03N0_LIN
 Hartree-Fock type      HFTyp           .... UHF
 Total Charge           Charge          ....    0
 Multiplicity           Mult            ....    2
 Number of Electrons    NEL             ....   57
 Basis Dimension        Dim             ....  168
 Nuclear Repulsion      ENuc            ....    184.2146714065 Eh

Convergence Acceleration:
 DIIS                   CNVDIIS         .... on
   Start iteration      DIISMaxIt       ....    12
   Startup error        DIISStart       ....  0.200000
   # of expansion vecs  DIISMaxEq       ....     5
   Bias factor          DIISBfac        ....   1.050
   Max. coefficient     DIISMaxC        ....  10.000
 Newton-Raphson         CNVNR           .... off
 SOSCF                  CNVSOSCF        .... off
 Level Shifting         CNVShift        .... on
   Level shift para.    LevelShift      ....    0.2500
   Turn off err/grad.   ShiftErr        ....    0.0010
 Zerner damping         CNVZerner       .... off
 Static damping         CNVDamp         .... on
   Fraction old density DampFac         ....    0.7000
   Max. Damping (<1)    DampMax         ....    0.9800
   Min. Damping (>=0)   DampMin         ....    0.0000
   Turn off err/grad.   DampErr         ....    0.1000
 Fernandez-Rico         CNVRico         .... off

SCF Procedure:
 Maximum # iterations   MaxIter         ....   125
 SCF integral mode      SCFMode         .... Direct
   Integral package                     .... LIBINT
 Reset frequency        DirectResetFreq ....    20
 Integral Threshold     Thresh          ....  1.000e-10 Eh
 Primitive CutOff       TCut            ....  1.000e-11 Eh

Convergence Tolerance:
 Convergence Check Mode ConvCheckMode   .... Total+1el-Energy
 Convergence forced     ConvForced      .... 0
 Energy Change          TolE            ....  1.000e-06 Eh
 1-El. energy change                    ....  1.000e-03 Eh
 DIIS Error             TolErr          ....  1.000e-06


Diagonalization of the overlap matrix:
Smallest eigenvalue                        ... 1.205e-03
Time for diagonalization                   ...    0.005 sec
Threshold for overlap eigenvalues          ... 1.000e-08
Number of eigenvalues below threshold      ... 0
Time for construction of square roots      ...    0.003 sec
Total time needed                          ...    0.009 sec

-------------------
DFT GRID GENERATION
-------------------

General Integration Accuracy     IntAcc      ...  4.670
Radial Grid Type                 RadialGrid  ... Gauss-Chebyshev
Angular Grid (max. acc.)         AngularGrid ... Lebedev-302
Angular grid pruning method      GridPruning ... 3 (G Style)
Weight generation scheme         WeightScheme... Becke
Basis function cutoff            BFCut       ...    1.0000e-10
Integration weight cutoff        WCut        ...    1.0000e-14
Grids for H and He will be reduced by one unit

# of grid points (after initial pruning)     ...  31974 (   0.0 sec)
# of grid points (after weights+screening)   ...  31762 (   0.0 sec)
nearest neighbour list constructed           ...    0.0 sec
Grid point re-assignment to atoms done       ...    0.0 sec
Grid point division into batches done        ...    0.3 sec
Reduced shell lists constructed in    0.3 sec

Total number of grid points                  ...    31762
Total number of batches                      ...      498
Average number of points per batch           ...       63
Average number of grid points per atom       ...    10587
Average number of shells per batch           ...    11.91 (24.81%)
Average number of basis functions per batch  ...    30.45 (18.13%)
Average number of large shells per batch     ...     9.77 (82.06%)
Average number of large basis fcns per batch ...    24.32 (79.85%)
Average number of aux-shells per batch       ...    11.91 ( 8.10%)
Average number of aux functions per batch    ...    30.45 ( 3.98%)
Maximum spatial batch extension              ...  36.77, 36.77,  4.81 au
Average spatial batch extension              ...   0.55,  0.56,  0.20 au

Time for grid setup =    0.449 sec

------------------------------
INITIAL GUESS: MODEL POTENTIAL
------------------------------
Loading Hartree-Fock densities                     ... done
  calling /sw/apps/orca/orca_4_2_0_linux_x86-64_openmpi314/orca Ag03N0_LIN_atom47.inp > Ag03N0_LIN_atom47.out in order to generate an atomic fitting density for atom 0 (Ag with ECP) on-the-fly... 
    atom 0 (Ag), assumed electronic state with S=2: 1s2 2s2 2p6 3s2 3p6 4s2 3d10 4p6 5s2 4d9           ... done
Calculating cut-offs                               ... done
Setting up the integral package                    ... done
Initializing the effective Hamiltonian             ... done
Starting the Coulomb interaction                   ... done (   0.0 sec)
Reading the grid                                   ... done
Mapping shells                                     ... done
Starting the XC term evaluation                    ... done (   0.0 sec)
  promolecular density results
     # of electrons  =    141.001771318
     EX              =   -432.229898683
     EC              =     -2.703870472
     EX+EC           =   -434.933769155
Transforming the Hamiltonian                       ... done (   0.0 sec)
Diagonalizing the Hamiltonian                      ... done (   0.0 sec)
Back transforming the eigenvectors                 ... done (   0.0 sec)
Now organizing SCF variables                       ... done
                      ------------------
                      INITIAL GUESS DONE (   2.0 sec)
                      ------------------
--------------
SCF ITERATIONS
--------------
ITER       Energy         Delta-E        Max-DP      RMS-DP      [F,P]     Damp
  0   -439.8810467475   0.000000000000 0.06289427  0.00127039  0.4929341 0.7000
  1   -439.5923301790   0.288716568455 0.05945041  0.00103396  0.3407380 0.7000
  2   -439.7286315676  -0.136301388593 0.04409944  0.00058676  0.2221939 0.7000
                               ***Turning on DIIS***
  3   -439.9424241887  -0.213792621111 0.02970538  0.00032501  0.1481186 0.7000
  4   -440.0726551167  -0.130230927937 0.01964035  0.00024155  0.1028469 0.7000
  5   -440.1349457437  -0.062290627060 0.05210730  0.00070579  0.0745384 0.0000
  6   -440.1065606842   0.028385059497 0.00426358  0.00011885  0.0221256 0.0000
  7   -440.1084609420  -0.001900257772 0.00314709  0.00007491  0.0080087 0.0000
  8   -440.1087674158  -0.000306473798 0.00237652  0.00004015  0.0030957 0.0000
  9   -440.1088268633  -0.000059447540 0.00290959  0.00003728  0.0009798 0.0000
 10   -440.1088393684  -0.000012505102 0.00167765  0.00001272  0.0003310 0.0000
 11   -440.1088416740  -0.000002305529 0.00085047  0.00000857  0.0001994 0.0000
                 **** Energy Check signals convergence ****

               *****************************************************
               *                     SUCCESS                       *
               *           SCF CONVERGED AFTER  12 CYCLES          *
               *****************************************************


----------------
TOTAL SCF ENERGY
----------------

Total Energy       :         -440.10884264 Eh          -11975.97045 eV

Components:
Nuclear Repulsion  :          184.21467141 Eh            5012.73605 eV
Electronic Energy  :         -624.32351405 Eh          -16988.70651 eV
One Electron Energy:        -1152.51981157 Eh          -31361.65847 eV
Two Electron Energy:          528.19629753 Eh           14372.95196 eV

Virial components:
Potential Energy   :         -609.43830641 Eh          -16583.65941 eV
Kinetic Energy     :          169.32946377 Eh            4607.68896 eV
Virial Ratio       :            3.59912736


DFT components:
N(Alpha)           :       28.999979253137 electrons
N(Beta)            :       27.999979531120 electrons
N(Total)           :       56.999958784256 electrons
E(X)               :      -18.935814778388 Eh       
E(C)               :       -1.574786463595 Eh       
E(XC)              :      -20.510601241984 Eh       
DFET-embed. en.    :        0.000000000000 Eh       

---------------
SCF CONVERGENCE
---------------

  Last Energy change         ...   -9.6482e-07  Tolerance :   1.0000e-06
  Last MAX-Density change    ...    6.5738e-04  Tolerance :   1.0000e-05
  Last RMS-Density change    ...    5.5545e-06  Tolerance :   1.0000e-06
  Last DIIS Error            ...    5.5599e-05  Tolerance :   1.0000e-06

             **** THE GBW FILE WAS UPDATED (Ag03N0_LIN.gbw) ****
             **** DENSITY FILE WAS UPDATED (Ag03N0_LIN.scfp) ****
             **** ENERGY FILE WAS UPDATED (Ag03N0_LIN.en.tmp) ****
----------------------
UHF SPIN CONTAMINATION
----------------------

Warning: in a DFT calculation there is little theoretical justification to 
         calculate <S**2> as in Hartree-Fock theory. We will do it anyways
         but you should keep in mind that the values have only limited relevance

Expectation value of <S**2>     :     0.786023
Ideal value S*(S+1) for S=0.5   :     0.750000
Deviation                       :     0.036023

             **** THE GBW FILE WAS UPDATED (Ag03N0_LIN.gbw) ****
             **** DENSITY FILE WAS UPDATED (Ag03N0_LIN.scfp) ****
----------------
ORBITAL ENERGIES
----------------
                 SPIN UP ORBITALS
  NO   OCC          E(Eh)            E(eV) 
   0   1.0000      -3.981107      -108.3314 
   1   1.0000      -3.981099      -108.3312 
   2   1.0000      -3.966078      -107.9225 
   3   1.0000      -2.518034       -68.5192 
   4   1.0000      -2.516622       -68.4808 
   5   1.0000      -2.513774       -68.4033 
   6   1.0000      -2.513774       -68.4033 
   7   1.0000      -2.513768       -68.4031 
   8   1.0000      -2.513768       -68.4031 
   9   1.0000      -2.502114       -68.0860 
  10   1.0000      -2.498347       -67.9835 
  11   1.0000      -2.498347       -67.9835 
  12   1.0000      -0.449948       -12.2437 
  13   1.0000      -0.425188       -11.5700 
  14   1.0000      -0.425188       -11.5700 
  15   1.0000      -0.408272       -11.1097 
  16   1.0000      -0.406488       -11.0611 
  17   1.0000      -0.406488       -11.0611 
  18   1.0000      -0.403445       -10.9783 
  19   1.0000      -0.403444       -10.9783 
  20   1.0000      -0.402233       -10.9453 
  21   1.0000      -0.402232       -10.9453 
  22   1.0000      -0.382717       -10.4143 
  23   1.0000      -0.382716       -10.4142 
  24   1.0000      -0.368681       -10.0323 
  25   1.0000      -0.368681       -10.0323 
  26   1.0000      -0.358218        -9.7476 
  27   1.0000      -0.248542        -6.7632 
  28   1.0000      -0.206541        -5.6203 
  29   0.0000      -0.038456        -1.0465 
  30   0.0000      -0.003446        -0.0938 
  31   0.0000      -0.003446        -0.0938 
  32   0.0000       0.025067         0.6821 
  33   0.0000       0.029497         0.8027 
  34   0.0000       0.029497         0.8027 
  35   0.0000       0.096564         2.6277 
  36   0.0000       0.096564         2.6277 
  37   0.0000       0.110033         2.9942 
  38   0.0000       0.123538         3.3616 
  39   0.0000       0.131560         3.5799 
  40   0.0000       0.177523         4.8307 
  41   0.0000       0.212469         5.7816 
  42   0.0000       0.217347         5.9143 
  43   0.0000       0.217347         5.9143 
  44   0.0000       0.251755         6.8506 
  45   0.0000       0.251755         6.8506 
  46   0.0000       0.300826         8.1859 
  47   0.0000       0.313630         8.5343 
  48   0.0000       0.313630         8.5343 
  49   0.0000       0.359339         9.7781 
  50   0.0000       0.422989        11.5101 
  51   0.0000       0.422991        11.5102 
  52   0.0000       0.464010        12.6263 
  53   0.0000       0.464011        12.6264 
  54   0.0000       0.465728        12.6731 
  55   0.0000       0.465728        12.6731 
  56   0.0000       0.511490        13.9184 
  57   0.0000       0.554036        15.0761 
  58   0.0000       0.554038        15.0761 
  59   0.0000       0.567390        15.4395 
  60   0.0000       0.567390        15.4395 
  61   0.0000       0.678185        18.4544 
  62   0.0000       0.757750        20.6194 
  63   0.0000       0.757750        20.6194 
  64   0.0000       0.757932        20.6244 
  65   0.0000       0.832027        22.6406 
  66   0.0000       1.549688        42.1692 
  67   0.0000       1.654213        45.0134 
  68   0.0000       1.654213        45.0134 
  69   0.0000       1.703580        46.3568 
  70   0.0000       1.703582        46.3568 
  71   0.0000       1.715426        46.6791 
  72   0.0000       1.715426        46.6791 
  73   0.0000       1.715496        46.6810 
  74   0.0000       1.715496        46.6810 
  75   0.0000       1.716236        46.7012 
  76   0.0000       1.716238        46.7012 
  77   0.0000       1.727160        46.9984 
  78   0.0000       1.727160        46.9984 
  79   0.0000       1.730802        47.0975 
  80   0.0000       1.733931        47.1827 
  81   0.0000       1.733931        47.1827 
  82   0.0000       1.736774        47.2600 
  83   0.0000       1.736774        47.2600 
  84   0.0000       1.743887        47.4536 
  85   0.0000       1.743889        47.4536 
  86   0.0000       1.760585        47.9080 
  87   0.0000       1.760585        47.9080 
  88   0.0000       1.798256        48.9330 
  89   0.0000       1.806011        49.1441 
  90   0.0000       1.806011        49.1441 
  91   0.0000       1.808187        49.2033 
  92   0.0000       1.877231        51.0820 
  93   0.0000       1.877231        51.0820 
  94   0.0000       1.901273        51.7363 
  95   0.0000       2.036276        55.4099 
  96   0.0000       2.074818        56.4587 
  97   0.0000       2.176834        59.2347 
  98   0.0000       2.176845        59.2350 
  99   0.0000       2.187508        59.5251 
 100   0.0000       2.187518        59.5254 
 101   0.0000       2.202950        59.9453 
 102   0.0000       2.202950        59.9453 
 103   0.0000       2.236524        60.8589 
 104   0.0000       2.236535        60.8592 
 105   0.0000       2.257090        61.4185 
 106   0.0000       2.257090        61.4185 
 107   0.0000       2.296956        62.5034 
 108   0.0000       2.328529        63.3625 
 109   0.0000       2.359379        64.2020 
 110   0.0000       2.359379        64.2020 
 111   0.0000       2.490742        67.7765 
 112   0.0000       2.519694        68.5644 
 113   0.0000       2.848818        77.5203 
 114   0.0000       5.012637       136.4008 
 115   0.0000       5.024769       136.7309 
 116   0.0000       5.024769       136.7309 
 117   0.0000       5.065440       137.8376 
 118   0.0000       5.065626       137.8427 
 119   0.0000       5.074009       138.0708 
 120   0.0000       5.074009       138.0708 
 121   0.0000       5.074061       138.0722 
 122   0.0000       5.074061       138.0722 
 123   0.0000       5.075853       138.1210 
 124   0.0000       5.076021       138.1255 
 125   0.0000       5.090433       138.5177 
 126   0.0000       5.090433       138.5177 
 127   0.0000       5.097938       138.7220 
 128   0.0000       5.098175       138.7284 
 129   0.0000       5.116492       139.2268 
 130   0.0000       5.116492       139.2268 
 131   0.0000       5.177978       140.8999 
 132   0.0000       5.177978       140.8999 
 133   0.0000       5.237095       142.5086 
 134   0.0000       5.392178       146.7286 
 135   0.0000       5.782101       157.3390 
 136   0.0000       5.782101       157.3390 
 137   0.0000       5.782302       157.3444 
 138   0.0000       5.782318       157.3449 
 139   0.0000       5.782654       157.3540 
 140   0.0000       5.782669       157.3544 
 141   0.0000       5.782757       157.3568 
 142   0.0000       5.782757       157.3568 
 143   0.0000       5.783802       157.3853 
 144   0.0000       5.783802       157.3853 
 145   0.0000       5.783803       157.3853 
 146   0.0000       5.783803       157.3853 
 147   0.0000       5.785154       157.4220 
 148   0.0000       5.785184       157.4228 
 149   0.0000       5.785245       157.4245 
 150   0.0000       5.785532       157.4323 
 151   0.0000       5.785532       157.4323 
 152   0.0000       5.787814       157.4944 
 153   0.0000       5.798259       157.7786 
 154   0.0000       5.798281       157.7792 
 155   0.0000       5.800459       157.8385 
 156   0.0000       5.800459       157.8385 
 157   0.0000       5.800569       157.8415 
 158   0.0000       5.800569       157.8415 
 159   0.0000       5.802690       157.8992 
 160   0.0000       5.803184       157.9127 
 161   0.0000       5.820020       158.3708 
 162   0.0000      33.506085       911.7469 
 163   0.0000      33.654137       915.7756 
 164   0.0000      34.045549       926.4265 
 165   0.0000     109.469784      2978.8243 
 166   0.0000     109.515033      2980.0556 
 167   0.0000     109.642066      2983.5123 

                 SPIN DOWN ORBITALS
  NO   OCC          E(Eh)            E(eV) 
   0   1.0000      -3.979839      -108.2969 
   1   1.0000      -3.979829      -108.2967 
   2   1.0000      -3.966688      -107.9391 
   3   1.0000      -2.518097       -68.5209 
   4   1.0000      -2.516799       -68.4856 
   5   1.0000      -2.514089       -68.4118 
   6   1.0000      -2.514089       -68.4118 
   7   1.0000      -2.514069       -68.4113 
   8   1.0000      -2.514069       -68.4113 
   9   1.0000      -2.501744       -68.0759 
  10   1.0000      -2.499011       -68.0016 
  11   1.0000      -2.499011       -68.0016 
  12   1.0000      -0.446829       -12.1588 
  13   1.0000      -0.422696       -11.5021 
  14   1.0000      -0.422696       -11.5021 
  15   1.0000      -0.406023       -11.0484 
  16   1.0000      -0.403528       -10.9806 
  17   1.0000      -0.403528       -10.9806 
  18   1.0000      -0.400598       -10.9008 
  19   1.0000      -0.400597       -10.9008 
  20   1.0000      -0.399159       -10.8617 
  21   1.0000      -0.399157       -10.8616 
  22   1.0000      -0.383533       -10.4365 
  23   1.0000      -0.383532       -10.4364 
  24   1.0000      -0.368811       -10.0359 
  25   1.0000      -0.368811       -10.0359 
  26   1.0000      -0.356271        -9.6946 
  27   1.0000      -0.220918        -6.0115 
  28   0.0000      -0.092812        -2.5255 
  29   0.0000      -0.021195        -0.5767 
  30   0.0000       0.003382         0.0920 
  31   0.0000       0.003382         0.0920 
  32   0.0000       0.037895         1.0312 
  33   0.0000       0.041572         1.1312 
  34   0.0000       0.041572         1.1312 
  35   0.0000       0.096446         2.6244 
  36   0.0000       0.096446         2.6244 
  37   0.0000       0.118671         3.2292 
  38   0.0000       0.127117         3.4590 
  39   0.0000       0.131223         3.5708 
  40   0.0000       0.188328         5.1247 
  41   0.0000       0.216684         5.8963 
  42   0.0000       0.225306         6.1309 
  43   0.0000       0.225306         6.1309 
  44   0.0000       0.265004         7.2111 
  45   0.0000       0.265004         7.2111 
  46   0.0000       0.305282         8.3072 
  47   0.0000       0.316483         8.6120 
  48   0.0000       0.316483         8.6120 
  49   0.0000       0.368955        10.0398 
  50   0.0000       0.427209        11.6250 
  51   0.0000       0.427212        11.6250 
  52   0.0000       0.473292        12.8789 
  53   0.0000       0.473295        12.8790 
  54   0.0000       0.473420        12.8824 
  55   0.0000       0.473420        12.8824 
  56   0.0000       0.517852        14.0915 
  57   0.0000       0.556132        15.1331 
  58   0.0000       0.556134        15.1332 
  59   0.0000       0.574850        15.6425 
  60   0.0000       0.574850        15.6425 
  61   0.0000       0.685374        18.6500 
  62   0.0000       0.761310        20.7163 
  63   0.0000       0.761310        20.7163 
  64   0.0000       0.764002        20.7896 
  65   0.0000       0.834614        22.7110 
  66   0.0000       1.552509        42.2459 
  67   0.0000       1.657135        45.0929 
  68   0.0000       1.657135        45.0929 
  69   0.0000       1.706888        46.4468 
  70   0.0000       1.706890        46.4468 
  71   0.0000       1.720329        46.8125 
  72   0.0000       1.720329        46.8125 
  73   0.0000       1.720425        46.8151 
  74   0.0000       1.720425        46.8151 
  75   0.0000       1.720802        46.8254 
  76   0.0000       1.720803        46.8254 
  77   0.0000       1.732790        47.1516 
  78   0.0000       1.732790        47.1516 
  79   0.0000       1.733347        47.1668 
  80   0.0000       1.735609        47.2283 
  81   0.0000       1.735609        47.2283 
  82   0.0000       1.740768        47.3687 
  83   0.0000       1.740768        47.3687 
  84   0.0000       1.744146        47.4606 
  85   0.0000       1.744148        47.4607 
  86   0.0000       1.759243        47.8714 
  87   0.0000       1.759243        47.8714 
  88   0.0000       1.804341        49.0986 
  89   0.0000       1.811486        49.2931 
  90   0.0000       1.811486        49.2931 
  91   0.0000       1.814454        49.3738 
  92   0.0000       1.877994        51.1028 
  93   0.0000       1.877994        51.1028 
  94   0.0000       1.904161        51.8148 
  95   0.0000       2.041494        55.5519 
  96   0.0000       2.075903        56.4882 
  97   0.0000       2.180004        59.3209 
  98   0.0000       2.180017        59.3213 
  99   0.0000       2.193113        59.6776 
 100   0.0000       2.193127        59.6780 
 101   0.0000       2.207475        60.0684 
 102   0.0000       2.207475        60.0684 
 103   0.0000       2.237197        60.8772 
 104   0.0000       2.237209        60.8775 
 105   0.0000       2.262311        61.5606 
 106   0.0000       2.262311        61.5606 
 107   0.0000       2.302178        62.6455 
 108   0.0000       2.332380        63.4673 
 109   0.0000       2.359789        64.2131 
 110   0.0000       2.359789        64.2131 
 111   0.0000       2.496681        67.9382 
 112   0.0000       2.521510        68.6138 
 113   0.0000       2.849160        77.5296 
 114   0.0000       5.013460       136.4232 
 115   0.0000       5.025648       136.7548 
 116   0.0000       5.025648       136.7548 
 117   0.0000       5.066418       137.8642 
 118   0.0000       5.066605       137.8693 
 119   0.0000       5.075124       138.1011 
 120   0.0000       5.075124       138.1011 
 121   0.0000       5.075182       138.1027 
 122   0.0000       5.075182       138.1027 
 123   0.0000       5.077182       138.1571 
 124   0.0000       5.077350       138.1617 
 125   0.0000       5.089648       138.4964 
 126   0.0000       5.089648       138.4964 
 127   0.0000       5.097901       138.7210 
 128   0.0000       5.098136       138.7273 
 129   0.0000       5.117691       139.2595 
 130   0.0000       5.117691       139.2595 
 131   0.0000       5.178467       140.9133 
 132   0.0000       5.178467       140.9133 
 133   0.0000       5.238183       142.5382 
 134   0.0000       5.392750       146.7442 
 135   0.0000       5.782338       157.3454 
 136   0.0000       5.782338       157.3454 
 137   0.0000       5.782660       157.3542 
 138   0.0000       5.782675       157.3546 
 139   0.0000       5.782966       157.3625 
 140   0.0000       5.782966       157.3625 
 141   0.0000       5.783011       157.3637 
 142   0.0000       5.783025       157.3641 
 143   0.0000       5.784299       157.3988 
 144   0.0000       5.784299       157.3988 
 145   0.0000       5.784299       157.3988 
 146   0.0000       5.784299       157.3988 
 147   0.0000       5.785341       157.4271 
 148   0.0000       5.785742       157.4380 
 149   0.0000       5.785747       157.4382 
 150   0.0000       5.786091       157.4475 
 151   0.0000       5.786091       157.4475 
 152   0.0000       5.788013       157.4998 
 153   0.0000       5.797743       157.7646 
 154   0.0000       5.797764       157.7652 
 155   0.0000       5.800000       157.8260 
 156   0.0000       5.800000       157.8260 
 157   0.0000       5.800109       157.8290 
 158   0.0000       5.800109       157.8290 
 159   0.0000       5.802493       157.8939 
 160   0.0000       5.802987       157.9073 
 161   0.0000       5.819645       158.3606 
 162   0.0000      33.506917       911.7696 
 163   0.0000      33.655110       915.8021 
 164   0.0000      34.045578       926.4273 
 165   0.0000     109.465488      2978.7074 
 166   0.0000     109.509309      2979.8998 
 167   0.0000     109.645458      2983.6046 

                    ********************************
                    * MULLIKEN POPULATION ANALYSIS *
                    ********************************

--------------------------------------------
MULLIKEN ATOMIC CHARGES AND SPIN POPULATIONS
--------------------------------------------
   0 Ag:   -0.029629   -0.181920
   1 Ag:    0.014816    0.590958
   2 Ag:    0.014813    0.590962
Sum of atomic charges         :   -0.0000000
Sum of atomic spin populations:    1.0000000

-----------------------------------------------------
MULLIKEN REDUCED ORBITAL CHARGES AND SPIN POPULATIONS
-----------------------------------------------------
CHARGE
  0 Ags       :     3.002611  s :     3.002611
      pz      :     2.049425  p :     6.067119
      px      :     2.008847
      py      :     2.008847
      dz2     :     1.979580  d :     9.957884
      dxz     :     1.989308
      dyz     :     1.989308
      dx2y2   :     1.999845
      dxy     :     1.999845
      f0      :     0.001043  f :     0.001987
      f+1     :     0.000441
      f-1     :     0.000441
      f+2     :     0.000031
      f-2     :     0.000031
      f+3     :     0.000000
      f-3     :     0.000000
      g0      :     0.000014  g :     0.000029
      g+1     :     0.000007
      g-1     :     0.000007
      g+2     :     0.000001
      g-2     :     0.000001
      g+3     :     0.000000
      g-3     :     0.000000
      g+4     :     0.000000
      g-4     :     0.000000
  1 Ags       :     2.977800  s :     2.977800
      pz      :     2.026717  p :     6.036538
      px      :     2.004911
      py      :     2.004911
      dz2     :     1.978623  d :     9.969765
      dxz     :     1.995538
      dyz     :     1.995538
      dx2y2   :     2.000033
      dxy     :     2.000033
      f0      :     0.000516  f :     0.001068
      f+1     :     0.000247
      f-1     :     0.000247
      f+2     :     0.000028
      f-2     :     0.000028
      f+3     :     0.000000
      f-3     :     0.000000
      g0      :     0.000007  g :     0.000014
      g+1     :     0.000003
      g-1     :     0.000003
      g+2     :     0.000000
      g-2     :     0.000000
      g+3     :     0.000000
      g-3     :     0.000000
      g+4     :     0.000000
      g-4     :     0.000000
  2 Ags       :     2.977802  s :     2.977802
      pz      :     2.026717  p :     6.036539
      px      :     2.004911
      py      :     2.004911
      dz2     :     1.978623  d :     9.969765
      dxz     :     1.995538
      dyz     :     1.995538
      dx2y2   :     2.000033
      dxy     :     2.000033
      f0      :     0.000516  f :     0.001068
      f+1     :     0.000247
      f-1     :     0.000247
      f+2     :     0.000028
      f-2     :     0.000028
      f+3     :     0.000000
      f-3     :     0.000000
      g0      :     0.000007  g :     0.000014
      g+1     :     0.000003
      g-1     :     0.000003
      g+2     :     0.000000
      g-2     :     0.000000
      g+3     :     0.000000
      g-3     :     0.000000
      g+4     :     0.000000
      g-4     :     0.000000

SPIN
  0 Ags       :    -0.224947  s :    -0.224947
      pz      :     0.048719  p :     0.048572
      px      :    -0.000073
      py      :    -0.000073
      dz2     :    -0.001528  d :    -0.005634
      dxz     :    -0.002022
      dyz     :    -0.002022
      dx2y2   :    -0.000030
      dxy     :    -0.000030
      f0      :     0.000072  f :     0.000089
      f+1     :     0.000007
      f-1     :     0.000007
      f+2     :     0.000001
      f-2     :     0.000001
      f+3     :    -0.000000
      f-3     :    -0.000000
      g0      :     0.000000  g :     0.000000
      g+1     :     0.000000
      g-1     :     0.000000
      g+2     :    -0.000000
      g-2     :    -0.000000
      g+3     :    -0.000000
      g-3     :    -0.000000
      g+4     :    -0.000000
      g-4     :     0.000000
  1 Ags       :     0.598234  s :     0.598234
      pz      :    -0.008103  p :    -0.006491
      px      :     0.000806
      py      :     0.000806
      dz2     :    -0.001296  d :    -0.000801
      dxz     :     0.000233
      dyz     :     0.000233
      dx2y2   :     0.000015
      dxy     :     0.000015
      f0      :     0.000005  f :     0.000016
      f+1     :     0.000006
      f-1     :     0.000006
      f+2     :    -0.000000
      f-2     :    -0.000000
      f+3     :    -0.000000
      f-3     :    -0.000000
      g0      :    -0.000000  g :    -0.000000
      g+1     :    -0.000000
      g-1     :    -0.000000
      g+2     :    -0.000000
      g-2     :    -0.000000
      g+3     :     0.000000
      g-3     :     0.000000
      g+4     :     0.000000
      g-4     :     0.000000
  2 Ags       :     0.598238  s :     0.598238
      pz      :    -0.008102  p :    -0.006490
      px      :     0.000806
      py      :     0.000806
      dz2     :    -0.001296  d :    -0.000801
      dxz     :     0.000233
      dyz     :     0.000233
      dx2y2   :     0.000015
      dxy     :     0.000015
      f0      :     0.000005  f :     0.000016
      f+1     :     0.000006
      f-1     :     0.000006
      f+2     :    -0.000000
      f-2     :    -0.000000
      f+3     :    -0.000000
      f-3     :    -0.000000
      g0      :    -0.000000  g :    -0.000000
      g+1     :    -0.000000
      g-1     :    -0.000000
      g+2     :    -0.000000
      g-2     :    -0.000000
      g+3     :     0.000000
      g-3     :     0.000000
      g+4     :     0.000000
      g-4     :     0.000000


                     *******************************
                     * LOEWDIN POPULATION ANALYSIS *
                     *******************************

-------------------------------------------
LOEWDIN ATOMIC CHARGES AND SPIN POPULATIONS
-------------------------------------------
   0 Ag:   -0.190899    0.272244
   1 Ag:    0.095450    0.363878
   2 Ag:    0.095450    0.363878

----------------------------------------------------
LOEWDIN REDUCED ORBITAL CHARGES AND SPIN POPULATIONS
----------------------------------------------------
CHARGE
  0 Ags       :     2.818676  s :     2.818676
      pz      :     2.380521  p :     6.403150
      px      :     2.011315
      py      :     2.011315
      dz2     :     1.996092  d :     9.966007
      dxz     :     1.985093
      dyz     :     1.985093
      dx2y2   :     1.999865
      dxy     :     1.999865
      f0      :     0.001737  f :     0.003029
      f+1     :     0.000606
      f-1     :     0.000606
      f+2     :     0.000040
      f-2     :     0.000040
      f+3     :     0.000000
      f-3     :     0.000000
      g0      :     0.000017  g :     0.000036
      g+1     :     0.000009
      g-1     :     0.000009
      g+2     :     0.000001
      g-2     :     0.000001
      g+3     :     0.000000
      g-3     :     0.000000
      g+4     :     0.000000
      g-4     :     0.000000
  1 Ags       :     2.810139  s :     2.810139
      pz      :     2.097081  p :     6.111745
      px      :     2.007332
      py      :     2.007332
      dz2     :     1.993520  d :     9.981120
      dxz     :     1.993787
      dyz     :     1.993787
      dx2y2   :     2.000013
      dxy     :     2.000013
      f0      :     0.000729  f :     0.001527
      f+1     :     0.000366
      f-1     :     0.000366
      f+2     :     0.000033
      f-2     :     0.000033
      f+3     :     0.000000
      f-3     :     0.000000
      g0      :     0.000009  g :     0.000019
      g+1     :     0.000004
      g-1     :     0.000004
      g+2     :     0.000000
      g-2     :     0.000000
      g+3     :     0.000000
      g-3     :     0.000000
      g+4     :     0.000000
      g-4     :     0.000000
  2 Ags       :     2.810139  s :     2.810139
      pz      :     2.097081  p :     6.111745
      px      :     2.007332
      py      :     2.007332
      dz2     :     1.993520  d :     9.981120
      dxz     :     1.993787
      dyz     :     1.993787
      dx2y2   :     2.000013
      dxy     :     2.000013
      f0      :     0.000729  f :     0.001527
      f+1     :     0.000366
      f-1     :     0.000366
      f+2     :     0.000033
      f-2     :     0.000033
      f+3     :     0.000000
      f-3     :     0.000000
      g0      :     0.000009  g :     0.000019
      g+1     :     0.000004
      g-1     :     0.000004
      g+2     :     0.000000
      g-2     :     0.000000
      g+3     :     0.000000
      g-3     :     0.000000
      g+4     :     0.000000
      g-4     :     0.000000

SPIN
  0 Ags       :    -0.085691  s :    -0.085691
      pz      :     0.353845  p :     0.354191
      px      :     0.000173
      py      :     0.000173
      dz2     :     0.005898  d :     0.003396
      dxz     :    -0.001266
      dyz     :    -0.001266
      dx2y2   :     0.000015
      dxy     :     0.000015
      f0      :     0.000308  f :     0.000348
      f+1     :     0.000018
      f-1     :     0.000018
      f+2     :     0.000002
      f-2     :     0.000002
      f+3     :    -0.000000
      f-3     :    -0.000000
      g0      :     0.000000  g :     0.000001
      g+1     :     0.000000
      g-1     :     0.000000
      g+2     :     0.000000
      g-2     :     0.000000
      g+3     :    -0.000000
      g-3     :    -0.000000
      g+4     :    -0.000000
      g-4     :     0.000000
  1 Ags       :     0.389524  s :     0.389524
      pz      :    -0.023884  p :    -0.022511
      px      :     0.000687
      py      :     0.000687
      dz2     :    -0.002779  d :    -0.003101
      dxz     :    -0.000153
      dyz     :    -0.000153
      dx2y2   :    -0.000008
      dxy     :    -0.000008
      f0      :    -0.000040  f :    -0.000034
      f+1     :     0.000003
      f-1     :     0.000003
      f+2     :    -0.000000
      f-2     :    -0.000000
      f+3     :    -0.000000
      f-3     :    -0.000000
      g0      :    -0.000000  g :    -0.000000
      g+1     :    -0.000000
      g-1     :    -0.000000
      g+2     :    -0.000000
      g-2     :    -0.000000
      g+3     :     0.000000
      g-3     :     0.000000
      g+4     :     0.000000
      g-4     :     0.000000
  2 Ags       :     0.389524  s :     0.389524
      pz      :    -0.023884  p :    -0.022510
      px      :     0.000687
      py      :     0.000687
      dz2     :    -0.002779  d :    -0.003101
      dxz     :    -0.000153
      dyz     :    -0.000153
      dx2y2   :    -0.000008
      dxy     :    -0.000008
      f0      :    -0.000040  f :    -0.000034
      f+1     :     0.000003
      f-1     :     0.000003
      f+2     :    -0.000000
      f-2     :    -0.000000
      f+3     :    -0.000000
      f-3     :    -0.000000
      g0      :    -0.000000  g :    -0.000000
      g+1     :    -0.000000
      g-1     :    -0.000000
      g+2     :    -0.000000
      g-2     :    -0.000000
      g+3     :     0.000000
      g-3     :     0.000000
      g+4     :     0.000000
      g-4     :     0.000000


                      *****************************
                      * MAYER POPULATION ANALYSIS *
                      *****************************

  NA   - Mulliken gross atomic population
  ZA   - Total nuclear charge
  QA   - Mulliken gross atomic charge
  VA   - Mayer's total valence
  BVA  - Mayer's bonded valence
  FA   - Mayer's free valence

  ATOM       NA         ZA         QA         VA         BVA        FA
  0 Ag    19.0296    19.0000    -0.0296     1.1929     1.1419     0.0509
  1 Ag    18.9852    19.0000     0.0148     1.0626     0.7024     0.3602
  2 Ag    18.9852    19.0000     0.0148     1.0626     0.7024     0.3602

  Mayer bond orders larger than 0.100000
B(  0-Ag,  1-Ag) :   0.5710 B(  0-Ag,  2-Ag) :   0.5710 B(  1-Ag,  2-Ag) :   0.1314 


-------
TIMINGS
-------

Total SCF time: 0 days 0 hours 0 min 6 sec 

Total time                  ....       6.983 sec
Sum of individual times     ....       6.821 sec  ( 97.7%)

Fock matrix formation       ....       4.665 sec  ( 66.8%)
  XC integration            ....       0.587 sec  ( 12.6% of F)
    Basis function eval.    ....       0.043 sec  (  7.3% of XC)
    Density eval.           ....       0.046 sec  (  7.9% of XC)
    XC-Functional eval.     ....       0.016 sec  (  2.8% of XC)
    XC-Potential eval.      ....       0.090 sec  ( 15.4% of XC)
Diagonalization             ....       0.089 sec  (  1.3%)
Density matrix formation    ....       0.017 sec  (  0.2%)
Population analysis         ....       0.010 sec  (  0.1%)
Initial guess               ....       1.562 sec  ( 22.4%)
Orbital Transformation      ....       0.000 sec  (  0.0%)
Orbital Orthonormalization  ....       0.000 sec  (  0.0%)
DIIS solution               ....       0.029 sec  (  0.4%)
Grid generation             ....       0.449 sec  (  6.4%)


           ************************************************************
           *        Program running with 24 parallel MPI-processes    *
           *              working on a common directory               *
           ************************************************************

------------------------------------------------------------------------------
                                ORCA  MP2 
------------------------------------------------------------------------------

Freezing NCore=0 chemical core electrons

-------------
RI-MP2 ENERGY
-------------
Dimension of the basis                    ...  168
Memory devoted to MP2                     ... 5000 MB   
Data format for buffers                   ... DOUBLE
Compression type for matrix containers    ... UNCOMPRESSED
Overall scaling of the MP2 energy         ...   2.700e-01
Calculating two index integrals           ... done (    0.013 sec)
Cholesky decomposition of V**-1           ... done (    0.017 sec)

-----------------
RI-TRANSFORMATION (AUX index driven)
-----------------

Dimension of the orbital-basis         ... 168
Dimension of the aux-basis             ... 528
Transformation of internal/external MOs...    0-  28 to   29- 167
Number Format for Storage              ... Double (8 Byte)
Integral mode                          ... Direct

First Phase: integral generation and transformation of MO indices
  Aux angular momentum 0               ... done (    0.001 sec)
  Aux angular momentum 1               ... done (    0.001 sec)
  Aux angular momentum 2               ... done (    0.002 sec)
  Aux angular momentum 3               ... done (    0.003 sec)
  Aux angular momentum 4               ... done (    0.004 sec)
  Aux angular momentum 5               ... done (    0.006 sec)
  Aux angular momentum 6               ... done (    0.010 sec)
Closing buffer VIA ( 0.02 GB; CompressionRatio= 1.00)
  Phase 1 completed in     0.138 sec
Second Phase: sorting and transformation of aux index

IA-Transformation
Memory available                       ... 4995 MB 
Max. # MO pairs treated in a batch     ... 2    
# of internal orbitals                 ... 29
# batches for internal orbitals        ... 1
Closing buffer IAV ( 0.00 GB; CompressionRatio= 1.00)
(ia|v) transformation done in     0.011 sec

  Phase 2 completed in     0.029 sec
RI-Integral transformation completed in     0.168 sec

-----------------
RI-TRANSFORMATION (AUX index driven)
-----------------

Dimension of the orbital-basis         ... 168
Dimension of the aux-basis             ... 528
Transformation of internal/external MOs...    0-  27 to   28- 167
Number Format for Storage              ... Double (8 Byte)
Integral mode                          ... Direct

First Phase: integral generation and transformation of MO indices
  Aux angular momentum 0               ... done (    0.001 sec)
  Aux angular momentum 1               ... done (    0.001 sec)
  Aux angular momentum 2               ... done (    0.002 sec)
  Aux angular momentum 3               ... done (    0.003 sec)
  Aux angular momentum 4               ... done (    0.004 sec)
  Aux angular momentum 5               ... done (    0.006 sec)
  Aux angular momentum 6               ... done (    0.010 sec)
Closing buffer VIA ( 0.02 GB; CompressionRatio= 1.00)
  Phase 1 completed in     0.112 sec
Second Phase: sorting and transformation of aux index

IA-Transformation
Memory available                       ... 4995 MB 
Max. # MO pairs treated in a batch     ... 2    
# of internal orbitals                 ... 28
# batches for internal orbitals        ... 1
Closing buffer IAV ( 0.00 GB; CompressionRatio= 1.00)
(ia|v) transformation done in     0.011 sec

  Phase 2 completed in     0.028 sec
RI-Integral transformation completed in     0.141 sec
Opening buffers                              ... done

Starting loop over batches of integrals:

Operator 0  - window                       ... (  0- 28)x( 29-167)
Operator 0  - Memory available             ...  5000 MB
Operator 0  - Memory needed per MO         ...   0.6 MB
Operator 0  - Number of orbitals per batch ... 2
Operator 0  - Number of batches            ... 1

OPERATOR  0   PASS   0:  MOs     0 ...    1 +    2 ...    3 +    4 ...    5 +    6 ...    7
                            +    8 ...    9 +   10 ...   11 +   12 ...   13 +   14 ...   15
                            +   16 ...   17 +   18 ...   19 +   20 ...   21 +   22 ...   23
                            +   24 ...   25 +   26 ...   27 +   28 ...   28
  Reading integrals       ... ok

Operator 1  - window                       ... (  0- 27)x( 28-167)
Operator 1  - Memory available             ...  5000 MB
Operator 1  - Memory needed per MO         ...   0.6 MB
Operator 1  - Number of orbitals per batch ... 2
Operator 1  - Number of batches            ... 1

OPERATOR  1   PASS   0:  MOs     0 ...    1 +    2 ...    3 +    4 ...    5 +    6 ...    7
                            +    8 ...    9 +   10 ...   11 +   12 ...   13 +   14 ...   15
                            +   16 ...   17 +   18 ...   19 +   20 ...   21 +   22 ...   23
                            +   24 ...   25 +   26 ...   27
  Reading integrals       ... ok
Time spent in pair loops =     0.088 sec

Correlation energy components}
 E2 and T2 for alpha/alpha pairs :     -0.110012244 Eh      0.000000000
 E2 and T2 for beta/beta   pairs :     -0.103716389 Eh      0.000000000
 E2 and T2 for alpha/beta  pairs :     -0.421250313 Eh      0.000000000


-----------------------------------------------
 RI-MP2 CORRELATION ENERGY:     -0.634978946 Eh
-----------------------------------------------


-------
TIMINGS
-------

Total time                :    0.489 sec
Integral trafo            :    0.343 sec ( 70.2%)
I/O of integrals          :    0.001 sec (  0.3%)
K(i,j) Operators          :    0.042 sec (  8.5%)
T(i,j) pair energies      :    0.003 sec (  0.7%)
V-calculation             :    0.013 sec (  2.7%)
V**(-1/2)                 :    0.017 sec (  3.4%)
Gamma(ia|P)               :    0.000 sec (  0.0%)
Gamma-Trafo               :    0.000 sec (  0.0%)
D(virtual)                :    0.000 sec (  0.0%)
D(internal)               :    0.000 sec (  0.0%)
W(virtual)                :    0.000 sec (  0.0%)
W(internal)               :    0.000 sec (  0.0%)
L(virtual)                :    0.000 sec (  0.0%)
L(internal)               :    0.000 sec (  0.0%)
G(D)                      :    0.000 sec (  0.0%)
G(Z)                      :    0.000 sec (  0.0%)
Z-Vector Solution         :    0.000 sec (  0.0%)
Z-Vector Solution         :    0.000 sec (  0.0%)
3-Index Derivative 
+ Separable RIJ part      :    0.000 sec (  0.0%)
2-Index Derivative 
+ Separable RIJ part      :    0.000 sec (  0.0%)
Separable Gradient (X)    :    0.000 sec (  0.0%)


---------------------------------------
MP2 TOTAL ENERGY:     -440.743821585 Eh
---------------------------------------


-------------------------------------------------------------------------------
                          DFT DISPERSION CORRECTION                            
                                                                               
                              DFTD3 V3.1  Rev 1                                
                          USING Becke-Johnson damping                          
-------------------------------------------------------------------------------
The B2PLYP functional is recognized
Active option DFTDOPT                   ...         4   

molecular C6(AA) [au] = 2437.942597 


            DFT-D V3
 parameters
 s6 scaling factor         :     0.6400 
 a1 scaling factor         :     0.3065 
 s8 scaling factor         :     0.9147 
 a2 scaling factor         :     5.0570 
 ad hoc parameters k1-k3   :    16.0000     1.3333    -4.0000 

 Edisp/kcal,au: -2.750216908526  -0.004382749152 
 E6   /kcal   :  -0.913563736 
 E8   /kcal   :  -1.836653172 
 % E8         :  66.782120589 

-------------------------   ----------------
Dispersion correction           -0.004382749
-------------------------   ----------------


-------------------------   --------------------
FINAL SINGLE POINT ENERGY      -440.748204333963
-------------------------   --------------------


                            ***************************************
                            *     ORCA property calculations      *
                            ***************************************


  WARNING: The energy has been calculated at the MP2 level but the densities
           used in the property calculations are still SCF densities
           MP2 response densities have not been calculated 
           use %mp2 Density relaxed end
           or  %mp2 Density unrelaxed end

                                    ---------------------
                                    Active property flags
                                    ---------------------
   (+) Dipole Moment


------------------------------------------------------------------------------
                       ORCA ELECTRIC PROPERTIES CALCULATION
------------------------------------------------------------------------------

Dipole Moment Calculation                       ... on
Quadrupole Moment Calculation                   ... off
Polarizability Calculation                      ... off
GBWName                                         ... Ag03N0_LIN.gbw
Electron density file                           ... Ag03N0_LIN.scfp
The origin for moment calculation is the CENTER OF MASS  = ( 0.000000,  0.000000  0.000000)

-------------
DIPOLE MOMENT
-------------
                                X             Y             Z
Electronic contribution:      0.00000       0.00000      -0.00000
Nuclear contribution   :      0.00000       0.00000       0.00000
                        -----------------------------------------
Total Dipole Moment    :      0.00000       0.00000      -0.00000
                        -----------------------------------------
Magnitude (a.u.)       :      0.00000
Magnitude (Debye)      :      0.00000



--------------------
Rotational spectrum 
--------------------
 
Rotational constants in cm-1:     0.000000     0.011626     0.011626 
Rotational constants in MHz :     0.000000   348.528806   348.528806 

 Dipole components along the rotational axes: 
x,y,z [a.u.] :    -0.000000     0.000000     0.000000 
x,y,z [Debye]:    -0.000000     0.000000     0.000000 

 

Timings for individual modules:

Sum of individual times         ...        9.669 sec (=   0.161 min)
GTO integral calculation        ...        1.186 sec (=   0.020 min)  12.3 %
SCF iterations                  ...        7.432 sec (=   0.124 min)  76.9 %
MP2 module                      ...        1.052 sec (=   0.018 min)  10.9 %
                             ****ORCA TERMINATED NORMALLY****
TOTAL RUN TIME: 0 days 0 hours 0 minutes 10 seconds 296 msec
