
                                 *****************
                                 * O   R   C   A *
                                 *****************

           --- An Ab Initio, DFT and Semiempirical electronic structure package ---

                  #######################################################
                  #                        -***-                        #
                  #          Department of theory and spectroscopy      #
                  #               Directorship: Frank Neese             #
                  #        Max Planck Institute fuer Kohlenforschung    #
                  #                Kaiser Wilhelm Platz 1               #
                  #                 D-45470 Muelheim/Ruhr               #
                  #                      Germany                        #
                  #                                                     #
                  #                  All rights reserved                #
                  #                        -***-                        #
                  #######################################################


                         Program Version 4.2.0 -  RELEASE  -


 With contributions from (in alphabetic order):
   Daniel Aravena         : Magnetic Suceptibility
   Michael Atanasov       : Ab Initio Ligand Field Theory (pilot matlab implementation)
   Alexander A. Auer      : GIAO ZORA, VPT2
   Ute Becker             : Parallelization
   Giovanni Bistoni       : ED, misc. LED, open-shell LED, HFLED
   Martin Brehm           : Molecular dynamics
   Dmytro Bykov           : SCF Hessian
   Vijay G. Chilkuri      : MRCI spin determinant printing, contributions to CSF-ICE
   Dipayan Datta          : RHF DLPNO-CCSD density
   Achintya Kumar Dutta   : EOM-CC, STEOM-CC
   Dmitry Ganyushin       : Spin-Orbit,Spin-Spin,Magnetic field MRCI
   Miquel Garcia          : C-PCM Hessian, Gaussian charge scheme
   Yang Guo               : DLPNO-NEVPT2, CIM, IAO-localization
   Andreas Hansen         : Spin unrestricted coupled pair/coupled cluster methods
   Benjamin Helmich-Paris : CASSCF linear response (MC-RPA)
   Lee Huntington         : MR-EOM, pCC
   Robert Izsak           : Overlap fitted RIJCOSX, COSX-SCS-MP3, EOM
   Christian Kollmar      : KDIIS, OOCD, Brueckner-CCSD(T), CCSD density
   Simone Kossmann        : Meta GGA functionals, TD-DFT gradient, OOMP2, MP2 Hessian
   Martin Krupicka        : AUTO-CI
   Lucas Lang             : DCDCAS
   Dagmar Lenk            : GEPOL surface, SMD
   Dimitrios Liakos       : Extrapolation schemes; Compound Job, initial MDCI parallelization
   Dimitrios Manganas     : Further ROCIS development; embedding schemes
   Dimitrios Pantazis     : SARC Basis sets
   Taras Petrenko         : DFT Hessian,TD-DFT gradient, ASA, ECA, R-Raman, ABS, FL, XAS/XES, NRVS
   Peter Pinski           : DLPNO-MP2, DLPNO-MP2 Gradient
   Christoph Reimann      : Effective Core Potentials
   Marius Retegan         : Local ZFS, SOC
   Christoph Riplinger    : Optimizer, TS searches, QM/MM, DLPNO-CCSD(T), (RO)-DLPNO pert. Triples
   Tobias Risthaus        : Range-separated hybrids, TD-DFT gradient, RPA, STAB
   Michael Roemelt        : Original ROCIS implementation
   Masaaki Saitow         : Open-shell DLPNO-CCSD energy and density
   Barbara Sandhoefer     : DKH picture change effects
   Avijit Sen             : IP-ROCIS
   Kantharuban Sivalingam : CASSCF convergence, NEVPT2, FIC-MRCI
   Bernardo de Souza      : ESD, SOC TD-DFT
   Georgi Stoychev        : AutoAux, RI-MP2 NMR
   Willem Van den Heuvel  : Paramagnetic NMR
   Boris Wezisla          : Elementary symmetry handling
   Frank Wennmohs         : Technical directorship


 We gratefully acknowledge several colleagues who have allowed us to
 interface, adapt or use parts of their codes:
   Stefan Grimme, W. Hujo, H. Kruse,             : VdW corrections, initial TS optimization,
                  C. Bannwarth                     DFT functionals, gCP, sTDA/sTD-DF
   Ed Valeev, F. Pavosevic, A. Kumar             : LibInt (2-el integral package), F12 methods
   Garnet Chan, S. Sharma, J. Yang, R. Olivares  : DMRG
   Ulf Ekstrom                                   : XCFun DFT Library
   Mihaly Kallay                                 : mrcc  (arbitrary order and MRCC methods)
   Andreas Klamt, Michael Diedenhofen            : otool_cosmo (COSMO solvation model)
   Jiri Pittner, Ondrej Demel                    : Mk-CCSD
   Frank Weinhold                                : gennbo (NPA and NBO analysis)
   Christopher J. Cramer and Donald G. Truhlar   : smd solvation model
   Lars Goerigk                                  : TD-DFT with DH, B97 family of functionals
   V. Asgeirsson, H. Jonsson                     : NEB implementation
   FAccTs GmbH                                   : IRC, NEB, NEB-TS, Multilevel, MM, QM/MM, CI optimization
   S Lehtola, MJT Oliveira, MAL Marques          : LibXC Library


 Your calculation uses the libint2 library for the computation of 2-el integrals
 For citations please refer to: http://libint.valeyev.net

 Your ORCA version has been built with support for libXC version: 4.2.3
 For citations please refer to: https://tddft.org/programs/libxc/

 This ORCA versions uses:
   CBLAS   interface :  Fast vector & matrix operations
   LAPACKE interface :  Fast linear algebra routines
   SCALAPACK package :  Parallel linear algebra routines


Your calculation utilizes the atom-pairwise dispersion correction
with the Becke-Johnson damping scheme (D3BJ)
Cite in your paper:
S.Grimme, S.Ehrlich, L.Goerigk, J Comput Chem, (2011), 32, 1456–1465 
S.Grimme, J.Antony, S.Ehrlich and H.Krieg, J.Chem.Phys., 132, (2010), 154104 
   

----- Orbital basis set information -----
Your calculation utilizes the basis: def2-TZVPPD
   F. Weigend and R. Ahlrichs, Phys. Chem. Chem. Phys. 7, 3297 (2005).
   D. Rappoport and F. Furche, J. Chem. Phys. 133 134105 (2010).

----- AuxC basis set information -----
Your calculation utilizes the auxiliary basis: def2-TZVPPD/C
   A. Hellweg, C. Hattig, S. Hofener and W. Klopper, Theor. Chem. Acc. 117, 587 (2007).

----- AuxJK basis set information -----
Your calculation utilizes the auxiliary basis: def2/JK
   H-Ba, Hf-Rn: F. Weigend, J. Comput. Chem. 29, 167 (2008).

cite the ECPs for Ag [Def2-ECP] as follows:
Ce-Yb(ecp-28): M. Dolg, H. Stoll, H.Preuss, J. Chem. Phys., 1989, 90, 1730-1734.
Y-Cd(ecp-28), Hf-Hg(ecp-46): D. Andrae,U. Haeussermann, M. Dolg, H. Stoll, H. Preuss, Theor. Chim. Acta, 1990, 77, 123-141.
In-Sb(ecp-28), Tl-Bi(ecp-46): B. Metz, H. Stoll, M. Dolg, J. Chem. Phys., 2000, 113, 2563-2569.
Te-Xe(ecp-28), Po-Rn(ecp-46): K. A. Peterson, D. Figgen, E. Goll, H. Stoll, M. Dolg, J. Chem. Phys., 2003, 119, 11113-11123.
Rb(ecp-28), Cs(ecp-46): T. Leininger, A. Nicklass, W. Kuechle, H. Stoll, M. Dolg, A. Bergner, Chem. Phys. Lett., 1996, 255, 274-280.
Sr(ecp-28), Ba(ecp-46): M. Kaupp, P. V. Schleyer, H. Stoll and H. Preuss, J. Chem. Phys., 1991, 94, 1360-1366.
La(ecp-46): M. Dolg, H. Stoll, A. Savin, H. Preuss, Theor. Chim. Acta, 1989, 75, 173-194.
Lu(ecp-28): X. Cao, M. Dolg, J. Chem. Phys., 2001, 115, 7348-7355.

ECP parameters for Ag [Def2-ECP] have been obtained from:
TURBOMOLE (7.0.2)

================================================================================
                                        WARNINGS
                       Please study these warnings very carefully!
================================================================================


WARNING: your system is open-shell and RHF/RKS was chosen
  ===> : WILL SWITCH to UHF/UKS


WARNING: No MP2 level density has been requested!
         To caclulate MP2 level properties use
         %mp2 Density relaxed end
         or
         %mp2 Density unrelaxed end
         Otherwise for double-hybrid DFT only the energy is correct!

WARNING: The frozen-core approximation is turned on by default for 
         the MP2 part of double-hybrid DFT.

INFO   : the flag for use of LIBINT has been found!

================================================================================
                                       INPUT FILE
================================================================================
NAME = Ag04C2_H_A.in
|  1> #
|  2> # Ag04C2_H_A ri-B2PLYP-D3BJ/Def2-TZVPPD
|  3> #
|  4> ! rijk ri-b2plyp d3bj def2-tzvppd def2/jk def2-tzvppd/c grid4 nofinalgrid
|  5> 
|  6> *xyz 2 2
|  7> Ag       0.000000    0.000000    1.733523 
|  8> Ag       0.000000    1.616553   -0.602470 
|  9> Ag      -1.399976   -0.808277   -0.602470 
| 10> Ag       1.399976   -0.808277   -0.602470 
| 11> H        0.000000    0.000000    3.472645 
| 12> *
| 13> 
| 14> %maxcore 5000
| 15> 
| 16> %pal
| 17> nprocs = 24
| 18> end
| 19> 
| 20> 
| 21>                          ****END OF INPUT****
================================================================================

                       ****************************
                       * Single Point Calculation *
                       ****************************

---------------------------------
CARTESIAN COORDINATES (ANGSTROEM)
---------------------------------
  Ag     0.000000    0.000000    1.733523
  Ag     0.000000    1.616553   -0.602470
  Ag    -1.399976   -0.808277   -0.602470
  Ag     1.399976   -0.808277   -0.602470
  H      0.000000    0.000000    3.472645

----------------------------
CARTESIAN COORDINATES (A.U.)
----------------------------
  NO LB      ZA    FRAG     MASS         X           Y           Z
   0 Ag   19.0000*   0   107.870    0.000000    0.000000    3.275884
   1 Ag   19.0000*   0   107.870    0.000000    3.054842   -1.138503
   2 Ag   19.0000*   0   107.870   -2.645571   -1.527422   -1.138503
   3 Ag   19.0000*   0   107.870    2.645571   -1.527422   -1.138503
   4 H     1.0000    0     1.008    0.000000    0.000000    6.562348
* core charge reduced due to ECP

--------------------------------
INTERNAL COORDINATES (ANGSTROEM)
--------------------------------
 Ag     0   0   0     0.000000000000     0.00000000     0.00000000
 Ag     1   0   0     2.840793357120     0.00000000     0.00000000
 Ag     2   1   0     2.799952379859    60.47444948     0.00000000
 Ag     3   2   1     2.799952000000    60.00000449   289.08611978
 H      1   2   3     1.739122000000   145.31600538   215.07321588

---------------------------
INTERNAL COORDINATES (A.U.)
---------------------------
 Ag     0   0   0     0.000000000000     0.00000000     0.00000000
 Ag     1   0   0     5.368321448020     0.00000000     0.00000000
 Ag     2   1   0     5.291143185954    60.47444948     0.00000000
 Ag     3   2   1     5.291142468125    60.00000449   289.08611978
 H      1   2   3     3.286464293477   145.31600538   215.07321588

---------------------
BASIS SET INFORMATION
---------------------
There are 2 groups of distinct atoms

 Group   1 Type Ag  : 7s7p6d2f1g contracted to 6s4p3d2f1g pattern {211111/4111/411/11/1}
 Group   2 Type H   : 5s3p1d contracted to 3s3p1d pattern {311/111/1}

Atom   0Ag   basis set group =>   1
Atom   1Ag   basis set group =>   1
Atom   2Ag   basis set group =>   1
Atom   3Ag   basis set group =>   1
Atom   4H    basis set group =>   2
---------------------------------
AUXILIARY/C BASIS SET INFORMATION
---------------------------------
There are 2 groups of distinct atoms

 Group   1 Type Ag  : 8s7p6d5f4g3h1i contracted to 8s7p6d5f4g3h1i pattern {11111111/1111111/111111/11111/1111/111/1}
 Group   2 Type H   : 5s4p3d1f contracted to 5s4p3d1f pattern {11111/1111/111/1}

Atom   0Ag   basis set group =>   1
Atom   1Ag   basis set group =>   1
Atom   2Ag   basis set group =>   1
Atom   3Ag   basis set group =>   1
Atom   4H    basis set group =>   2
----------------------------------
AUXILIARY/JK BASIS SET INFORMATION
----------------------------------
There are 2 groups of distinct atoms

 Group   1 Type Ag  : 13s12p10d9f6g3h2i contracted to 11s10p9d8f6g3h2i pattern {31111111111/3111111111/211111111/21111111/111111/111/11}
 Group   2 Type H   : 4s2p2d contracted to 2s2p2d pattern {31/11/11}

Atom   0Ag   basis set group =>   1
Atom   1Ag   basis set group =>   1
Atom   2Ag   basis set group =>   1
Atom   3Ag   basis set group =>   1
Atom   4H    basis set group =>   2
-------------------------
ECP PARAMETER INFORMATION
-------------------------

 Group 1, Type Ag ECP Def2-ECP (replacing 28 core electrons, lmax=3)

Atom   0Ag   ECP group =>   1
Atom   1Ag   ECP group =>   1
Atom   2Ag   ECP group =>   1
Atom   3Ag   ECP group =>   1



           ************************************************************
           *        Program running with 24 parallel MPI-processes    *
           *              working on a common directory               *
           ************************************************************
------------------------------------------------------------------------------
                           ORCA GTO INTEGRAL CALCULATION
                           -- RI-GTO INTEGRALS CHOSEN --
------------------------------------------------------------------------------

                         BASIS SET STATISTICS AND STARTUP INFO

Gaussian basis set:
 # of primitive gaussian shells          ...  101
 # of primitive gaussian functions       ...  343
 # of contracted shells                  ...   71
 # of contracted basis functions         ...  241
 Highest angular momentum                ...    4
 Maximum contraction depth               ...    4
Auxiliary gaussian basis set:
 # of primitive gaussian shells          ...  228
 # of primitive gaussian functions       ... 1120
 # of contracted shells                  ...  202
 # of contracted aux-basis functions     ... 1038
 Highest angular momentum                ...    6
 Maximum contraction depth               ...    3
Ratio of auxiliary to basis functions    ...  4.31
Integral package used                  ... LIBINT
 One Electron integrals                  
   ECP integrals                         ... done
 Ordering auxiliary basis shells         ... done
 Integral threshhold             Thresh  ...  1.000e-10
 Primitive cut-off               TCut    ...  1.000e-11
 Pre-screening matrix                    ... done
 Shell pair data                         ... 
 Ordering of the shell pairs             ... done (   0.000 sec) 2385 of 2556 pairs
 Determination of significant pairs      ... done (   0.000 sec)
 Creation of shell pair data             ... done (   0.000 sec)
 Storage of shell pair data              ... done (   0.007 sec)
 Shell pair data done in (   0.008 sec)
 Computing two index integrals           ... done
 Cholesky decomposition of the V-matrix  ... done


Timings:
 Total evaluation time                   ...   1.292 sec (  0.022 min)
 One electron matrix time                ...   0.762 sec (  0.013 min) = 58.9%
 Schwartz matrix evaluation time         ...   0.199 sec (  0.003 min) = 15.4%
 Two index repulsion integral time       ...   0.246 sec (  0.004 min) = 19.0%
 Cholesky decomposition of V             ...   0.047 sec (  0.001 min) =  3.7%
 Three index repulsion integral time     ...   0.000 sec (  0.000 min) =  0.0%



           ************************************************************
           *        Program running with 24 parallel MPI-processes    *
           *              working on a common directory               *
           ************************************************************
-------------------------------------------------------------------------------
                                 ORCA SCF
-------------------------------------------------------------------------------

------------
SCF SETTINGS
------------
Hamiltonian:
 Density Functional     Method          .... DFT(GTOs)
 Exchange Functional    Exchange        .... B88
   X-Alpha parameter    XAlpha          ....  0.666667
   Becke's b parameter  XBeta           ....  0.004200
 Correlation Functional Correlation     .... LYP
 LDA part of GGA corr.  LDAOpt          .... VWN-3
 Gradients option       PostSCFGGA      .... off
 Hybrid DFT is turned on
   Fraction HF Exchange ScalHFX         ....  0.530000
   Scaling of DF-GGA-X  ScalDFX         ....  0.470000
   Scaling of DF-GGA-C  ScalDFC         ....  0.730000
   Scaling of DF-LDA-C  ScalLDAC        ....  0.730000
   Perturbative correction              ....  0.270000
   Density functional embedding theory  .... OFF
 RI-approximation to the Coulomb term is turned on
   Number of auxiliary basis functions  .... 1038
   RI-JK (J+K treated both via RI)      .... on


General Settings:
 Integral files         IntName         .... Ag04C2_H_A
 Hartree-Fock type      HFTyp           .... UHF
 Total Charge           Charge          ....    2
 Multiplicity           Mult            ....    2
 Number of Electrons    NEL             ....   75
 Basis Dimension        Dim             ....  241
 Nuclear Repulsion      ENuc            ....    419.0822000634 Eh

Convergence Acceleration:
 DIIS                   CNVDIIS         .... on
   Start iteration      DIISMaxIt       ....    12
   Startup error        DIISStart       ....  0.200000
   # of expansion vecs  DIISMaxEq       ....     5
   Bias factor          DIISBfac        ....   1.050
   Max. coefficient     DIISMaxC        ....  10.000
 Newton-Raphson         CNVNR           .... off
 SOSCF                  CNVSOSCF        .... off
 Level Shifting         CNVShift        .... on
   Level shift para.    LevelShift      ....    0.2500
   Turn off err/grad.   ShiftErr        ....    0.0010
 Zerner damping         CNVZerner       .... off
 Static damping         CNVDamp         .... on
   Fraction old density DampFac         ....    0.7000
   Max. Damping (<1)    DampMax         ....    0.9800
   Min. Damping (>=0)   DampMin         ....    0.0000
   Turn off err/grad.   DampErr         ....    0.1000
 Fernandez-Rico         CNVRico         .... off

SCF Procedure:
 Maximum # iterations   MaxIter         ....   125
 SCF integral mode      SCFMode         .... Direct
   Integral package                     .... LIBINT
 Reset frequency        DirectResetFreq ....    20
 Integral Threshold     Thresh          ....  1.000e-10 Eh
 Primitive CutOff       TCut            ....  1.000e-11 Eh

Convergence Tolerance:
 Convergence Check Mode ConvCheckMode   .... Total+1el-Energy
 Convergence forced     ConvForced      .... 0
 Energy Change          TolE            ....  1.000e-06 Eh
 1-El. energy change                    ....  1.000e-03 Eh
 DIIS Error             TolErr          ....  1.000e-06


Diagonalization of the overlap matrix:
Smallest eigenvalue                        ... 1.402e-03
Time for diagonalization                   ...    0.011 sec
Threshold for overlap eigenvalues          ... 1.000e-08
Number of eigenvalues below threshold      ... 0
Time for construction of square roots      ...    0.007 sec
Total time needed                          ...    0.019 sec

-------------------
DFT GRID GENERATION
-------------------

General Integration Accuracy     IntAcc      ...  4.670
Radial Grid Type                 RadialGrid  ... Gauss-Chebyshev
Angular Grid (max. acc.)         AngularGrid ... Lebedev-302
Angular grid pruning method      GridPruning ... 3 (G Style)
Weight generation scheme         WeightScheme... Becke
Basis function cutoff            BFCut       ...    1.0000e-10
Integration weight cutoff        WCut        ...    1.0000e-14
Grids for H and He will be reduced by one unit

# of grid points (after initial pruning)     ...  46026 (   0.0 sec)
# of grid points (after weights+screening)   ...  45291 (   0.0 sec)
nearest neighbour list constructed           ...    0.0 sec
Grid point re-assignment to atoms done       ...    0.0 sec
Grid point division into batches done        ...    0.3 sec
Reduced shell lists constructed in    0.4 sec

Total number of grid points                  ...    45291
Total number of batches                      ...      711
Average number of points per batch           ...       63
Average number of grid points per atom       ...     9058
Average number of shells per batch           ...    44.90 (63.24%)
Average number of basis functions per batch  ...   149.48 (62.03%)
Average number of large shells per batch     ...    35.81 (79.74%)
Average number of large basis fcns per batch ...   113.87 (76.18%)
Average number of aux-shells per batch       ...    44.90 (22.23%)
Average number of aux functions per batch    ...   149.48 (14.40%)
Maximum spatial batch extension              ...   5.57,  5.99,  3.19 au
Average spatial batch extension              ...   0.12,  0.12,  0.09 au

Time for grid setup =    0.419 sec

------------------------------
INITIAL GUESS: MODEL POTENTIAL
------------------------------
Loading Hartree-Fock densities                     ... done
  calling /sw/apps/orca/orca_4_2_0_linux_x86-64_openmpi314/orca Ag04C2_H_A_atom47.inp > Ag04C2_H_A_atom47.out in order to generate an atomic fitting density for atom 0 (Ag with ECP) on-the-fly... 
    atom 0 (Ag), assumed electronic state with S=2: 1s2 2s2 2p6 3s2 3p6 4s2 3d10 4p6 5s2 4d9           ... done
Calculating cut-offs                               ... done
Setting up the integral package                    ... done
Initializing the effective Hamiltonian             ... done
Starting the Coulomb interaction                   ... done (   0.0 sec)
Reading the grid                                   ... done
Mapping shells                                     ... done
Starting the XC term evaluation                    ... done (   0.0 sec)
  promolecular density results
     # of electrons  =    189.001407544
     EX              =   -576.651396815
     EC              =     -3.622652816
     EX+EC           =   -580.274049631
Transforming the Hamiltonian                       ... done (   0.0 sec)
Diagonalizing the Hamiltonian                      ... done (   0.0 sec)
Back transforming the eigenvectors                 ... done (   0.0 sec)
Now organizing SCF variables                       ... done
                      ------------------
                      INITIAL GUESS DONE (   1.8 sec)
                      ------------------
--------------
SCF ITERATIONS
--------------
ITER       Energy         Delta-E        Max-DP      RMS-DP      [F,P]     Damp
  0   -586.5700741382   0.000000000000 0.04662048  0.00066876  0.4943101 0.7000
  1   -586.3076087790   0.262465359292 0.03422775  0.00049462  0.3458017 0.7000
  2   -586.4376342033  -0.130025424305 0.02252303  0.00026628  0.2290974 0.7000
                               ***Turning on DIIS***
  3   -586.6245543719  -0.186920168654 0.01729763  0.00016675  0.1539832 0.7000
  4   -586.7364474065  -0.111893034594 0.01603433  0.00015156  0.1065591 0.7000
  5   -586.7942163514  -0.057768944872 0.05421914  0.00047562  0.0764522 0.0000
  6   -586.7622434671   0.031972884251 0.00353958  0.00009074  0.0152628 0.0000
  7   -586.7636553001  -0.001411832974 0.00275787  0.00003997  0.0022317 0.0000
  8   -586.7637276901  -0.000072390027 0.00098790  0.00001436  0.0010094 0.0000
  9   -586.7637437400  -0.000016049835 0.00171569  0.00001676  0.0005034 0.0000
 10   -586.7637547767  -0.000011036764 0.00142149  0.00001020  0.0002290 0.0000
 11   -586.7637580405  -0.000003263812 0.00079768  0.00000595  0.0001055 0.0000
 12   -586.7637589461  -0.000000905571 0.00033142  0.00000241  0.0000280 0.0000
 13   -586.7637591111  -0.000000164938 0.00019518  0.00000149  0.0000146 0.0000
                 **** Energy Check signals convergence ****

               *****************************************************
               *                     SUCCESS                       *
               *           SCF CONVERGED AFTER  14 CYCLES          *
               *****************************************************


----------------
TOTAL SCF ENERGY
----------------

Total Energy       :         -586.76375916 Eh          -15966.65362 eV

Components:
Nuclear Repulsion  :          419.08220006 Eh           11403.80642 eV
Electronic Energy  :        -1005.84595922 Eh          -27370.46004 eV
One Electron Energy:        -1855.09225363 Eh          -50479.62656 eV
Two Electron Energy:          849.24629441 Eh           23109.16652 eV

Virial components:
Potential Energy   :         -812.91517488 Eh          -22120.54650 eV
Kinetic Energy     :          226.15141572 Eh            6153.89288 eV
Virial Ratio       :            3.59456151


DFT components:
N(Alpha)           :       37.999991729905 electrons
N(Beta)            :       36.999993688985 electrons
N(Total)           :       74.999985418890 electrons
E(X)               :      -25.231275572644 Eh       
E(C)               :       -2.083335236439 Eh       
E(XC)              :      -27.314610809083 Eh       
DFET-embed. en.    :        0.000000000000 Eh       

---------------
SCF CONVERGENCE
---------------

  Last Energy change         ...   -4.8887e-08  Tolerance :   1.0000e-06
  Last MAX-Density change    ...    4.9168e-05  Tolerance :   1.0000e-05
  Last RMS-Density change    ...    4.5193e-07  Tolerance :   1.0000e-06
  Last DIIS Error            ...    8.3467e-06  Tolerance :   1.0000e-06

             **** THE GBW FILE WAS UPDATED (Ag04C2_H_A.gbw) ****
             **** DENSITY FILE WAS UPDATED (Ag04C2_H_A.scfp) ****
             **** ENERGY FILE WAS UPDATED (Ag04C2_H_A.en.tmp) ****
----------------------
UHF SPIN CONTAMINATION
----------------------

Warning: in a DFT calculation there is little theoretical justification to 
         calculate <S**2> as in Hartree-Fock theory. We will do it anyways
         but you should keep in mind that the values have only limited relevance

Expectation value of <S**2>     :     0.758257
Ideal value S*(S+1) for S=0.5   :     0.750000
Deviation                       :     0.008257

             **** THE GBW FILE WAS UPDATED (Ag04C2_H_A.gbw) ****
             **** DENSITY FILE WAS UPDATED (Ag04C2_H_A.scfp) ****
----------------
ORBITAL ENERGIES
----------------
                 SPIN UP ORBITALS
  NO   OCC          E(Eh)            E(eV) 
   0   1.0000      -4.368027      -118.8601 
   1   1.0000      -4.352213      -118.4297 
   2   1.0000      -4.351925      -118.4219 
   3   1.0000      -4.351924      -118.4219 
   4   1.0000      -2.908597       -79.1470 
   5   1.0000      -2.898394       -78.8693 
   6   1.0000      -2.898394       -78.8693 
   7   1.0000      -2.890012       -78.6412 
   8   1.0000      -2.887984       -78.5860 
   9   1.0000      -2.887983       -78.5860 
  10   1.0000      -2.886839       -78.5549 
  11   1.0000      -2.886668       -78.5502 
  12   1.0000      -2.886665       -78.5501 
  13   1.0000      -2.885772       -78.5258 
  14   1.0000      -2.885772       -78.5258 
  15   1.0000      -2.885743       -78.5251 
  16   1.0000      -0.860541       -23.4165 
  17   1.0000      -0.809871       -22.0377 
  18   1.0000      -0.807925       -21.9848 
  19   1.0000      -0.807915       -21.9845 
  20   1.0000      -0.799372       -21.7520 
  21   1.0000      -0.799368       -21.7519 
  22   1.0000      -0.794547       -21.6207 
  23   1.0000      -0.787069       -21.4172 
  24   1.0000      -0.787064       -21.4171 
  25   1.0000      -0.783607       -21.3230 
  26   1.0000      -0.770029       -20.9535 
  27   1.0000      -0.770026       -20.9535 
  28   1.0000      -0.763980       -20.7890 
  29   1.0000      -0.762735       -20.7551 
  30   1.0000      -0.762728       -20.7549 
  31   1.0000      -0.759777       -20.6746 
  32   1.0000      -0.759765       -20.6743 
  33   1.0000      -0.747082       -20.3291 
  34   1.0000      -0.747080       -20.3291 
  35   1.0000      -0.740616       -20.1532 
  36   1.0000      -0.695549       -18.9268 
  37   1.0000      -0.639691       -17.4069 
  38   0.0000      -0.388651       -10.5757 
  39   0.0000      -0.388648       -10.5757 
  40   0.0000      -0.358933        -9.7671 
  41   0.0000      -0.277421        -7.5490 
  42   0.0000      -0.270619        -7.3639 
  43   0.0000      -0.270618        -7.3639 
  44   0.0000      -0.259799        -7.0695 
  45   0.0000      -0.259798        -7.0695 
  46   0.0000      -0.193681        -5.2703 
  47   0.0000      -0.162975        -4.4348 
  48   0.0000      -0.162974        -4.4348 
  49   0.0000      -0.156435        -4.2568 
  50   0.0000      -0.152738        -4.1562 
  51   0.0000      -0.152223        -4.1422 
  52   0.0000      -0.152222        -4.1422 
  53   0.0000      -0.106654        -2.9022 
  54   0.0000      -0.084918        -2.3107 
  55   0.0000      -0.073542        -2.0012 
  56   0.0000      -0.059475        -1.6184 
  57   0.0000      -0.059474        -1.6184 
  58   0.0000      -0.055325        -1.5055 
  59   0.0000      -0.055324        -1.5054 
  60   0.0000      -0.047668        -1.2971 
  61   0.0000      -0.047663        -1.2970 
  62   0.0000      -0.019718        -0.5366 
  63   0.0000      -0.019718        -0.5365 
  64   0.0000      -0.017958        -0.4887 
  65   0.0000       0.035375         0.9626 
  66   0.0000       0.035376         0.9626 
  67   0.0000       0.040221         1.0945 
  68   0.0000       0.068653         1.8681 
  69   0.0000       0.075896         2.0652 
  70   0.0000       0.075899         2.0653 
  71   0.0000       0.097981         2.6662 
  72   0.0000       0.126101         3.4314 
  73   0.0000       0.126104         3.4315 
  74   0.0000       0.160729         4.3736 
  75   0.0000       0.205864         5.6018 
  76   0.0000       0.224220         6.1013 
  77   0.0000       0.224223         6.1014 
  78   0.0000       0.246760         6.7147 
  79   0.0000       0.259412         7.0590 
  80   0.0000       0.259800         7.0695 
  81   0.0000       0.259801         7.0696 
  82   0.0000       0.335434         9.1276 
  83   0.0000       0.335441         9.1278 
  84   0.0000       0.356510         9.7011 
  85   0.0000       0.356512         9.7012 
  86   0.0000       0.372130        10.1262 
  87   0.0000       0.404899        11.0179 
  88   0.0000       0.404912        11.0182 
  89   0.0000       0.435939        11.8625 
  90   0.0000       0.435942        11.8626 
  91   0.0000       0.446044        12.1375 
  92   0.0000       0.476888        12.9768 
  93   0.0000       0.689163        18.7531 
  94   0.0000       0.689163        18.7531 
  95   0.0000       0.790197        21.5023 
  96   0.0000       1.277621        34.7658 
  97   0.0000       1.277627        34.7660 
  98   0.0000       1.304053        35.4851 
  99   0.0000       1.304065        35.4854 
 100   0.0000       1.306781        35.5593 
 101   0.0000       1.311893        35.6984 
 102   0.0000       1.321378        35.9565 
 103   0.0000       1.321378        35.9565 
 104   0.0000       1.327540        36.1242 
 105   0.0000       1.331736        36.2384 
 106   0.0000       1.333520        36.2869 
 107   0.0000       1.333525        36.2871 
 108   0.0000       1.341030        36.4913 
 109   0.0000       1.341036        36.4914 
 110   0.0000       1.341961        36.5166 
 111   0.0000       1.347266        36.6610 
 112   0.0000       1.347269        36.6610 
 113   0.0000       1.353984        36.8438 
 114   0.0000       1.362708        37.0812 
 115   0.0000       1.377823        37.4925 
 116   0.0000       1.377825        37.4925 
 117   0.0000       1.380045        37.5529 
 118   0.0000       1.381453        37.5912 
 119   0.0000       1.381453        37.5913 
 120   0.0000       1.406349        38.2687 
 121   0.0000       1.406360        38.2690 
 122   0.0000       1.416070        38.5332 
 123   0.0000       1.430552        38.9273 
 124   0.0000       1.430562        38.9276 
 125   0.0000       1.449015        39.4297 
 126   0.0000       1.509631        41.0791 
 127   0.0000       1.509634        41.0792 
 128   0.0000       1.523991        41.4699 
 129   0.0000       1.524157        41.4744 
 130   0.0000       1.524158        41.4744 
 131   0.0000       1.567433        42.6520 
 132   0.0000       1.654377        45.0179 
 133   0.0000       1.654385        45.0181 
 134   0.0000       1.659410        45.1548 
 135   0.0000       1.714485        46.6535 
 136   0.0000       1.802259        49.0420 
 137   0.0000       1.858137        50.5625 
 138   0.0000       1.858154        50.5629 
 139   0.0000       1.859922        50.6110 
 140   0.0000       1.877117        51.0789 
 141   0.0000       1.877151        51.0799 
 142   0.0000       1.882615        51.2286 
 143   0.0000       1.888821        51.3974 
 144   0.0000       1.888852        51.3983 
 145   0.0000       1.959139        53.3109 
 146   0.0000       1.959163        53.3115 
 147   0.0000       1.972779        53.6820 
 148   0.0000       1.972828        53.6834 
 149   0.0000       1.976904        53.7943 
 150   0.0000       1.976918        53.7947 
 151   0.0000       1.979476        53.8643 
 152   0.0000       1.982172        53.9376 
 153   0.0000       1.990511        54.1645 
 154   0.0000       2.051953        55.8365 
 155   0.0000       2.051989        55.8375 
 156   0.0000       2.338655        63.6380 
 157   0.0000       2.416259        65.7497 
 158   0.0000       2.532974        68.9257 
 159   0.0000       2.532996        68.9263 
 160   0.0000       2.638136        71.7873 
 161   0.0000       2.932644        79.8013 
 162   0.0000       2.932707        79.8030 
 163   0.0000       3.092223        84.1437 
 164   0.0000       3.092249        84.1444 
 165   0.0000       3.528329        96.0107 
 166   0.0000       3.607372        98.1616 
 167   0.0000       3.607376        98.1617 
 168   0.0000       4.095196       111.4359 
 169   0.0000       4.666520       126.9825 
 170   0.0000       4.666553       126.9834 
 171   0.0000       4.680572       127.3648 
 172   0.0000       4.689080       127.5964 
 173   0.0000       4.689093       127.5967 
 174   0.0000       4.692310       127.6843 
 175   0.0000       4.693860       127.7264 
 176   0.0000       4.698303       127.8473 
 177   0.0000       4.698322       127.8479 
 178   0.0000       4.699144       127.8702 
 179   0.0000       4.708957       128.1372 
 180   0.0000       4.715917       128.3266 
 181   0.0000       4.715926       128.3269 
 182   0.0000       4.734316       128.8273 
 183   0.0000       4.735920       128.8709 
 184   0.0000       4.744036       129.0918 
 185   0.0000       4.744038       129.0918 
 186   0.0000       4.750349       129.2636 
 187   0.0000       4.750352       129.2636 
 188   0.0000       4.763046       129.6091 
 189   0.0000       4.763053       129.6093 
 190   0.0000       4.876525       132.6970 
 191   0.0000       4.882119       132.8492 
 192   0.0000       4.882141       132.8498 
 193   0.0000       4.883122       132.8765 
 194   0.0000       4.915582       133.7598 
 195   0.0000       4.915624       133.7609 
 196   0.0000       5.069509       137.9483 
 197   0.0000       5.402249       147.0027 
 198   0.0000       5.402255       147.0028 
 199   0.0000       5.402480       147.0089 
 200   0.0000       5.402617       147.0127 
 201   0.0000       5.402736       147.0159 
 202   0.0000       5.402830       147.0185 
 203   0.0000       5.409633       147.2036 
 204   0.0000       5.409708       147.2056 
 205   0.0000       5.409886       147.2105 
 206   0.0000       5.409979       147.2130 
 207   0.0000       5.410132       147.2172 
 208   0.0000       5.410169       147.2182 
 209   0.0000       5.410563       147.2289 
 210   0.0000       5.410765       147.2344 
 211   0.0000       5.410804       147.2355 
 212   0.0000       5.411032       147.2417 
 213   0.0000       5.411134       147.2445 
 214   0.0000       5.411268       147.2481 
 215   0.0000       5.411351       147.2503 
 216   0.0000       5.411730       147.2607 
 217   0.0000       5.411807       147.2628 
 218   0.0000       5.411819       147.2631 
 219   0.0000       5.412093       147.2705 
 220   0.0000       5.412183       147.2730 
 221   0.0000       5.412852       147.2912 
 222   0.0000       5.412858       147.2914 
 223   0.0000       5.413065       147.2970 
 224   0.0000       5.413108       147.2982 
 225   0.0000       5.413794       147.3168 
 226   0.0000       5.413809       147.3172 
 227   0.0000       5.421821       147.5352 
 228   0.0000       5.421880       147.5369 
 229   0.0000       5.428375       147.7136 
 230   0.0000       5.461225       148.6075 
 231   0.0000       5.461405       148.6124 
 232   0.0000       5.762799       156.8137 
 233   0.0000      33.203075       903.5016 
 234   0.0000      33.567182       913.4095 
 235   0.0000      33.567182       913.4095 
 236   0.0000      33.620784       914.8681 
 237   0.0000     109.111813      2969.0834 
 238   0.0000     109.225738      2972.1834 
 239   0.0000     109.225739      2972.1834 
 240   0.0000     109.239856      2972.5676 

                 SPIN DOWN ORBITALS
  NO   OCC          E(Eh)            E(eV) 
   0   1.0000      -4.363439      -118.7352 
   1   1.0000      -4.352087      -118.4263 
   2   1.0000      -4.351800      -118.4185 
   3   1.0000      -4.351799      -118.4185 
   4   1.0000      -2.897650       -78.8491 
   5   1.0000      -2.897373       -78.8415 
   6   1.0000      -2.897373       -78.8415 
   7   1.0000      -2.889623       -78.6306 
   8   1.0000      -2.887918       -78.5842 
   9   1.0000      -2.887917       -78.5842 
  10   1.0000      -2.886765       -78.5529 
  11   1.0000      -2.886711       -78.5514 
  12   1.0000      -2.886709       -78.5513 
  13   1.0000      -2.885836       -78.5276 
  14   1.0000      -2.885599       -78.5211 
  15   1.0000      -2.885599       -78.5211 
  16   1.0000      -0.828398       -22.5418 
  17   1.0000      -0.806759       -21.9530 
  18   1.0000      -0.806749       -21.9528 
  19   1.0000      -0.804678       -21.8964 
  20   1.0000      -0.798511       -21.7286 
  21   1.0000      -0.798507       -21.7285 
  22   1.0000      -0.785322       -21.3697 
  23   1.0000      -0.785317       -21.3696 
  24   1.0000      -0.783220       -21.3125 
  25   1.0000      -0.773314       -21.0429 
  26   1.0000      -0.768408       -20.9094 
  27   1.0000      -0.768405       -20.9094 
  28   1.0000      -0.763838       -20.7851 
  29   1.0000      -0.762578       -20.7508 
  30   1.0000      -0.762571       -20.7506 
  31   1.0000      -0.759517       -20.6675 
  32   1.0000      -0.759504       -20.6672 
  33   1.0000      -0.745919       -20.2975 
  34   1.0000      -0.745916       -20.2974 
  35   1.0000      -0.740812       -20.1585 
  36   1.0000      -0.639490       -17.4014 
  37   0.0000      -0.442730       -12.0473 
  38   0.0000      -0.387581       -10.5466 
  39   0.0000      -0.387579       -10.5466 
  40   0.0000      -0.336375        -9.1532 
  41   0.0000      -0.275626        -7.5002 
  42   0.0000      -0.268017        -7.2931 
  43   0.0000      -0.268017        -7.2931 
  44   0.0000      -0.257670        -7.0115 
  45   0.0000      -0.257669        -7.0115 
  46   0.0000      -0.174948        -4.7606 
  47   0.0000      -0.158565        -4.3148 
  48   0.0000      -0.158564        -4.3148 
  49   0.0000      -0.152697        -4.1551 
  50   0.0000      -0.151858        -4.1323 
  51   0.0000      -0.151857        -4.1323 
  52   0.0000      -0.146964        -3.9991 
  53   0.0000      -0.102440        -2.7875 
  54   0.0000      -0.077614        -2.1120 
  55   0.0000      -0.071785        -1.9534 
  56   0.0000      -0.058841        -1.6012 
  57   0.0000      -0.058841        -1.6011 
  58   0.0000      -0.054576        -1.4851 
  59   0.0000      -0.054575        -1.4851 
  60   0.0000      -0.047006        -1.2791 
  61   0.0000      -0.047000        -1.2789 
  62   0.0000      -0.009077        -0.2470 
  63   0.0000      -0.008454        -0.2301 
  64   0.0000      -0.008454        -0.2300 
  65   0.0000       0.037950         1.0327 
  66   0.0000       0.037951         1.0327 
  67   0.0000       0.040469         1.1012 
  68   0.0000       0.072536         1.9738 
  69   0.0000       0.076903         2.0926 
  70   0.0000       0.076906         2.0927 
  71   0.0000       0.101101         2.7511 
  72   0.0000       0.128088         3.4855 
  73   0.0000       0.128091         3.4855 
  74   0.0000       0.179900         4.8953 
  75   0.0000       0.225756         6.1431 
  76   0.0000       0.225760         6.1432 
  77   0.0000       0.238007         6.4765 
  78   0.0000       0.246677         6.7124 
  79   0.0000       0.261039         7.1032 
  80   0.0000       0.261040         7.1033 
  81   0.0000       0.264269         7.1911 
  82   0.0000       0.336367         9.1530 
  83   0.0000       0.336374         9.1532 
  84   0.0000       0.359380         9.7792 
  85   0.0000       0.359382         9.7793 
  86   0.0000       0.375319        10.2129 
  87   0.0000       0.407888        11.0992 
  88   0.0000       0.407902        11.0996 
  89   0.0000       0.446243        12.1429 
  90   0.0000       0.446533        12.1508 
  91   0.0000       0.446537        12.1509 
  92   0.0000       0.491509        13.3746 
  93   0.0000       0.729677        19.8555 
  94   0.0000       0.729678        19.8555 
  95   0.0000       0.826645        22.4942 
  96   0.0000       1.278732        34.7961 
  97   0.0000       1.278739        34.7962 
  98   0.0000       1.304928        35.5089 
  99   0.0000       1.304939        35.5092 
 100   0.0000       1.307717        35.5848 
 101   0.0000       1.312085        35.7036 
 102   0.0000       1.322280        35.9811 
 103   0.0000       1.322281        35.9811 
 104   0.0000       1.330911        36.2159 
 105   0.0000       1.333816        36.2950 
 106   0.0000       1.335264        36.3344 
 107   0.0000       1.335270        36.3345 
 108   0.0000       1.341633        36.5077 
 109   0.0000       1.341640        36.5079 
 110   0.0000       1.345397        36.6101 
 111   0.0000       1.348052        36.6824 
 112   0.0000       1.348054        36.6824 
 113   0.0000       1.355466        36.8841 
 114   0.0000       1.363167        37.0937 
 115   0.0000       1.378000        37.4973 
 116   0.0000       1.378002        37.4973 
 117   0.0000       1.380638        37.5691 
 118   0.0000       1.383715        37.6528 
 119   0.0000       1.383716        37.6528 
 120   0.0000       1.407210        38.2921 
 121   0.0000       1.407222        38.2924 
 122   0.0000       1.416237        38.5378 
 123   0.0000       1.433431        39.0056 
 124   0.0000       1.433442        39.0059 
 125   0.0000       1.451630        39.5009 
 126   0.0000       1.512015        41.1440 
 127   0.0000       1.512018        41.1441 
 128   0.0000       1.524798        41.4919 
 129   0.0000       1.524798        41.4919 
 130   0.0000       1.525561        41.5126 
 131   0.0000       1.588150        43.2158 
 132   0.0000       1.656925        45.0872 
 133   0.0000       1.656933        45.0874 
 134   0.0000       1.659823        45.1661 
 135   0.0000       1.725498        46.9532 
 136   0.0000       1.805809        49.1386 
 137   0.0000       1.859286        50.5937 
 138   0.0000       1.859304        50.5942 
 139   0.0000       1.860706        50.6324 
 140   0.0000       1.878426        51.1146 
 141   0.0000       1.878463        51.1156 
 142   0.0000       1.882775        51.2329 
 143   0.0000       1.889285        51.4101 
 144   0.0000       1.889316        51.4109 
 145   0.0000       1.959798        53.3288 
 146   0.0000       1.959822        53.3295 
 147   0.0000       1.973086        53.6904 
 148   0.0000       1.973136        53.6917 
 149   0.0000       1.977607        53.8134 
 150   0.0000       1.977620        53.8138 
 151   0.0000       1.979766        53.8722 
 152   0.0000       1.984450        53.9996 
 153   0.0000       2.007067        54.6151 
 154   0.0000       2.053861        55.8884 
 155   0.0000       2.053898        55.8894 
 156   0.0000       2.378980        64.7353 
 157   0.0000       2.459608        66.9293 
 158   0.0000       2.534151        68.9578 
 159   0.0000       2.534174        68.9584 
 160   0.0000       2.659774        72.3761 
 161   0.0000       3.002176        81.6934 
 162   0.0000       3.002189        81.6937 
 163   0.0000       3.151911        85.7678 
 164   0.0000       3.151937        85.7686 
 165   0.0000       3.595812        97.8470 
 166   0.0000       3.703130       100.7673 
 167   0.0000       3.703134       100.7674 
 168   0.0000       4.157272       113.1251 
 169   0.0000       4.667173       127.0002 
 170   0.0000       4.667207       127.0012 
 171   0.0000       4.680825       127.3717 
 172   0.0000       4.689286       127.6019 
 173   0.0000       4.689299       127.6023 
 174   0.0000       4.692221       127.6818 
 175   0.0000       4.693660       127.7210 
 176   0.0000       4.698424       127.8506 
 177   0.0000       4.698443       127.8511 
 178   0.0000       4.699137       127.8700 
 179   0.0000       4.708921       128.1363 
 180   0.0000       4.716470       128.3417 
 181   0.0000       4.716480       128.3419 
 182   0.0000       4.734879       128.8426 
 183   0.0000       4.735888       128.8701 
 184   0.0000       4.745082       129.1202 
 185   0.0000       4.745089       129.1204 
 186   0.0000       4.750665       129.2722 
 187   0.0000       4.750666       129.2722 
 188   0.0000       4.764304       129.6433 
 189   0.0000       4.764315       129.6436 
 190   0.0000       4.876848       132.7058 
 191   0.0000       4.882958       132.8721 
 192   0.0000       4.882980       132.8726 
 193   0.0000       4.883357       132.8829 
 194   0.0000       4.920752       133.9005 
 195   0.0000       4.920796       133.9017 
 196   0.0000       5.080917       138.2588 
 197   0.0000       5.403026       147.0238 
 198   0.0000       5.403239       147.0296 
 199   0.0000       5.403417       147.0344 
 200   0.0000       5.403463       147.0357 
 201   0.0000       5.405548       147.0924 
 202   0.0000       5.405598       147.0938 
 203   0.0000       5.409642       147.2038 
 204   0.0000       5.409736       147.2064 
 205   0.0000       5.409914       147.2112 
 206   0.0000       5.409933       147.2117 
 207   0.0000       5.410175       147.2183 
 208   0.0000       5.410180       147.2185 
 209   0.0000       5.410576       147.2293 
 210   0.0000       5.410778       147.2347 
 211   0.0000       5.410809       147.2356 
 212   0.0000       5.411054       147.2423 
 213   0.0000       5.411163       147.2452 
 214   0.0000       5.411276       147.2483 
 215   0.0000       5.411480       147.2538 
 216   0.0000       5.411847       147.2638 
 217   0.0000       5.411898       147.2652 
 218   0.0000       5.411916       147.2657 
 219   0.0000       5.412159       147.2723 
 220   0.0000       5.412263       147.2752 
 221   0.0000       5.412891       147.2923 
 222   0.0000       5.412899       147.2925 
 223   0.0000       5.413128       147.2987 
 224   0.0000       5.413203       147.3008 
 225   0.0000       5.413887       147.3194 
 226   0.0000       5.413928       147.3205 
 227   0.0000       5.421948       147.5387 
 228   0.0000       5.422006       147.5403 
 229   0.0000       5.428452       147.7157 
 230   0.0000       5.464052       148.6844 
 231   0.0000       5.464232       148.6893 
 232   0.0000       5.772969       157.0905 
 233   0.0000      33.203282       903.5072 
 234   0.0000      33.567243       913.4111 
 235   0.0000      33.567244       913.4111 
 236   0.0000      33.621544       914.8887 
 237   0.0000     109.109257      2969.0138 
 238   0.0000     109.225374      2972.1735 
 239   0.0000     109.225374      2972.1735 
 240   0.0000     109.229886      2972.2963 

                    ********************************
                    * MULLIKEN POPULATION ANALYSIS *
                    ********************************

--------------------------------------------
MULLIKEN ATOMIC CHARGES AND SPIN POPULATIONS
--------------------------------------------
   0 Ag:    0.376718    0.200183
   1 Ag:    0.482479    0.025849
   2 Ag:    0.482455    0.025853
   3 Ag:    0.482459    0.025853
   4 H :    0.175889    0.722261
Sum of atomic charges         :    2.0000000
Sum of atomic spin populations:    1.0000000

-----------------------------------------------------
MULLIKEN REDUCED ORBITAL CHARGES AND SPIN POPULATIONS
-----------------------------------------------------
CHARGE
  0 Ags       :     2.581620  s :     2.581620
      pz      :     2.165011  p :     6.181888
      px      :     2.008438
      py      :     2.008438
      dz2     :     1.912045  d :     9.857695
      dxz     :     1.977067
      dyz     :     1.977072
      dx2y2   :     1.995756
      dxy     :     1.995756
      f0      :     0.001179  f :     0.002045
      f+1     :     0.000244
      f-1     :     0.000244
      f+2     :     0.000161
      f-2     :     0.000161
      f+3     :     0.000024
      f-3     :     0.000033
      g0      :     0.000020  g :     0.000033
      g+1     :     0.000003
      g-1     :     0.000003
      g+2     :     0.000002
      g-2     :     0.000002
      g+3     :     0.000001
      g-3     :     0.000001
      g+4     :     0.000000
      g-4     :     0.000000
  1 Ags       :     2.468242  s :     2.468242
      pz      :     2.020030  p :     6.116659
      px      :     2.008782
      py      :     2.087846
      dz2     :     1.983346  d :     9.931515
      dxz     :     1.996963
      dyz     :     1.985279
      dx2y2   :     1.993419
      dxy     :     1.972508
      f0      :     0.000113  f :     0.001093
      f+1     :     0.000076
      f-1     :     0.000249
      f+2     :     0.000093
      f-2     :     0.000118
      f+3     :     0.000283
      f-3     :     0.000161
      g0      :     0.000001  g :     0.000012
      g+1     :     0.000000
      g-1     :     0.000002
      g+2     :     0.000001
      g-2     :     0.000002
      g+3     :     0.000001
      g-3     :     0.000000
      g+4     :     0.000002
      g-4     :     0.000002
  2 Ags       :     2.468260  s :     2.468260
      pz      :     2.020031  p :     6.116667
      px      :     2.068084
      py      :     2.028552
      dz2     :     1.983346  d :     9.931514
      dxz     :     1.988200
      dyz     :     1.994042
      dx2y2   :     1.977738
      dxy     :     1.988189
      f0      :     0.000113  f :     0.001093
      f+1     :     0.000206
      f-1     :     0.000119
      f+2     :     0.000112
      f-2     :     0.000099
      f+3     :     0.000283
      f-3     :     0.000161
      g0      :     0.000001  g :     0.000012
      g+1     :     0.000001
      g-1     :     0.000001
      g+2     :     0.000001
      g-2     :     0.000001
      g+3     :     0.000001
      g-3     :     0.000000
      g+4     :     0.000002
      g-4     :     0.000002
  3 Ags       :     2.468257  s :     2.468257
      pz      :     2.020031  p :     6.116666
      px      :     2.068083
      py      :     2.028551
      dz2     :     1.983346  d :     9.931514
      dxz     :     1.988200
      dyz     :     1.994042
      dx2y2   :     1.977738
      dxy     :     1.988189
      f0      :     0.000113  f :     0.001093
      f+1     :     0.000206
      f-1     :     0.000119
      f+2     :     0.000112
      f-2     :     0.000099
      f+3     :     0.000283
      f-3     :     0.000161
      g0      :     0.000001  g :     0.000012
      g+1     :     0.000001
      g-1     :     0.000001
      g+2     :     0.000001
      g-2     :     0.000001
      g+3     :     0.000001
      g-3     :     0.000000
      g+4     :     0.000002
      g-4     :     0.000002
  4 H s       :     0.813228  s :     0.813228
      pz      :     0.004567  p :     0.009216
      px      :     0.002325
      py      :     0.002323
      dz2     :     0.000745  d :     0.001667
      dxz     :     0.000438
      dyz     :     0.000438
      dx2y2   :     0.000023
      dxy     :     0.000023

SPIN
  0 Ags       :     0.079911  s :     0.079911
      pz      :     0.088284  p :     0.087991
      px      :    -0.000146
      py      :    -0.000146
      dz2     :     0.032139  d :     0.031536
      dxz     :    -0.000564
      dyz     :    -0.000564
      dx2y2   :     0.000263
      dxy     :     0.000263
      f0      :     0.000738  f :     0.000736
      f+1     :     0.000001
      f-1     :     0.000001
      f+2     :    -0.000002
      f-2     :    -0.000002
      f+3     :     0.000000
      f-3     :    -0.000000
      g0      :     0.000010  g :     0.000009
      g+1     :     0.000000
      g-1     :     0.000000
      g+2     :    -0.000000
      g-2     :    -0.000000
      g+3     :    -0.000000
      g-3     :    -0.000000
      g+4     :     0.000000
      g-4     :     0.000000
  1 Ags       :     0.018572  s :     0.018572
      pz      :     0.000311  p :     0.006880
      px      :     0.000092
      py      :     0.006477
      dz2     :     0.001118  d :     0.000393
      dxz     :    -0.000048
      dyz     :    -0.000635
      dx2y2   :     0.000431
      dxy     :    -0.000474
      f0      :     0.000004  f :     0.000005
      f+1     :    -0.000000
      f-1     :    -0.000004
      f+2     :     0.000003
      f-2     :     0.000000
      f+3     :     0.000000
      f-3     :     0.000001
      g0      :     0.000000  g :     0.000000
      g+1     :    -0.000000
      g-1     :    -0.000000
      g+2     :    -0.000000
      g-2     :    -0.000000
      g+3     :    -0.000000
      g-3     :     0.000000
      g+4     :     0.000000
      g-4     :    -0.000000
  2 Ags       :     0.018575  s :     0.018575
      pz      :     0.000310  p :     0.006881
      px      :     0.004882
      py      :     0.001689
      dz2     :     0.001119  d :     0.000393
      dxz     :    -0.000488
      dyz     :    -0.000194
      dx2y2   :    -0.000248
      dxy     :     0.000205
      f0      :     0.000004  f :     0.000005
      f+1     :    -0.000003
      f-1     :    -0.000001
      f+2     :     0.000001
      f-2     :     0.000003
      f+3     :     0.000000
      f-3     :     0.000001
      g0      :     0.000000  g :     0.000000
      g+1     :    -0.000000
      g-1     :    -0.000000
      g+2     :    -0.000000
      g-2     :    -0.000000
      g+3     :    -0.000000
      g-3     :     0.000000
      g+4     :    -0.000000
      g-4     :     0.000000
  3 Ags       :     0.018575  s :     0.018575
      pz      :     0.000310  p :     0.006880
      px      :     0.004881
      py      :     0.001689
      dz2     :     0.001119  d :     0.000393
      dxz     :    -0.000488
      dyz     :    -0.000194
      dx2y2   :    -0.000248
      dxy     :     0.000205
      f0      :     0.000004  f :     0.000005
      f+1     :    -0.000003
      f-1     :    -0.000001
      f+2     :     0.000001
      f-2     :     0.000003
      f+3     :     0.000000
      f-3     :     0.000001
      g0      :     0.000000  g :     0.000000
      g+1     :    -0.000000
      g-1     :    -0.000000
      g+2     :    -0.000000
      g-2     :    -0.000000
      g+3     :    -0.000000
      g-3     :     0.000000
      g+4     :    -0.000000
      g-4     :     0.000000
  4 H s       :     0.719125  s :     0.719125
      pz      :     0.000380  p :     0.003117
      px      :     0.001368
      py      :     0.001368
      dz2     :    -0.000141  d :     0.000020
      dxz     :     0.000074
      dyz     :     0.000074
      dx2y2   :     0.000006
      dxy     :     0.000006


                     *******************************
                     * LOEWDIN POPULATION ANALYSIS *
                     *******************************

-------------------------------------------
LOEWDIN ATOMIC CHARGES AND SPIN POPULATIONS
-------------------------------------------
   0 Ag:    0.412958    0.319447
   1 Ag:    0.498563    0.018087
   2 Ag:    0.498560    0.018087
   3 Ag:    0.498560    0.018087
   4 H :    0.091359    0.626291

----------------------------------------------------
LOEWDIN REDUCED ORBITAL CHARGES AND SPIN POPULATIONS
----------------------------------------------------
CHARGE
  0 Ags       :     2.376025  s :     2.376025
      pz      :     2.344957  p :     6.374636
      px      :     2.014840
      py      :     2.014839
      dz2     :     1.906268  d :     9.832444
      dxz     :     1.966924
      dyz     :     1.966929
      dx2y2   :     1.996161
      dxy     :     1.996161
      f0      :     0.002635  f :     0.003880
      f+1     :     0.000366
      f-1     :     0.000366
      f+2     :     0.000216
      f-2     :     0.000216
      f+3     :     0.000036
      f-3     :     0.000045
      g0      :     0.000042  g :     0.000057
      g+1     :     0.000003
      g-1     :     0.000003
      g+2     :     0.000003
      g-2     :     0.000003
      g+3     :     0.000001
      g-3     :     0.000001
      g+4     :     0.000000
      g-4     :     0.000000
  1 Ags       :     2.348154  s :     2.348154
      pz      :     2.036435  p :     6.203391
      px      :     2.016976
      py      :     2.149980
      dz2     :     1.988799  d :     9.948254
      dxz     :     1.996033
      dyz     :     1.987862
      dx2y2   :     1.995777
      dxy     :     1.979783
      f0      :     0.000150  f :     0.001622
      f+1     :     0.000112
      f-1     :     0.000409
      f+2     :     0.000138
      f-2     :     0.000153
      f+3     :     0.000456
      f-3     :     0.000204
      g0      :     0.000001  g :     0.000016
      g+1     :     0.000001
      g-1     :     0.000002
      g+2     :     0.000002
      g-2     :     0.000002
      g+3     :     0.000001
      g-3     :     0.000001
      g+4     :     0.000002
      g-4     :     0.000003
  2 Ags       :     2.348152  s :     2.348152
      pz      :     2.036436  p :     6.203392
      px      :     2.116729
      py      :     2.050227
      dz2     :     1.988799  d :     9.948258
      dxz     :     1.989906
      dyz     :     1.993990
      dx2y2   :     1.983784
      dxy     :     1.991778
      f0      :     0.000150  f :     0.001622
      f+1     :     0.000335
      f-1     :     0.000186
      f+2     :     0.000150
      f-2     :     0.000142
      f+3     :     0.000456
      f-3     :     0.000204
      g0      :     0.000001  g :     0.000016
      g+1     :     0.000002
      g-1     :     0.000001
      g+2     :     0.000002
      g-2     :     0.000002
      g+3     :     0.000001
      g-3     :     0.000001
      g+4     :     0.000003
      g-4     :     0.000002
  3 Ags       :     2.348152  s :     2.348152
      pz      :     2.036436  p :     6.203392
      px      :     2.116729
      py      :     2.050227
      dz2     :     1.988799  d :     9.948258
      dxz     :     1.989906
      dyz     :     1.993990
      dx2y2   :     1.983784
      dxy     :     1.991778
      f0      :     0.000150  f :     0.001622
      f+1     :     0.000335
      f-1     :     0.000186
      f+2     :     0.000150
      f-2     :     0.000142
      f+3     :     0.000456
      f-3     :     0.000204
      g0      :     0.000001  g :     0.000016
      g+1     :     0.000002
      g-1     :     0.000001
      g+2     :     0.000002
      g-2     :     0.000002
      g+3     :     0.000001
      g-3     :     0.000001
      g+4     :     0.000003
      g-4     :     0.000002
  4 H s       :     0.778813  s :     0.778813
      pz      :     0.084902  p :     0.119412
      px      :     0.017256
      py      :     0.017255
      dz2     :     0.005559  d :     0.010415
      dxz     :     0.002328
      dyz     :     0.002328
      dx2y2   :     0.000100
      dxy     :     0.000100

SPIN
  0 Ags       :     0.085820  s :     0.085820
      pz      :     0.169245  p :     0.169004
      px      :    -0.000120
      py      :    -0.000120
      dz2     :     0.063396  d :     0.062302
      dxz     :    -0.000632
      dyz     :    -0.000632
      dx2y2   :     0.000085
      dxy     :     0.000085
      f0      :     0.002285  f :     0.002283
      f+1     :    -0.000000
      f-1     :    -0.000000
      f+2     :    -0.000001
      f-2     :    -0.000001
      f+3     :     0.000000
      f-3     :     0.000001
      g0      :     0.000038  g :     0.000038
      g+1     :     0.000000
      g-1     :     0.000000
      g+2     :    -0.000000
      g-2     :    -0.000000
      g+3     :    -0.000000
      g-3     :     0.000000
      g+4     :    -0.000000
      g-4     :    -0.000000
  1 Ags       :     0.008378  s :     0.008378
      pz      :     0.003258  p :     0.008177
      px      :     0.000080
      py      :     0.004838
      dz2     :     0.002305  d :     0.001527
      dxz     :    -0.000040
      dyz     :    -0.001029
      dx2y2   :     0.000664
      dxy     :    -0.000373
      f0      :     0.000013  f :     0.000006
      f+1     :    -0.000000
      f-1     :    -0.000010
      f+2     :     0.000002
      f-2     :     0.000000
      f+3     :    -0.000000
      f-3     :     0.000002
      g0      :     0.000000  g :    -0.000000
      g+1     :     0.000000
      g-1     :     0.000000
      g+2     :    -0.000000
      g-2     :    -0.000000
      g+3     :     0.000000
      g-3     :     0.000000
      g+4     :     0.000000
      g-4     :    -0.000000
  2 Ags       :     0.008378  s :     0.008378
      pz      :     0.003258  p :     0.008176
      px      :     0.003648
      py      :     0.001270
      dz2     :     0.002305  d :     0.001527
      dxz     :    -0.000782
      dyz     :    -0.000287
      dx2y2   :    -0.000114
      dxy     :     0.000405
      f0      :     0.000013  f :     0.000006
      f+1     :    -0.000008
      f-1     :    -0.000003
      f+2     :     0.000001
      f-2     :     0.000002
      f+3     :    -0.000000
      f-3     :     0.000002
      g0      :     0.000000  g :    -0.000000
      g+1     :     0.000000
      g-1     :     0.000000
      g+2     :    -0.000000
      g-2     :    -0.000000
      g+3     :     0.000000
      g-3     :     0.000000
      g+4     :    -0.000000
      g-4     :    -0.000000
  3 Ags       :     0.008378  s :     0.008378
      pz      :     0.003258  p :     0.008176
      px      :     0.003648
      py      :     0.001270
      dz2     :     0.002305  d :     0.001527
      dxz     :    -0.000782
      dyz     :    -0.000287
      dx2y2   :    -0.000114
      dxy     :     0.000405
      f0      :     0.000013  f :     0.000006
      f+1     :    -0.000008
      f-1     :    -0.000003
      f+2     :     0.000001
      f-2     :     0.000002
      f+3     :    -0.000000
      f-3     :     0.000002
      g0      :     0.000000  g :    -0.000000
      g+1     :     0.000000
      g-1     :     0.000000
      g+2     :    -0.000000
      g-2     :    -0.000000
      g+3     :     0.000000
      g-3     :     0.000000
      g+4     :    -0.000000
      g-4     :    -0.000000
  4 H s       :     0.623022  s :     0.623022
      pz      :     0.000262  p :     0.003451
      px      :     0.001595
      py      :     0.001594
      dz2     :    -0.000346  d :    -0.000183
      dxz     :     0.000076
      dyz     :     0.000076
      dx2y2   :     0.000006
      dxy     :     0.000006


                      *****************************
                      * MAYER POPULATION ANALYSIS *
                      *****************************

  NA   - Mulliken gross atomic population
  ZA   - Total nuclear charge
  QA   - Mulliken gross atomic charge
  VA   - Mayer's total valence
  BVA  - Mayer's bonded valence
  FA   - Mayer's free valence

  ATOM       NA         ZA         QA         VA         BVA        FA
  0 Ag    18.6233    19.0000     0.3767     1.4754     1.3542     0.1212
  1 Ag    18.5175    19.0000     0.4825     0.9931     0.9922     0.0009
  2 Ag    18.5175    19.0000     0.4825     0.9931     0.9922     0.0009
  3 Ag    18.5175    19.0000     0.4825     0.9931     0.9922     0.0009
  4 H      0.8241     1.0000     0.1759     0.9806     0.4655     0.5151

  Mayer bond orders larger than 0.100000
B(  0-Ag,  1-Ag) :   0.3001 B(  0-Ag,  2-Ag) :   0.3001 B(  0-Ag,  3-Ag) :   0.3001 
B(  0-Ag,  4-H ) :   0.4539 B(  1-Ag,  2-Ag) :   0.3441 B(  1-Ag,  3-Ag) :   0.3441 
B(  2-Ag,  3-Ag) :   0.3441 

-------
TIMINGS
-------

Total SCF time: 0 days 0 hours 0 min 12 sec 

Total time                  ....      12.647 sec
Sum of individual times     ....      12.446 sec  ( 98.4%)

Fock matrix formation       ....      10.252 sec  ( 81.1%)
  XC integration            ....       0.887 sec  (  8.7% of F)
    Basis function eval.    ....       0.099 sec  ( 11.2% of XC)
    Density eval.           ....       0.135 sec  ( 15.3% of XC)
    XC-Functional eval.     ....       0.029 sec  (  3.3% of XC)
    XC-Potential eval.      ....       0.223 sec  ( 25.2% of XC)
Diagonalization             ....       0.268 sec  (  2.1%)
Density matrix formation    ....       0.027 sec  (  0.2%)
Population analysis         ....       0.018 sec  (  0.1%)
Initial guess               ....       1.370 sec  ( 10.8%)
Orbital Transformation      ....       0.000 sec  (  0.0%)
Orbital Orthonormalization  ....       0.000 sec  (  0.0%)
DIIS solution               ....       0.092 sec  (  0.7%)
Grid generation             ....       0.419 sec  (  3.3%)


           ************************************************************
           *        Program running with 24 parallel MPI-processes    *
           *              working on a common directory               *
           ************************************************************

------------------------------------------------------------------------------
                                ORCA  MP2 
------------------------------------------------------------------------------

Freezing NCore=0 chemical core electrons

-------------
RI-MP2 ENERGY
-------------
Dimension of the basis                    ...  241
Memory devoted to MP2                     ... 5000 MB   
Data format for buffers                   ... DOUBLE
Compression type for matrix containers    ... UNCOMPRESSED
Overall scaling of the MP2 energy         ...   2.700e-01
Calculating two index integrals           ... done (    0.020 sec)
Cholesky decomposition of V**-1           ... done (    0.034 sec)

-----------------
RI-TRANSFORMATION (AUX index driven)
-----------------

Dimension of the orbital-basis         ... 241
Dimension of the aux-basis             ... 743
Transformation of internal/external MOs...    0-  37 to   38- 240
Number Format for Storage              ... Double (8 Byte)
Integral mode                          ... Direct

First Phase: integral generation and transformation of MO indices
  Aux angular momentum 0               ... done (    0.003 sec)
  Aux angular momentum 1               ... done (    0.005 sec)
  Aux angular momentum 2               ... done (    0.009 sec)
  Aux angular momentum 3               ... done (    0.007 sec)
  Aux angular momentum 4               ... done (    0.010 sec)
  Aux angular momentum 5               ... done (    0.014 sec)
  Aux angular momentum 6               ... done (    0.020 sec)
Closing buffer VIA ( 0.04 GB; CompressionRatio= 1.00)
  Phase 1 completed in     0.138 sec
Second Phase: sorting and transformation of aux index

IA-Transformation
Memory available                       ... 4990 MB 
Max. # MO pairs treated in a batch     ... 2    
# of internal orbitals                 ... 38
# batches for internal orbitals        ... 1
Closing buffer IAV ( 0.00 GB; CompressionRatio= 1.00)
(ia|v) transformation done in     0.026 sec

  Phase 2 completed in     0.066 sec
RI-Integral transformation completed in     0.206 sec

-----------------
RI-TRANSFORMATION (AUX index driven)
-----------------

Dimension of the orbital-basis         ... 241
Dimension of the aux-basis             ... 743
Transformation of internal/external MOs...    0-  36 to   37- 240
Number Format for Storage              ... Double (8 Byte)
Integral mode                          ... Direct

First Phase: integral generation and transformation of MO indices
  Aux angular momentum 0               ... done (    0.003 sec)
  Aux angular momentum 1               ... done (    0.005 sec)
  Aux angular momentum 2               ... done (    0.009 sec)
  Aux angular momentum 3               ... done (    0.007 sec)
  Aux angular momentum 4               ... done (    0.010 sec)
  Aux angular momentum 5               ... done (    0.014 sec)
  Aux angular momentum 6               ... done (    0.020 sec)
Closing buffer VIA ( 0.04 GB; CompressionRatio= 1.00)
  Phase 1 completed in     0.141 sec
Second Phase: sorting and transformation of aux index

IA-Transformation
Memory available                       ... 4990 MB 
Max. # MO pairs treated in a batch     ... 2    
# of internal orbitals                 ... 37
# batches for internal orbitals        ... 1
Closing buffer IAV ( 0.00 GB; CompressionRatio= 1.00)
(ia|v) transformation done in     0.025 sec

  Phase 2 completed in     0.064 sec
RI-Integral transformation completed in     0.205 sec
Opening buffers                              ... done

Starting loop over batches of integrals:

Operator 0  - window                       ... (  0- 37)x( 38-240)
Operator 0  - Memory available             ...  5000 MB
Operator 0  - Memory needed per MO         ...   1.2 MB
Operator 0  - Number of orbitals per batch ... 2
Operator 0  - Number of batches            ... 1

OPERATOR  0   PASS   0:  MOs     0 ...    1 +    2 ...    3 +    4 ...    5 +    6 ...    7
                            +    8 ...    9 +   10 ...   11 +   12 ...   13 +   14 ...   15
                            +   16 ...   17 +   18 ...   19 +   20 ...   21 +   22 ...   23
                            +   24 ...   25 +   26 ...   27 +   28 ...   29 +   30 ...   31
                            +   32 ...   33 +   34 ...   35 +   36 ...   37
  Reading integrals       ... ok

Operator 1  - window                       ... (  0- 36)x( 37-240)
Operator 1  - Memory available             ...  5000 MB
Operator 1  - Memory needed per MO         ...   1.2 MB
Operator 1  - Number of orbitals per batch ... 2
Operator 1  - Number of batches            ... 1

OPERATOR  1   PASS   0:  MOs     0 ...    1 +    2 ...    3 +    4 ...    5 +    6 ...    7
                            +    8 ...    9 +   10 ...   11 +   12 ...   13 +   14 ...   15
                            +   16 ...   17 +   18 ...   19 +   20 ...   21 +   22 ...   23
                            +   24 ...   25 +   26 ...   27 +   28 ...   29 +   30 ...   31
                            +   32 ...   33 +   34 ...   35 +   36 ...   36
  Reading integrals       ... ok
Time spent in pair loops =     0.408 sec

Correlation energy components}
 E2 and T2 for alpha/alpha pairs :     -0.140351581 Eh      0.000000000
 E2 and T2 for beta/beta   pairs :     -0.138688367 Eh      0.000000000
 E2 and T2 for alpha/beta  pairs :     -0.549450618 Eh      0.000000000


-----------------------------------------------
 RI-MP2 CORRELATION ENERGY:     -0.828490566 Eh
-----------------------------------------------


-------
TIMINGS
-------

Total time                :    0.987 sec
Integral trafo            :    0.422 sec ( 42.7%)
I/O of integrals          :    0.003 sec (  0.3%)
K(i,j) Operators          :    0.210 sec ( 21.2%)
T(i,j) pair energies      :    0.012 sec (  1.2%)
V-calculation             :    0.020 sec (  2.0%)
V**(-1/2)                 :    0.034 sec (  3.4%)
Gamma(ia|P)               :    0.000 sec (  0.0%)
Gamma-Trafo               :    0.000 sec (  0.0%)
D(virtual)                :    0.000 sec (  0.0%)
D(internal)               :    0.000 sec (  0.0%)
W(virtual)                :    0.000 sec (  0.0%)
W(internal)               :    0.000 sec (  0.0%)
L(virtual)                :    0.000 sec (  0.0%)
L(internal)               :    0.000 sec (  0.0%)
G(D)                      :    0.000 sec (  0.0%)
G(Z)                      :    0.000 sec (  0.0%)
Z-Vector Solution         :    0.000 sec (  0.0%)
Z-Vector Solution         :    0.000 sec (  0.0%)
3-Index Derivative 
+ Separable RIJ part      :    0.000 sec (  0.0%)
2-Index Derivative 
+ Separable RIJ part      :    0.000 sec (  0.0%)
Separable Gradient (X)    :    0.000 sec (  0.0%)


---------------------------------------
MP2 TOTAL ENERGY:     -587.592249726 Eh
---------------------------------------


-------------------------------------------------------------------------------
                          DFT DISPERSION CORRECTION                            
                                                                               
                              DFTD3 V3.1  Rev 1                                
                          USING Becke-Johnson damping                          
-------------------------------------------------------------------------------
The B2PLYP functional is recognized
Active option DFTDOPT                   ...         4   

molecular C6(AA) [au] = 4530.252935 


            DFT-D V3
 parameters
 s6 scaling factor         :     0.6400 
 a1 scaling factor         :     0.3065 
 s8 scaling factor         :     0.9147 
 a2 scaling factor         :     5.0570 
 ad hoc parameters k1-k3   :    16.0000     1.3333    -4.0000 

 Edisp/kcal,au: -7.695131649127  -0.012262971551 
 E6   /kcal   :  -2.551554994 
 E8   /kcal   :  -5.143576655 
 % E8         :  66.841957874 

-------------------------   ----------------
Dispersion correction           -0.012262972
-------------------------   ----------------


-------------------------   --------------------
FINAL SINGLE POINT ENERGY      -587.604512697619
-------------------------   --------------------


                            ***************************************
                            *     ORCA property calculations      *
                            ***************************************


  WARNING: The energy has been calculated at the MP2 level but the densities
           used in the property calculations are still SCF densities
           MP2 response densities have not been calculated 
           use %mp2 Density relaxed end
           or  %mp2 Density unrelaxed end

                                    ---------------------
                                    Active property flags
                                    ---------------------
   (+) Dipole Moment


------------------------------------------------------------------------------
                       ORCA ELECTRIC PROPERTIES CALCULATION
------------------------------------------------------------------------------

Dipole Moment Calculation                       ... on
Quadrupole Moment Calculation                   ... off
Polarizability Calculation                      ... off
GBWName                                         ... Ag04C2_H_A.gbw
Electron density file                           ... Ag04C2_H_A.scfp
The origin for moment calculation is the CENTER OF MASS  = ( 0.000000, -0.000000 -0.019530)

-------------
DIPOLE MOMENT
-------------
                                X             Y             Z
Electronic contribution:     -0.00000       0.00001      -5.24377
Nuclear contribution   :      0.00000       0.00000       5.41329
                        -----------------------------------------
Total Dipole Moment    :     -0.00000       0.00001       0.16952
                        -----------------------------------------
Magnitude (a.u.)       :      0.16952
Magnitude (Debye)      :      0.43089



--------------------
Rotational spectrum 
--------------------
 
Rotational constants in cm-1:     0.019934     0.019231     0.019231 
Rotational constants in MHz :   597.606998   576.544336   576.544235 

 Dipole components along the rotational axes: 
x,y,z [a.u.] :    -0.169520    -0.000010    -0.000000 
x,y,z [Debye]:    -0.430885    -0.000026    -0.000000 

 

Timings for individual modules:

Sum of individual times         ...       16.144 sec (=   0.269 min)
GTO integral calculation        ...        1.662 sec (=   0.028 min)  10.3 %
SCF iterations                  ...       12.994 sec (=   0.217 min)  80.5 %
MP2 module                      ...        1.487 sec (=   0.025 min)   9.2 %
                             ****ORCA TERMINATED NORMALLY****
TOTAL RUN TIME: 0 days 0 hours 0 minutes 16 seconds 640 msec
