
                                 *****************
                                 * O   R   C   A *
                                 *****************

           --- An Ab Initio, DFT and Semiempirical electronic structure package ---

                  #######################################################
                  #                        -***-                        #
                  #          Department of theory and spectroscopy      #
                  #               Directorship: Frank Neese             #
                  #        Max Planck Institute fuer Kohlenforschung    #
                  #                Kaiser Wilhelm Platz 1               #
                  #                 D-45470 Muelheim/Ruhr               #
                  #                      Germany                        #
                  #                                                     #
                  #                  All rights reserved                #
                  #                        -***-                        #
                  #######################################################


                         Program Version 4.2.0 -  RELEASE  -


 With contributions from (in alphabetic order):
   Daniel Aravena         : Magnetic Suceptibility
   Michael Atanasov       : Ab Initio Ligand Field Theory (pilot matlab implementation)
   Alexander A. Auer      : GIAO ZORA, VPT2
   Ute Becker             : Parallelization
   Giovanni Bistoni       : ED, misc. LED, open-shell LED, HFLED
   Martin Brehm           : Molecular dynamics
   Dmytro Bykov           : SCF Hessian
   Vijay G. Chilkuri      : MRCI spin determinant printing, contributions to CSF-ICE
   Dipayan Datta          : RHF DLPNO-CCSD density
   Achintya Kumar Dutta   : EOM-CC, STEOM-CC
   Dmitry Ganyushin       : Spin-Orbit,Spin-Spin,Magnetic field MRCI
   Miquel Garcia          : C-PCM Hessian, Gaussian charge scheme
   Yang Guo               : DLPNO-NEVPT2, CIM, IAO-localization
   Andreas Hansen         : Spin unrestricted coupled pair/coupled cluster methods
   Benjamin Helmich-Paris : CASSCF linear response (MC-RPA)
   Lee Huntington         : MR-EOM, pCC
   Robert Izsak           : Overlap fitted RIJCOSX, COSX-SCS-MP3, EOM
   Christian Kollmar      : KDIIS, OOCD, Brueckner-CCSD(T), CCSD density
   Simone Kossmann        : Meta GGA functionals, TD-DFT gradient, OOMP2, MP2 Hessian
   Martin Krupicka        : AUTO-CI
   Lucas Lang             : DCDCAS
   Dagmar Lenk            : GEPOL surface, SMD
   Dimitrios Liakos       : Extrapolation schemes; Compound Job, initial MDCI parallelization
   Dimitrios Manganas     : Further ROCIS development; embedding schemes
   Dimitrios Pantazis     : SARC Basis sets
   Taras Petrenko         : DFT Hessian,TD-DFT gradient, ASA, ECA, R-Raman, ABS, FL, XAS/XES, NRVS
   Peter Pinski           : DLPNO-MP2, DLPNO-MP2 Gradient
   Christoph Reimann      : Effective Core Potentials
   Marius Retegan         : Local ZFS, SOC
   Christoph Riplinger    : Optimizer, TS searches, QM/MM, DLPNO-CCSD(T), (RO)-DLPNO pert. Triples
   Tobias Risthaus        : Range-separated hybrids, TD-DFT gradient, RPA, STAB
   Michael Roemelt        : Original ROCIS implementation
   Masaaki Saitow         : Open-shell DLPNO-CCSD energy and density
   Barbara Sandhoefer     : DKH picture change effects
   Avijit Sen             : IP-ROCIS
   Kantharuban Sivalingam : CASSCF convergence, NEVPT2, FIC-MRCI
   Bernardo de Souza      : ESD, SOC TD-DFT
   Georgi Stoychev        : AutoAux, RI-MP2 NMR
   Willem Van den Heuvel  : Paramagnetic NMR
   Boris Wezisla          : Elementary symmetry handling
   Frank Wennmohs         : Technical directorship


 We gratefully acknowledge several colleagues who have allowed us to
 interface, adapt or use parts of their codes:
   Stefan Grimme, W. Hujo, H. Kruse,             : VdW corrections, initial TS optimization,
                  C. Bannwarth                     DFT functionals, gCP, sTDA/sTD-DF
   Ed Valeev, F. Pavosevic, A. Kumar             : LibInt (2-el integral package), F12 methods
   Garnet Chan, S. Sharma, J. Yang, R. Olivares  : DMRG
   Ulf Ekstrom                                   : XCFun DFT Library
   Mihaly Kallay                                 : mrcc  (arbitrary order and MRCC methods)
   Andreas Klamt, Michael Diedenhofen            : otool_cosmo (COSMO solvation model)
   Jiri Pittner, Ondrej Demel                    : Mk-CCSD
   Frank Weinhold                                : gennbo (NPA and NBO analysis)
   Christopher J. Cramer and Donald G. Truhlar   : smd solvation model
   Lars Goerigk                                  : TD-DFT with DH, B97 family of functionals
   V. Asgeirsson, H. Jonsson                     : NEB implementation
   FAccTs GmbH                                   : IRC, NEB, NEB-TS, Multilevel, MM, QM/MM, CI optimization
   S Lehtola, MJT Oliveira, MAL Marques          : LibXC Library


 Your calculation uses the libint2 library for the computation of 2-el integrals
 For citations please refer to: http://libint.valeyev.net

 Your ORCA version has been built with support for libXC version: 4.2.3
 For citations please refer to: https://tddft.org/programs/libxc/

 This ORCA versions uses:
   CBLAS   interface :  Fast vector & matrix operations
   LAPACKE interface :  Fast linear algebra routines
   SCALAPACK package :  Parallel linear algebra routines


Your calculation utilizes the atom-pairwise dispersion correction
with the Becke-Johnson damping scheme (D3BJ)
Cite in your paper:
S.Grimme, S.Ehrlich, L.Goerigk, J Comput Chem, (2011), 32, 1456–1465 
S.Grimme, J.Antony, S.Ehrlich and H.Krieg, J.Chem.Phys., 132, (2010), 154104 
   

----- Orbital basis set information -----
Your calculation utilizes the basis: def2-TZVPPD
   F. Weigend and R. Ahlrichs, Phys. Chem. Chem. Phys. 7, 3297 (2005).
   D. Rappoport and F. Furche, J. Chem. Phys. 133 134105 (2010).

----- AuxC basis set information -----
Your calculation utilizes the auxiliary basis: def2-TZVPPD/C
   A. Hellweg, C. Hattig, S. Hofener and W. Klopper, Theor. Chem. Acc. 117, 587 (2007).

----- AuxJK basis set information -----
Your calculation utilizes the auxiliary basis: def2/JK
   H-Ba, Hf-Rn: F. Weigend, J. Comput. Chem. 29, 167 (2008).

cite the ECPs for Ag [Def2-ECP] as follows:
Ce-Yb(ecp-28): M. Dolg, H. Stoll, H.Preuss, J. Chem. Phys., 1989, 90, 1730-1734.
Y-Cd(ecp-28), Hf-Hg(ecp-46): D. Andrae,U. Haeussermann, M. Dolg, H. Stoll, H. Preuss, Theor. Chim. Acta, 1990, 77, 123-141.
In-Sb(ecp-28), Tl-Bi(ecp-46): B. Metz, H. Stoll, M. Dolg, J. Chem. Phys., 2000, 113, 2563-2569.
Te-Xe(ecp-28), Po-Rn(ecp-46): K. A. Peterson, D. Figgen, E. Goll, H. Stoll, M. Dolg, J. Chem. Phys., 2003, 119, 11113-11123.
Rb(ecp-28), Cs(ecp-46): T. Leininger, A. Nicklass, W. Kuechle, H. Stoll, M. Dolg, A. Bergner, Chem. Phys. Lett., 1996, 255, 274-280.
Sr(ecp-28), Ba(ecp-46): M. Kaupp, P. V. Schleyer, H. Stoll and H. Preuss, J. Chem. Phys., 1991, 94, 1360-1366.
La(ecp-46): M. Dolg, H. Stoll, A. Savin, H. Preuss, Theor. Chim. Acta, 1989, 75, 173-194.
Lu(ecp-28): X. Cao, M. Dolg, J. Chem. Phys., 2001, 115, 7348-7355.

ECP parameters for Ag [Def2-ECP] have been obtained from:
TURBOMOLE (7.0.2)

================================================================================
                                        WARNINGS
                       Please study these warnings very carefully!
================================================================================


WARNING: your system is open-shell and RHF/RKS was chosen
  ===> : WILL SWITCH to UHF/UKS


WARNING: No MP2 level density has been requested!
         To caclulate MP2 level properties use
         %mp2 Density relaxed end
         or
         %mp2 Density unrelaxed end
         Otherwise for double-hybrid DFT only the energy is correct!

WARNING: The frozen-core approximation is turned on by default for 
         the MP2 part of double-hybrid DFT.

INFO   : the flag for use of LIBINT has been found!

================================================================================
                                       INPUT FILE
================================================================================
NAME = Ag04C2_H_F.in
|  1> #
|  2> # Ag04C2_H_F ri-B2PLYP-D3BJ/Def2-TZVPPD
|  3> #
|  4> ! rijk ri-b2plyp d3bj def2-tzvppd def2/jk def2-tzvppd/c grid4 nofinalgrid
|  5> 
|  6> *xyz 2 2
|  7> Ag       0.000000    1.604405   -0.611776 
|  8> Ag       1.389456   -0.802203   -0.611776 
|  9> Ag      -1.389456   -0.802203   -0.611776 
| 10> Ag       0.000000    0.000000    1.871824 
| 11> H        0.000000    0.000000   -1.715373 
| 12> *
| 13> 
| 14> %maxcore 5000
| 15> 
| 16> %pal
| 17> nprocs = 24
| 18> end
| 19> 
| 20> 
| 21>                          ****END OF INPUT****
================================================================================

                       ****************************
                       * Single Point Calculation *
                       ****************************

---------------------------------
CARTESIAN COORDINATES (ANGSTROEM)
---------------------------------
  Ag     0.000000    1.604405   -0.611776
  Ag     1.389456   -0.802203   -0.611776
  Ag    -1.389456   -0.802203   -0.611776
  Ag     0.000000    0.000000    1.871824
  H      0.000000    0.000000   -1.715373

----------------------------
CARTESIAN COORDINATES (A.U.)
----------------------------
  NO LB      ZA    FRAG     MASS         X           Y           Z
   0 Ag   19.0000*   0   107.870    0.000000    3.031886   -1.156089
   1 Ag   19.0000*   0   107.870    2.625691   -1.515944   -1.156089
   2 Ag   19.0000*   0   107.870   -2.625691   -1.515944   -1.156089
   3 Ag   19.0000*   0   107.870    0.000000    0.000000    3.537235
   4 H     1.0000    0     1.008    0.000000    0.000000   -3.241585
* core charge reduced due to ECP

--------------------------------
INTERNAL COORDINATES (ANGSTROEM)
--------------------------------
 Ag     0   0   0     0.000000000000     0.00000000     0.00000000
 Ag     1   0   0     2.778911664951     0.00000000     0.00000000
 Ag     1   2   0     2.778911664951    60.00000798     0.00000000
 Ag     1   2   3     2.956752333900    61.97049292    72.09954764
 H      1   2   3     1.947316549109    44.47770393   306.01333306

---------------------------
INTERNAL COORDINATES (A.U.)
---------------------------
 Ag     0   0   0     0.000000000000     0.00000000     0.00000000
 Ag     1   0   0     5.251381997116     0.00000000     0.00000000
 Ag     1   2   0     5.251381997116    60.00000798     0.00000000
 Ag     1   2   3     5.587452156904    61.97049292    72.09954764
 H      1   2   3     3.679894973869    44.47770393   306.01333306

---------------------
BASIS SET INFORMATION
---------------------
There are 2 groups of distinct atoms

 Group   1 Type Ag  : 7s7p6d2f1g contracted to 6s4p3d2f1g pattern {211111/4111/411/11/1}
 Group   2 Type H   : 5s3p1d contracted to 3s3p1d pattern {311/111/1}

Atom   0Ag   basis set group =>   1
Atom   1Ag   basis set group =>   1
Atom   2Ag   basis set group =>   1
Atom   3Ag   basis set group =>   1
Atom   4H    basis set group =>   2
---------------------------------
AUXILIARY/C BASIS SET INFORMATION
---------------------------------
There are 2 groups of distinct atoms

 Group   1 Type Ag  : 8s7p6d5f4g3h1i contracted to 8s7p6d5f4g3h1i pattern {11111111/1111111/111111/11111/1111/111/1}
 Group   2 Type H   : 5s4p3d1f contracted to 5s4p3d1f pattern {11111/1111/111/1}

Atom   0Ag   basis set group =>   1
Atom   1Ag   basis set group =>   1
Atom   2Ag   basis set group =>   1
Atom   3Ag   basis set group =>   1
Atom   4H    basis set group =>   2
----------------------------------
AUXILIARY/JK BASIS SET INFORMATION
----------------------------------
There are 2 groups of distinct atoms

 Group   1 Type Ag  : 13s12p10d9f6g3h2i contracted to 11s10p9d8f6g3h2i pattern {31111111111/3111111111/211111111/21111111/111111/111/11}
 Group   2 Type H   : 4s2p2d contracted to 2s2p2d pattern {31/11/11}

Atom   0Ag   basis set group =>   1
Atom   1Ag   basis set group =>   1
Atom   2Ag   basis set group =>   1
Atom   3Ag   basis set group =>   1
Atom   4H    basis set group =>   2
-------------------------
ECP PARAMETER INFORMATION
-------------------------

 Group 1, Type Ag ECP Def2-ECP (replacing 28 core electrons, lmax=3)

Atom   0Ag   ECP group =>   1
Atom   1Ag   ECP group =>   1
Atom   2Ag   ECP group =>   1
Atom   3Ag   ECP group =>   1



           ************************************************************
           *        Program running with 24 parallel MPI-processes    *
           *              working on a common directory               *
           ************************************************************
------------------------------------------------------------------------------
                           ORCA GTO INTEGRAL CALCULATION
                           -- RI-GTO INTEGRALS CHOSEN --
------------------------------------------------------------------------------

                         BASIS SET STATISTICS AND STARTUP INFO

Gaussian basis set:
 # of primitive gaussian shells          ...  101
 # of primitive gaussian functions       ...  343
 # of contracted shells                  ...   71
 # of contracted basis functions         ...  241
 Highest angular momentum                ...    4
 Maximum contraction depth               ...    4
Auxiliary gaussian basis set:
 # of primitive gaussian shells          ...  228
 # of primitive gaussian functions       ... 1120
 # of contracted shells                  ...  202
 # of contracted aux-basis functions     ... 1038
 Highest angular momentum                ...    6
 Maximum contraction depth               ...    3
Ratio of auxiliary to basis functions    ...  4.31
Integral package used                  ... LIBINT
 One Electron integrals                  
   ECP integrals                         ... done
 Ordering auxiliary basis shells         ... done
 Integral threshhold             Thresh  ...  1.000e-10
 Primitive cut-off               TCut    ...  1.000e-11
 Pre-screening matrix                    ... done
 Shell pair data                         ... 
 Ordering of the shell pairs             ... done (   0.000 sec) 2443 of 2556 pairs
 Determination of significant pairs      ... done (   0.000 sec)
 Creation of shell pair data             ... done (   0.000 sec)
 Storage of shell pair data              ... done (   0.000 sec)
 Shell pair data done in (   0.001 sec)
 Computing two index integrals           ... done
 Cholesky decomposition of the V-matrix  ... done


Timings:
 Total evaluation time                   ...   1.559 sec (  0.026 min)
 One electron matrix time                ...   1.040 sec (  0.017 min) = 66.7%
 Schwartz matrix evaluation time         ...   0.185 sec (  0.003 min) = 11.9%
 Two index repulsion integral time       ...   0.247 sec (  0.004 min) = 15.8%
 Cholesky decomposition of V             ...   0.047 sec (  0.001 min) =  3.0%
 Three index repulsion integral time     ...   0.000 sec (  0.000 min) =  0.0%



           ************************************************************
           *        Program running with 24 parallel MPI-processes    *
           *              working on a common directory               *
           ************************************************************
-------------------------------------------------------------------------------
                                 ORCA SCF
-------------------------------------------------------------------------------

------------
SCF SETTINGS
------------
Hamiltonian:
 Density Functional     Method          .... DFT(GTOs)
 Exchange Functional    Exchange        .... B88
   X-Alpha parameter    XAlpha          ....  0.666667
   Becke's b parameter  XBeta           ....  0.004200
 Correlation Functional Correlation     .... LYP
 LDA part of GGA corr.  LDAOpt          .... VWN-3
 Gradients option       PostSCFGGA      .... off
 Hybrid DFT is turned on
   Fraction HF Exchange ScalHFX         ....  0.530000
   Scaling of DF-GGA-X  ScalDFX         ....  0.470000
   Scaling of DF-GGA-C  ScalDFC         ....  0.730000
   Scaling of DF-LDA-C  ScalLDAC        ....  0.730000
   Perturbative correction              ....  0.270000
   Density functional embedding theory  .... OFF
 RI-approximation to the Coulomb term is turned on
   Number of auxiliary basis functions  .... 1038
   RI-JK (J+K treated both via RI)      .... on


General Settings:
 Integral files         IntName         .... Ag04C2_H_F
 Hartree-Fock type      HFTyp           .... UHF
 Total Charge           Charge          ....    2
 Multiplicity           Mult            ....    2
 Number of Electrons    NEL             ....   75
 Basis Dimension        Dim             ....  241
 Nuclear Repulsion      ENuc            ....    418.3509819036 Eh

Convergence Acceleration:
 DIIS                   CNVDIIS         .... on
   Start iteration      DIISMaxIt       ....    12
   Startup error        DIISStart       ....  0.200000
   # of expansion vecs  DIISMaxEq       ....     5
   Bias factor          DIISBfac        ....   1.050
   Max. coefficient     DIISMaxC        ....  10.000
 Newton-Raphson         CNVNR           .... off
 SOSCF                  CNVSOSCF        .... off
 Level Shifting         CNVShift        .... on
   Level shift para.    LevelShift      ....    0.2500
   Turn off err/grad.   ShiftErr        ....    0.0010
 Zerner damping         CNVZerner       .... off
 Static damping         CNVDamp         .... on
   Fraction old density DampFac         ....    0.7000
   Max. Damping (<1)    DampMax         ....    0.9800
   Min. Damping (>=0)   DampMin         ....    0.0000
   Turn off err/grad.   DampErr         ....    0.1000
 Fernandez-Rico         CNVRico         .... off

SCF Procedure:
 Maximum # iterations   MaxIter         ....   125
 SCF integral mode      SCFMode         .... Direct
   Integral package                     .... LIBINT
 Reset frequency        DirectResetFreq ....    20
 Integral Threshold     Thresh          ....  1.000e-10 Eh
 Primitive CutOff       TCut            ....  1.000e-11 Eh

Convergence Tolerance:
 Convergence Check Mode ConvCheckMode   .... Total+1el-Energy
 Convergence forced     ConvForced      .... 0
 Energy Change          TolE            ....  1.000e-06 Eh
 1-El. energy change                    ....  1.000e-03 Eh
 DIIS Error             TolErr          ....  1.000e-06


Diagonalization of the overlap matrix:
Smallest eigenvalue                        ... 8.572e-04
Time for diagonalization                   ...    0.008 sec
Threshold for overlap eigenvalues          ... 1.000e-08
Number of eigenvalues below threshold      ... 0
Time for construction of square roots      ...    0.008 sec
Total time needed                          ...    0.016 sec

-------------------
DFT GRID GENERATION
-------------------

General Integration Accuracy     IntAcc      ...  4.670
Radial Grid Type                 RadialGrid  ... Gauss-Chebyshev
Angular Grid (max. acc.)         AngularGrid ... Lebedev-302
Angular grid pruning method      GridPruning ... 3 (G Style)
Weight generation scheme         WeightScheme... Becke
Basis function cutoff            BFCut       ...    1.0000e-10
Integration weight cutoff        WCut        ...    1.0000e-14
Grids for H and He will be reduced by one unit

# of grid points (after initial pruning)     ...  46026 (   0.0 sec)
# of grid points (after weights+screening)   ...  44988 (   0.0 sec)
nearest neighbour list constructed           ...    0.0 sec
Grid point re-assignment to atoms done       ...    0.0 sec
Grid point division into batches done        ...    0.3 sec
Reduced shell lists constructed in    0.4 sec

Total number of grid points                  ...    44988
Total number of batches                      ...      705
Average number of points per batch           ...       63
Average number of grid points per atom       ...     8998
Average number of shells per batch           ...    13.13 (18.49%)
Average number of basis functions per batch  ...    32.35 (13.43%)
Average number of large shells per batch     ...     8.87 (67.57%)
Average number of large basis fcns per batch ...    20.42 (63.11%)
Average number of aux-shells per batch       ...    13.13 ( 6.50%)
Average number of aux functions per batch    ...    32.35 ( 3.12%)
Maximum spatial batch extension              ...  27.25, 26.29, 26.69 au
Average spatial batch extension              ...   0.52,  0.44,  0.49 au

Time for grid setup =    0.545 sec

------------------------------
INITIAL GUESS: MODEL POTENTIAL
------------------------------
Loading Hartree-Fock densities                     ... done
  calling /sw/apps/orca/orca_4_2_0_linux_x86-64_openmpi314/orca Ag04C2_H_F_atom47.inp > Ag04C2_H_F_atom47.out in order to generate an atomic fitting density for atom 0 (Ag with ECP) on-the-fly... 
    atom 0 (Ag), assumed electronic state with S=2: 1s2 2s2 2p6 3s2 3p6 4s2 3d10 4p6 5s2 4d9           ... done
Calculating cut-offs                               ... done
Setting up the integral package                    ... done
Initializing the effective Hamiltonian             ... done
Starting the Coulomb interaction                   ... done (   0.0 sec)
Reading the grid                                   ... done
Mapping shells                                     ... done
Starting the XC term evaluation                    ... done (   0.0 sec)
  promolecular density results
     # of electrons  =    189.001384231
     EX              =   -576.664539438
     EC              =     -3.626452797
     EX+EC           =   -580.290992235
Transforming the Hamiltonian                       ... done (   0.0 sec)
Diagonalizing the Hamiltonian                      ... done (   0.0 sec)
Back transforming the eigenvectors                 ... done (   0.0 sec)
Now organizing SCF variables                       ... done
                      ------------------
                      INITIAL GUESS DONE (   2.2 sec)
                      ------------------
--------------
SCF ITERATIONS
--------------
ITER       Energy         Delta-E        Max-DP      RMS-DP      [F,P]     Damp
  0   -586.5898229381   0.000000000000 0.05781425  0.00071044  0.4937318 0.7000
  1   -586.3246820542   0.265140883866 0.04132762  0.00054512  0.3462786 0.7000
  2   -586.4540094918  -0.129327437578 0.02289558  0.00030304  0.2306621 0.7000
                               ***Turning on DIIS***
  3   -586.6407860489  -0.186776557097 0.01520621  0.00018037  0.1555852 0.7000
  4   -586.7525831343  -0.111797085402 0.00983271  0.00014597  0.1076988 0.7000
  5   -586.8105989563  -0.058015821978 0.02831260  0.00043223  0.0770194 0.0000
  6   -586.7773405875   0.033258368714 0.00350773  0.00007767  0.0184808 0.0000
  7   -586.7786961956  -0.001355608030 0.00316244  0.00003518  0.0029375 0.0000
  8   -586.7787662926  -0.000070096998 0.00084882  0.00001542  0.0017584 0.0000
  9   -586.7787835764  -0.000017283822 0.00096448  0.00001138  0.0003928 0.0000
 10   -586.7787872336  -0.000003657231 0.00015262  0.00000294  0.0001607 0.0000
                 **** Energy Check signals convergence ****

               *****************************************************
               *                     SUCCESS                       *
               *           SCF CONVERGED AFTER  11 CYCLES          *
               *****************************************************


----------------
TOTAL SCF ENERGY
----------------

Total Energy       :         -586.77878765 Eh          -15967.06256 eV

Components:
Nuclear Repulsion  :          418.35098190 Eh           11383.90896 eV
Electronic Energy  :        -1005.12976956 Eh          -27350.97153 eV
One Electron Energy:        -1853.22635891 Eh          -50428.85298 eV
Two Electron Energy:          848.09658935 Eh           23077.88145 eV

Virial components:
Potential Energy   :         -813.09439650 Eh          -22125.42336 eV
Kinetic Energy     :          226.31560885 Eh            6158.36080 eV
Virial Ratio       :            3.59274555


DFT components:
N(Alpha)           :       37.999978451079 electrons
N(Beta)            :       36.999975902235 electrons
N(Total)           :       74.999954353314 electrons
E(X)               :      -25.240371418249 Eh       
E(C)               :       -2.088528850085 Eh       
E(XC)              :      -27.328900268335 Eh       
DFET-embed. en.    :        0.000000000000 Eh       

---------------
SCF CONVERGENCE
---------------

  Last Energy change         ...   -4.1862e-07  Tolerance :   1.0000e-06
  Last MAX-Density change    ...    8.2540e-05  Tolerance :   1.0000e-05
  Last RMS-Density change    ...    1.5537e-06  Tolerance :   1.0000e-06
  Last DIIS Error            ...    6.4577e-05  Tolerance :   1.0000e-06

             **** THE GBW FILE WAS UPDATED (Ag04C2_H_F.gbw) ****
             **** DENSITY FILE WAS UPDATED (Ag04C2_H_F.scfp) ****
             **** ENERGY FILE WAS UPDATED (Ag04C2_H_F.en.tmp) ****
----------------------
UHF SPIN CONTAMINATION
----------------------

Warning: in a DFT calculation there is little theoretical justification to 
         calculate <S**2> as in Hartree-Fock theory. We will do it anyways
         but you should keep in mind that the values have only limited relevance

Expectation value of <S**2>     :     0.762901
Ideal value S*(S+1) for S=0.5   :     0.750000
Deviation                       :     0.012901

             **** THE GBW FILE WAS UPDATED (Ag04C2_H_F.gbw) ****
             **** DENSITY FILE WAS UPDATED (Ag04C2_H_F.scfp) ****
----------------
ORBITAL ENERGIES
----------------
                 SPIN UP ORBITALS
  NO   OCC          E(Eh)            E(eV) 
   0   1.0000      -4.368117      -118.8625 
   1   1.0000      -4.367792      -118.8537 
   2   1.0000      -4.367791      -118.8536 
   3   1.0000      -4.340546      -118.1123 
   4   1.0000      -2.907381       -79.1139 
   5   1.0000      -2.904507       -79.0357 
   6   1.0000      -2.904507       -79.0357 
   7   1.0000      -2.903013       -78.9950 
   8   1.0000      -2.902655       -78.9852 
   9   1.0000      -2.902653       -78.9852 
  10   1.0000      -2.901875       -78.9640 
  11   1.0000      -2.901874       -78.9640 
  12   1.0000      -2.901140       -78.9440 
  13   1.0000      -2.875599       -78.2490 
  14   1.0000      -2.874286       -78.2133 
  15   1.0000      -2.874285       -78.2133 
  16   1.0000      -0.885775       -24.1032 
  17   1.0000      -0.831605       -22.6291 
  18   1.0000      -0.814744       -22.1703 
  19   1.0000      -0.814740       -22.1702 
  20   1.0000      -0.803038       -21.8518 
  21   1.0000      -0.803036       -21.8517 
  22   1.0000      -0.801013       -21.7967 
  23   1.0000      -0.788125       -21.4460 
  24   1.0000      -0.788119       -21.4458 
  25   1.0000      -0.780084       -21.2272 
  26   1.0000      -0.780081       -21.2271 
  27   1.0000      -0.777554       -21.1583 
  28   1.0000      -0.773899       -21.0589 
  29   1.0000      -0.773898       -21.0588 
  30   1.0000      -0.762992       -20.7621 
  31   1.0000      -0.759874       -20.6772 
  32   1.0000      -0.759867       -20.6770 
  33   1.0000      -0.755025       -20.5453 
  34   1.0000      -0.749185       -20.3864 
  35   1.0000      -0.749179       -20.3862 
  36   1.0000      -0.719906       -19.5896 
  37   1.0000      -0.568636       -15.4734 
  38   0.0000      -0.396655       -10.7935 
  39   0.0000      -0.396654       -10.7935 
  40   0.0000      -0.335798        -9.1375 
  41   0.0000      -0.290868        -7.9149 
  42   0.0000      -0.274754        -7.4764 
  43   0.0000      -0.274753        -7.4764 
  44   0.0000      -0.269149        -7.3239 
  45   0.0000      -0.269149        -7.3239 
  46   0.0000      -0.179764        -4.8916 
  47   0.0000      -0.162612        -4.4249 
  48   0.0000      -0.162612        -4.4249 
  49   0.0000      -0.157128        -4.2757 
  50   0.0000      -0.157128        -4.2757 
  51   0.0000      -0.156134        -4.2486 
  52   0.0000      -0.152646        -4.1537 
  53   0.0000      -0.116074        -3.1585 
  54   0.0000      -0.089044        -2.4230 
  55   0.0000      -0.072083        -1.9615 
  56   0.0000      -0.072082        -1.9614 
  57   0.0000      -0.069653        -1.8954 
  58   0.0000      -0.061918        -1.6849 
  59   0.0000      -0.061917        -1.6849 
  60   0.0000      -0.048926        -1.3313 
  61   0.0000      -0.048924        -1.3313 
  62   0.0000      -0.042933        -1.1683 
  63   0.0000       0.006460         0.1758 
  64   0.0000       0.006461         0.1758 
  65   0.0000       0.035737         0.9725 
  66   0.0000       0.039954         1.0872 
  67   0.0000       0.039955         1.0872 
  68   0.0000       0.041875         1.1395 
  69   0.0000       0.049563         1.3487 
  70   0.0000       0.078374         2.1327 
  71   0.0000       0.078374         2.1327 
  72   0.0000       0.136787         3.7222 
  73   0.0000       0.136789         3.7222 
  74   0.0000       0.204330         5.5601 
  75   0.0000       0.204331         5.5601 
  76   0.0000       0.208807         5.6819 
  77   0.0000       0.241962         6.5841 
  78   0.0000       0.263078         7.1587 
  79   0.0000       0.300521         8.1776 
  80   0.0000       0.311922         8.4878 
  81   0.0000       0.311923         8.4879 
  82   0.0000       0.320365         8.7176 
  83   0.0000       0.320366         8.7176 
  84   0.0000       0.344837         9.3835 
  85   0.0000       0.344838         9.3835 
  86   0.0000       0.372993        10.1497 
  87   0.0000       0.399058        10.8589 
  88   0.0000       0.399066        10.8591 
  89   0.0000       0.429640        11.6911 
  90   0.0000       0.429642        11.6912 
  91   0.0000       0.439981        11.9725 
  92   0.0000       0.451673        12.2906 
  93   0.0000       0.712578        19.3902 
  94   0.0000       0.712595        19.3907 
  95   0.0000       0.799418        21.7533 
  96   0.0000       1.246251        33.9122 
  97   0.0000       1.246256        33.9124 
  98   0.0000       1.294991        35.2385 
  99   0.0000       1.301271        35.4094 
 100   0.0000       1.307129        35.5688 
 101   0.0000       1.307134        35.5689 
 102   0.0000       1.313304        35.7368 
 103   0.0000       1.313314        35.7371 
 104   0.0000       1.313454        35.7409 
 105   0.0000       1.324548        36.0428 
 106   0.0000       1.324553        36.0429 
 107   0.0000       1.331531        36.2328 
 108   0.0000       1.344559        36.5873 
 109   0.0000       1.344565        36.5875 
 110   0.0000       1.351075        36.7646 
 111   0.0000       1.352191        36.7950 
 112   0.0000       1.352192        36.7950 
 113   0.0000       1.352222        36.7958 
 114   0.0000       1.356343        36.9080 
 115   0.0000       1.361119        37.0379 
 116   0.0000       1.361122        37.0380 
 117   0.0000       1.369188        37.2575 
 118   0.0000       1.389235        37.8030 
 119   0.0000       1.389242        37.8032 
 120   0.0000       1.397988        38.0412 
 121   0.0000       1.397989        38.0412 
 122   0.0000       1.407731        38.3063 
 123   0.0000       1.445616        39.3372 
 124   0.0000       1.473369        40.0924 
 125   0.0000       1.473371        40.0925 
 126   0.0000       1.496216        40.7141 
 127   0.0000       1.514952        41.2240 
 128   0.0000       1.514958        41.2241 
 129   0.0000       1.520717        41.3808 
 130   0.0000       1.566839        42.6359 
 131   0.0000       1.566846        42.6360 
 132   0.0000       1.589884        43.2629 
 133   0.0000       1.648905        44.8690 
 134   0.0000       1.667104        45.3642 
 135   0.0000       1.667117        45.3645 
 136   0.0000       1.846146        50.2362 
 137   0.0000       1.846166        50.2367 
 138   0.0000       1.860805        50.6351 
 139   0.0000       1.870853        50.9085 
 140   0.0000       1.871163        50.9169 
 141   0.0000       1.871192        50.9177 
 142   0.0000       1.914806        52.1045 
 143   0.0000       1.919143        52.2225 
 144   0.0000       1.919144        52.2226 
 145   0.0000       1.943081        52.8739 
 146   0.0000       1.943102        52.8745 
 147   0.0000       1.947288        52.9884 
 148   0.0000       1.950704        53.0814 
 149   0.0000       1.950727        53.0820 
 150   0.0000       1.967692        53.5436 
 151   0.0000       1.967710        53.5441 
 152   0.0000       1.971909        53.6584 
 153   0.0000       1.994044        54.2607 
 154   0.0000       2.042417        55.5770 
 155   0.0000       2.042417        55.5770 
 156   0.0000       2.311341        62.8948 
 157   0.0000       2.536214        69.0139 
 158   0.0000       2.586589        70.3847 
 159   0.0000       2.586605        70.3851 
 160   0.0000       2.887463        78.5719 
 161   0.0000       3.033303        82.5404 
 162   0.0000       3.033346        82.5416 
 163   0.0000       3.071441        83.5782 
 164   0.0000       3.347909        91.1012 
 165   0.0000       3.347965        91.1027 
 166   0.0000       3.908988       106.3690 
 167   0.0000       3.909039       106.3704 
 168   0.0000       3.956703       107.6674 
 169   0.0000       4.666831       126.9909 
 170   0.0000       4.666855       126.9916 
 171   0.0000       4.683018       127.4314 
 172   0.0000       4.688801       127.5888 
 173   0.0000       4.688802       127.5888 
 174   0.0000       4.692897       127.7002 
 175   0.0000       4.707768       128.1049 
 176   0.0000       4.708632       128.1284 
 177   0.0000       4.708650       128.1289 
 178   0.0000       4.710275       128.1731 
 179   0.0000       4.726708       128.6203 
 180   0.0000       4.726710       128.6203 
 181   0.0000       4.726726       128.6207 
 182   0.0000       4.731412       128.7483 
 183   0.0000       4.738250       128.9343 
 184   0.0000       4.738264       128.9347 
 185   0.0000       4.747051       129.1738 
 186   0.0000       4.759295       129.5070 
 187   0.0000       4.759301       129.5072 
 188   0.0000       4.836447       131.6064 
 189   0.0000       4.836483       131.6074 
 190   0.0000       4.843881       131.8087 
 191   0.0000       4.876111       132.6857 
 192   0.0000       4.889926       133.0616 
 193   0.0000       4.889939       133.0620 
 194   0.0000       5.023071       136.6847 
 195   0.0000       5.023086       136.6851 
 196   0.0000       5.059924       137.6875 
 197   0.0000       5.393459       146.7635 
 198   0.0000       5.394890       146.8024 
 199   0.0000       5.394947       146.8040 
 200   0.0000       5.395002       146.8055 
 201   0.0000       5.395556       146.8206 
 202   0.0000       5.395618       146.8222 
 203   0.0000       5.395656       146.8233 
 204   0.0000       5.397002       146.8599 
 205   0.0000       5.397264       146.8670 
 206   0.0000       5.397395       146.8706 
 207   0.0000       5.397901       146.8844 
 208   0.0000       5.397953       146.8858 
 209   0.0000       5.398131       146.8906 
 210   0.0000       5.398793       146.9086 
 211   0.0000       5.398998       146.9142 
 212   0.0000       5.399146       146.9182 
 213   0.0000       5.399924       146.9394 
 214   0.0000       5.399963       146.9405 
 215   0.0000       5.404206       147.0559 
 216   0.0000       5.404207       147.0559 
 217   0.0000       5.406597       147.1210 
 218   0.0000       5.409105       147.1892 
 219   0.0000       5.409148       147.1904 
 220   0.0000       5.417682       147.4226 
 221   0.0000       5.422620       147.5570 
 222   0.0000       5.423106       147.5702 
 223   0.0000       5.423195       147.5726 
 224   0.0000       5.423379       147.5777 
 225   0.0000       5.423667       147.5855 
 226   0.0000       5.423728       147.5871 
 227   0.0000       5.424302       147.6028 
 228   0.0000       5.428792       147.7249 
 229   0.0000       5.429221       147.7366 
 230   0.0000       5.533580       150.5764 
 231   0.0000       5.533641       150.5780 
 232   0.0000       5.572951       151.6477 
 233   0.0000      33.244444       904.6273 
 234   0.0000      33.494092       911.4206 
 235   0.0000      33.644889       915.5240 
 236   0.0000      33.644889       915.5240 
 237   0.0000     109.123500      2969.4014 
 238   0.0000     109.206667      2971.6645 
 239   0.0000     109.242014      2972.6263 
 240   0.0000     109.242016      2972.6264 

                 SPIN DOWN ORBITALS
  NO   OCC          E(Eh)            E(eV) 
   0   1.0000      -4.365745      -118.7980 
   1   1.0000      -4.365423      -118.7892 
   2   1.0000      -4.365422      -118.7892 
   3   1.0000      -4.339803      -118.0920 
   4   1.0000      -2.903950       -79.0205 
   5   1.0000      -2.902548       -78.9824 
   6   1.0000      -2.902548       -78.9823 
   7   1.0000      -2.900518       -78.9271 
   8   1.0000      -2.899838       -78.9086 
   9   1.0000      -2.899836       -78.9085 
  10   1.0000      -2.899039       -78.8869 
  11   1.0000      -2.898709       -78.8779 
  12   1.0000      -2.898706       -78.8778 
  13   1.0000      -2.876326       -78.2688 
  14   1.0000      -2.875105       -78.2356 
  15   1.0000      -2.875104       -78.2356 
  16   1.0000      -0.863324       -23.4922 
  17   1.0000      -0.826425       -22.4882 
  18   1.0000      -0.814258       -22.1571 
  19   1.0000      -0.814254       -22.1570 
  20   1.0000      -0.799144       -21.7458 
  21   1.0000      -0.799140       -21.7457 
  22   1.0000      -0.798511       -21.7286 
  23   1.0000      -0.786145       -21.3921 
  24   1.0000      -0.786139       -21.3919 
  25   1.0000      -0.776679       -21.1345 
  26   1.0000      -0.774717       -21.0811 
  27   1.0000      -0.774708       -21.0809 
  28   1.0000      -0.769946       -20.9513 
  29   1.0000      -0.769939       -20.9511 
  30   1.0000      -0.759375       -20.6636 
  31   1.0000      -0.757658       -20.6169 
  32   1.0000      -0.757650       -20.6167 
  33   1.0000      -0.754054       -20.5189 
  34   1.0000      -0.746651       -20.3174 
  35   1.0000      -0.746644       -20.3172 
  36   1.0000      -0.693188       -18.8626 
  37   0.0000      -0.428938       -11.6720 
  38   0.0000      -0.389487       -10.5985 
  39   0.0000      -0.389486       -10.5985 
  40   0.0000      -0.317350        -8.6355 
  41   0.0000      -0.282752        -7.6941 
  42   0.0000      -0.269960        -7.3460 
  43   0.0000      -0.269959        -7.3460 
  44   0.0000      -0.260514        -7.0890 
  45   0.0000      -0.260513        -7.0889 
  46   0.0000      -0.170706        -4.6452 
  47   0.0000      -0.159920        -4.3516 
  48   0.0000      -0.159919        -4.3516 
  49   0.0000      -0.156633        -4.2622 
  50   0.0000      -0.156591        -4.2611 
  51   0.0000      -0.156591        -4.2611 
  52   0.0000      -0.142658        -3.8819 
  53   0.0000      -0.114386        -3.1126 
  54   0.0000      -0.087245        -2.3741 
  55   0.0000      -0.068441        -1.8624 
  56   0.0000      -0.068439        -1.8623 
  57   0.0000      -0.066690        -1.8147 
  58   0.0000      -0.060787        -1.6541 
  59   0.0000      -0.060787        -1.6541 
  60   0.0000      -0.048051        -1.3075 
  61   0.0000      -0.048049        -1.3075 
  62   0.0000      -0.038665        -1.0521 
  63   0.0000       0.011677         0.3177 
  64   0.0000       0.011677         0.3178 
  65   0.0000       0.035495         0.9659 
  66   0.0000       0.044853         1.2205 
  67   0.0000       0.044853         1.2205 
  68   0.0000       0.052350         1.4245 
  69   0.0000       0.061705         1.6791 
  70   0.0000       0.080009         2.1772 
  71   0.0000       0.080009         2.1772 
  72   0.0000       0.142055         3.8655 
  73   0.0000       0.142060         3.8657 
  74   0.0000       0.207324         5.6416 
  75   0.0000       0.207327         5.6416 
  76   0.0000       0.211243         5.7482 
  77   0.0000       0.244026         6.6403 
  78   0.0000       0.269308         7.3282 
  79   0.0000       0.308411         8.3923 
  80   0.0000       0.316432         8.6106 
  81   0.0000       0.316434         8.6106 
  82   0.0000       0.322077         8.7641 
  83   0.0000       0.322077         8.7642 
  84   0.0000       0.346737         9.4352 
  85   0.0000       0.346738         9.4352 
  86   0.0000       0.378941        10.3115 
  87   0.0000       0.400891        10.9088 
  88   0.0000       0.400895        10.9089 
  89   0.0000       0.434645        11.8273 
  90   0.0000       0.434647        11.8273 
  91   0.0000       0.440422        11.9845 
  92   0.0000       0.460055        12.5187 
  93   0.0000       0.725617        19.7450 
  94   0.0000       0.725634        19.7455 
  95   0.0000       0.813361        22.1327 
  96   0.0000       1.247426        33.9442 
  97   0.0000       1.247431        33.9443 
  98   0.0000       1.296840        35.2888 
  99   0.0000       1.303631        35.4736 
 100   0.0000       1.308379        35.6028 
 101   0.0000       1.308383        35.6029 
 102   0.0000       1.315383        35.7934 
 103   0.0000       1.316037        35.8112 
 104   0.0000       1.316047        35.8115 
 105   0.0000       1.325774        36.0761 
 106   0.0000       1.325778        36.0763 
 107   0.0000       1.332347        36.2550 
 108   0.0000       1.346521        36.6407 
 109   0.0000       1.346529        36.6409 
 110   0.0000       1.354463        36.8568 
 111   0.0000       1.354463        36.8568 
 112   0.0000       1.354580        36.8600 
 113   0.0000       1.356685        36.9173 
 114   0.0000       1.360432        37.0192 
 115   0.0000       1.362832        37.0845 
 116   0.0000       1.362835        37.0846 
 117   0.0000       1.370488        37.2929 
 118   0.0000       1.391524        37.8653 
 119   0.0000       1.391531        37.8655 
 120   0.0000       1.399487        38.0820 
 121   0.0000       1.399488        38.0820 
 122   0.0000       1.408350        38.3232 
 123   0.0000       1.450604        39.4729 
 124   0.0000       1.479964        40.2719 
 125   0.0000       1.479965        40.2719 
 126   0.0000       1.498426        40.7742 
 127   0.0000       1.516271        41.2598 
 128   0.0000       1.516276        41.2600 
 129   0.0000       1.527098        41.5544 
 130   0.0000       1.571446        42.7612 
 131   0.0000       1.571452        42.7614 
 132   0.0000       1.595461        43.4147 
 133   0.0000       1.648844        44.8673 
 134   0.0000       1.668625        45.4056 
 135   0.0000       1.668637        45.4059 
 136   0.0000       1.848637        50.3040 
 137   0.0000       1.848656        50.3045 
 138   0.0000       1.866176        50.7812 
 139   0.0000       1.872065        50.9415 
 140   0.0000       1.875414        51.0326 
 141   0.0000       1.875450        51.0336 
 142   0.0000       1.920669        52.2641 
 143   0.0000       1.920669        52.2641 
 144   0.0000       1.921951        52.2990 
 145   0.0000       1.945068        52.9280 
 146   0.0000       1.945091        52.9286 
 147   0.0000       1.950968        53.0885 
 148   0.0000       1.952804        53.1385 
 149   0.0000       1.952824        53.1391 
 150   0.0000       1.969425        53.5908 
 151   0.0000       1.969443        53.5913 
 152   0.0000       1.971958        53.6597 
 153   0.0000       2.000578        54.4385 
 154   0.0000       2.046932        55.6999 
 155   0.0000       2.046934        55.6999 
 156   0.0000       2.317261        63.0559 
 157   0.0000       2.539063        69.0914 
 158   0.0000       2.588548        70.4380 
 159   0.0000       2.588559        70.4383 
 160   0.0000       2.918019        79.4033 
 161   0.0000       3.055642        83.1482 
 162   0.0000       3.055690        83.1495 
 163   0.0000       3.093019        84.1653 
 164   0.0000       3.369679        91.6936 
 165   0.0000       3.369756        91.6957 
 166   0.0000       3.937601       107.1476 
 167   0.0000       3.937646       107.1488 
 168   0.0000       3.985279       108.4449 
 169   0.0000       4.668283       127.0304 
 170   0.0000       4.668307       127.0311 
 171   0.0000       4.683657       127.4488 
 172   0.0000       4.690115       127.6245 
 173   0.0000       4.690116       127.6245 
 174   0.0000       4.693932       127.7284 
 175   0.0000       4.708969       128.1376 
 176   0.0000       4.709833       128.1611 
 177   0.0000       4.709852       128.1616 
 178   0.0000       4.711789       128.2143 
 179   0.0000       4.727510       128.6421 
 180   0.0000       4.727528       128.6426 
 181   0.0000       4.728397       128.6662 
 182   0.0000       4.732385       128.7747 
 183   0.0000       4.739101       128.9575 
 184   0.0000       4.739116       128.9579 
 185   0.0000       4.748997       129.2268 
 186   0.0000       4.761952       129.5793 
 187   0.0000       4.761959       129.5795 
 188   0.0000       4.837627       131.6385 
 189   0.0000       4.837662       131.6395 
 190   0.0000       4.846988       131.8932 
 191   0.0000       4.876348       132.6922 
 192   0.0000       4.891652       133.1086 
 193   0.0000       4.891665       133.1090 
 194   0.0000       5.028319       136.8275 
 195   0.0000       5.028338       136.8280 
 196   0.0000       5.064857       137.8218 
 197   0.0000       5.394531       146.7926 
 198   0.0000       5.395418       146.8168 
 199   0.0000       5.395516       146.8195 
 200   0.0000       5.395941       146.8310 
 201   0.0000       5.395942       146.8311 
 202   0.0000       5.396370       146.8427 
 203   0.0000       5.396596       146.8489 
 204   0.0000       5.397809       146.8819 
 205   0.0000       5.397865       146.8834 
 206   0.0000       5.398148       146.8911 
 207   0.0000       5.398269       146.8944 
 208   0.0000       5.398341       146.8963 
 209   0.0000       5.398821       146.9094 
 210   0.0000       5.398861       146.9105 
 211   0.0000       5.399339       146.9235 
 212   0.0000       5.399422       146.9257 
 213   0.0000       5.401469       146.9815 
 214   0.0000       5.401525       146.9830 
 215   0.0000       5.404690       147.0691 
 216   0.0000       5.404698       147.0693 
 217   0.0000       5.407796       147.1536 
 218   0.0000       5.411094       147.2433 
 219   0.0000       5.411144       147.2447 
 220   0.0000       5.419528       147.4728 
 221   0.0000       5.422768       147.5610 
 222   0.0000       5.423117       147.5705 
 223   0.0000       5.423360       147.5771 
 224   0.0000       5.423489       147.5807 
 225   0.0000       5.424012       147.5949 
 226   0.0000       5.424053       147.5960 
 227   0.0000       5.424377       147.6048 
 228   0.0000       5.428818       147.7256 
 229   0.0000       5.429246       147.7373 
 230   0.0000       5.536957       150.6683 
 231   0.0000       5.537014       150.6698 
 232   0.0000       5.576174       151.7354 
 233   0.0000      33.245003       904.6425 
 234   0.0000      33.494770       911.4390 
 235   0.0000      33.645226       915.5332 
 236   0.0000      33.645227       915.5332 
 237   0.0000     109.118188      2969.2569 
 238   0.0000     109.202681      2971.5560 
 239   0.0000     109.235891      2972.4597 
 240   0.0000     109.235892      2972.4597 

                    ********************************
                    * MULLIKEN POPULATION ANALYSIS *
                    ********************************

--------------------------------------------
MULLIKEN ATOMIC CHARGES AND SPIN POPULATIONS
--------------------------------------------
   0 Ag:    0.516562    0.062943
   1 Ag:    0.516377    0.062883
   2 Ag:    0.516363    0.062882
   3 Ag:    0.393371    0.500997
   4 H :    0.057327    0.310295
Sum of atomic charges         :    2.0000000
Sum of atomic spin populations:    1.0000000

-----------------------------------------------------
MULLIKEN REDUCED ORBITAL CHARGES AND SPIN POPULATIONS
-----------------------------------------------------
CHARGE
  0 Ags       :     2.377433  s :     2.377433
      pz      :     2.085384  p :     6.198098
      px      :     2.008910
      py      :     2.103804
      dz2     :     1.985558  d :     9.906247
      dxz     :     1.997372
      dyz     :     1.965510
      dx2y2   :     1.988310
      dxy     :     1.969497
      f0      :     0.000206  f :     0.001643
      f+1     :     0.000076
      f-1     :     0.000241
      f+2     :     0.000416
      f-2     :     0.000119
      f+3     :     0.000321
      f-3     :     0.000264
      g0      :     0.000002  g :     0.000017
      g+1     :     0.000000
      g-1     :     0.000002
      g+2     :     0.000002
      g-2     :     0.000002
      g+3     :     0.000001
      g-3     :     0.000003
      g+4     :     0.000003
      g-4     :     0.000003
  1 Ags       :     2.377558  s :     2.377558
      pz      :     2.085386  p :     6.198171
      px      :     2.080128
      py      :     2.032657
      dz2     :     1.985560  d :     9.906234
      dxz     :     1.973466
      dyz     :     1.989402
      dx2y2   :     1.974201
      dxy     :     1.983605
      f0      :     0.000206  f :     0.001643
      f+1     :     0.000200
      f-1     :     0.000118
      f+2     :     0.000193
      f-2     :     0.000342
      f+3     :     0.000321
      f-3     :     0.000264
      g0      :     0.000002  g :     0.000017
      g+1     :     0.000002
      g-1     :     0.000001
      g+2     :     0.000002
      g-2     :     0.000002
      g+3     :     0.000001
      g-3     :     0.000003
      g+4     :     0.000003
      g-4     :     0.000003
  2 Ags       :     2.377567  s :     2.377567
      pz      :     2.085387  p :     6.198175
      px      :     2.080131
      py      :     2.032658
      dz2     :     1.985560  d :     9.906234
      dxz     :     1.973466
      dyz     :     1.989402
      dx2y2   :     1.974201
      dxy     :     1.983605
      f0      :     0.000206  f :     0.001643
      f+1     :     0.000200
      f-1     :     0.000118
      f+2     :     0.000193
      f-2     :     0.000342
      f+3     :     0.000321
      f-3     :     0.000264
      g0      :     0.000002  g :     0.000017
      g+1     :     0.000002
      g-1     :     0.000001
      g+2     :     0.000002
      g-2     :     0.000002
      g+3     :     0.000001
      g-3     :     0.000003
      g+4     :     0.000003
      g-4     :     0.000003
  3 Ags       :     2.579121  s :     2.579121
      pz      :     2.074501  p :     6.087249
      px      :     2.006374
      py      :     2.006374
      dz2     :     1.992945  d :     9.939698
      dxz     :     1.977246
      dyz     :     1.977247
      dx2y2   :     1.996130
      dxy     :     1.996130
      f0      :     0.000102  f :     0.000556
      f+1     :     0.000136
      f-1     :     0.000136
      f+2     :     0.000078
      f-2     :     0.000078
      f+3     :     0.000011
      f-3     :     0.000015
      g0      :     0.000001  g :     0.000005
      g+1     :     0.000001
      g-1     :     0.000001
      g+2     :     0.000001
      g-2     :     0.000001
      g+3     :     0.000000
      g-3     :     0.000000
      g+4     :     0.000000
      g-4     :     0.000000
  4 H s       :     0.961647  s :     0.961647
      pz      :    -0.025189  p :    -0.020982
      px      :     0.002107
      py      :     0.002100
      dz2     :     0.000427  d :     0.002007
      dxz     :     0.000429
      dyz     :     0.000428
      dx2y2   :     0.000361
      dxy     :     0.000361

SPIN
  0 Ags       :    -0.014781  s :    -0.014781
      pz      :     0.067357  p :     0.057314
      px      :     0.000087
      py      :    -0.010130
      dz2     :    -0.001201  d :     0.020204
      dxz     :    -0.000436
      dyz     :     0.020048
      dx2y2   :     0.001727
      dxy     :     0.000066
      f0      :     0.000024  f :     0.000205
      f+1     :     0.000001
      f-1     :     0.000010
      f+2     :     0.000154
      f-2     :    -0.000002
      f+3     :    -0.000003
      f-3     :     0.000020
      g0      :     0.000000  g :     0.000002
      g+1     :     0.000000
      g-1     :    -0.000000
      g+2     :     0.000000
      g-2     :    -0.000000
      g+3     :     0.000000
      g-3     :     0.000001
      g+4     :     0.000000
      g-4     :     0.000000
  1 Ags       :    -0.014828  s :    -0.014828
      pz      :     0.067358  p :     0.057297
      px      :    -0.007589
      py      :    -0.002472
      dz2     :    -0.001201  d :     0.020208
      dxz     :     0.014931
      dyz     :     0.004687
      dx2y2   :     0.000481
      dxy     :     0.001311
      f0      :     0.000024  f :     0.000205
      f+1     :     0.000008
      f-1     :     0.000003
      f+2     :     0.000037
      f-2     :     0.000115
      f+3     :    -0.000003
      f-3     :     0.000020
      g0      :     0.000000  g :     0.000002
      g+1     :    -0.000000
      g-1     :    -0.000000
      g+2     :     0.000000
      g-2     :     0.000000
      g+3     :     0.000000
      g-3     :     0.000001
      g+4     :     0.000000
      g-4     :     0.000000
  2 Ags       :    -0.014829  s :    -0.014829
      pz      :     0.067358  p :     0.057296
      px      :    -0.007589
      py      :    -0.002473
      dz2     :    -0.001201  d :     0.020208
      dxz     :     0.014931
      dyz     :     0.004687
      dx2y2   :     0.000481
      dxy     :     0.001311
      f0      :     0.000024  f :     0.000205
      f+1     :     0.000008
      f-1     :     0.000003
      f+2     :     0.000037
      f-2     :     0.000115
      f+3     :    -0.000003
      f-3     :     0.000020
      g0      :     0.000000  g :     0.000002
      g+1     :    -0.000000
      g-1     :    -0.000000
      g+2     :     0.000000
      g-2     :     0.000000
      g+3     :     0.000000
      g-3     :     0.000001
      g+4     :     0.000000
      g-4     :     0.000000
  3 Ags       :     0.469602  s :     0.469602
      pz      :     0.035521  p :     0.038719
      px      :     0.001599
      py      :     0.001599
      dz2     :    -0.000097  d :    -0.007358
      dxz     :    -0.003189
      dyz     :    -0.003190
      dx2y2   :    -0.000441
      dxy     :    -0.000441
      f0      :     0.000012  f :     0.000034
      f+1     :     0.000005
      f-1     :     0.000005
      f+2     :     0.000004
      f-2     :     0.000004
      f+3     :     0.000001
      f-3     :     0.000003
      g0      :     0.000000  g :     0.000000
      g+1     :    -0.000000
      g-1     :    -0.000000
      g+2     :    -0.000000
      g-2     :    -0.000000
      g+3     :     0.000000
      g-3     :     0.000000
      g+4     :     0.000000
      g-4     :     0.000000
  4 H s       :     0.321871  s :     0.321871
      pz      :    -0.012958  p :    -0.011561
      px      :     0.000699
      py      :     0.000698
      dz2     :     0.000013  d :    -0.000015
      dxz     :    -0.000018
      dyz     :    -0.000018
      dx2y2   :     0.000004
      dxy     :     0.000004


                     *******************************
                     * LOEWDIN POPULATION ANALYSIS *
                     *******************************

-------------------------------------------
LOEWDIN ATOMIC CHARGES AND SPIN POPULATIONS
-------------------------------------------
   0 Ag:    0.542975    0.168115
   1 Ag:    0.542968    0.168115
   2 Ag:    0.542968    0.168115
   3 Ag:    0.508292    0.304500
   4 H :   -0.137203    0.191156

----------------------------------------------------
LOEWDIN REDUCED ORBITAL CHARGES AND SPIN POPULATIONS
----------------------------------------------------
CHARGE
  0 Ags       :     2.221800  s :     2.221800
      pz      :     2.143685  p :     6.310597
      px      :     2.014679
      py      :     2.152233
      dz2     :     1.984518  d :     9.921776
      dxz     :     1.993716
      dyz     :     1.980968
      dx2y2   :     1.991106
      dxy     :     1.971468
      f0      :     0.000327  f :     0.002820
      f+1     :     0.000115
      f-1     :     0.000377
      f+2     :     0.000964
      f-2     :     0.000137
      f+3     :     0.000486
      f-3     :     0.000414
      g0      :     0.000003  g :     0.000030
      g+1     :     0.000001
      g-1     :     0.000003
      g+2     :     0.000004
      g-2     :     0.000002
      g+3     :     0.000001
      g-3     :     0.000008
      g+4     :     0.000004
      g-4     :     0.000004
  1 Ags       :     2.221811  s :     2.221811
      pz      :     2.143685  p :     6.310603
      px      :     2.117848
      py      :     2.049069
      dz2     :     1.984519  d :     9.921767
      dxz     :     1.984149
      dyz     :     1.990526
      dx2y2   :     1.976380
      dxy     :     1.986194
      f0      :     0.000327  f :     0.002821
      f+1     :     0.000311
      f-1     :     0.000180
      f+2     :     0.000344
      f-2     :     0.000758
      f+3     :     0.000486
      f-3     :     0.000414
      g0      :     0.000003  g :     0.000030
      g+1     :     0.000003
      g-1     :     0.000001
      g+2     :     0.000003
      g-2     :     0.000003
      g+3     :     0.000001
      g-3     :     0.000008
      g+4     :     0.000004
      g-4     :     0.000004
  2 Ags       :     2.221811  s :     2.221811
      pz      :     2.143685  p :     6.310603
      px      :     2.117849
      py      :     2.049069
      dz2     :     1.984519  d :     9.921767
      dxz     :     1.984149
      dyz     :     1.990526
      dx2y2   :     1.976380
      dxy     :     1.986194
      f0      :     0.000327  f :     0.002821
      f+1     :     0.000311
      f-1     :     0.000180
      f+2     :     0.000344
      f-2     :     0.000758
      f+3     :     0.000486
      f-3     :     0.000414
      g0      :     0.000003  g :     0.000030
      g+1     :     0.000003
      g-1     :     0.000001
      g+2     :     0.000003
      g-2     :     0.000003
      g+3     :     0.000001
      g-3     :     0.000008
      g+4     :     0.000004
      g-4     :     0.000004
  3 Ags       :     2.399406  s :     2.399406
      pz      :     2.115917  p :     6.139942
      px      :     2.012013
      py      :     2.012013
      dz2     :     1.998174  d :     9.951495
      dxz     :     1.980333
      dyz     :     1.980334
      dx2y2   :     1.996326
      dxy     :     1.996327
      f0      :     0.000143  f :     0.000857
      f+1     :     0.000230
      f-1     :     0.000230
      f+2     :     0.000110
      f-2     :     0.000110
      f+3     :     0.000016
      f-3     :     0.000019
      g0      :     0.000001  g :     0.000008
      g+1     :     0.000002
      g-1     :     0.000002
      g+2     :     0.000001
      g-2     :     0.000001
      g+3     :     0.000000
      g-3     :     0.000000
      g+4     :     0.000000
      g-4     :     0.000000
  4 H s       :     0.860381  s :     0.860381
      pz      :     0.116544  p :     0.266452
      px      :     0.074957
      py      :     0.074951
      dz2     :     0.001446  d :     0.010370
      dxz     :     0.002581
      dyz     :     0.002581
      dx2y2   :     0.001881
      dxy     :     0.001881

SPIN
  0 Ags       :     0.002171  s :     0.002171
      pz      :     0.119740  p :     0.122665
      px      :     0.000200
      py      :     0.002724
      dz2     :    -0.000196  d :     0.042625
      dxz     :    -0.000329
      dyz     :     0.039691
      dx2y2   :     0.003295
      dxy     :     0.000164
      f0      :     0.000064  f :     0.000647
      f+1     :     0.000001
      f-1     :     0.000031
      f+2     :     0.000466
      f-2     :    -0.000000
      f+3     :    -0.000001
      f-3     :     0.000086
      g0      :     0.000001  g :     0.000007
      g+1     :    -0.000000
      g-1     :     0.000000
      g+2     :     0.000001
      g-2     :    -0.000000
      g+3     :     0.000000
      g-3     :     0.000003
      g+4     :     0.000001
      g-4     :     0.000000
  1 Ags       :     0.002163  s :     0.002163
      pz      :     0.119741  p :     0.122664
      px      :     0.002092
      py      :     0.000831
      dz2     :    -0.000195  d :     0.042634
      dxz     :     0.029690
      dyz     :     0.009678
      dx2y2   :     0.000947
      dxy     :     0.002514
      f0      :     0.000064  f :     0.000647
      f+1     :     0.000024
      f-1     :     0.000009
      f+2     :     0.000116
      f-2     :     0.000349
      f+3     :    -0.000001
      f-3     :     0.000086
      g0      :     0.000001  g :     0.000007
      g+1     :     0.000000
      g-1     :     0.000000
      g+2     :     0.000000
      g-2     :     0.000001
      g+3     :     0.000000
      g-3     :     0.000003
      g+4     :     0.000000
      g-4     :     0.000001
  2 Ags       :     0.002163  s :     0.002163
      pz      :     0.119741  p :     0.122664
      px      :     0.002092
      py      :     0.000831
      dz2     :    -0.000195  d :     0.042634
      dxz     :     0.029690
      dyz     :     0.009678
      dx2y2   :     0.000947
      dxy     :     0.002514
      f0      :     0.000064  f :     0.000647
      f+1     :     0.000024
      f-1     :     0.000009
      f+2     :     0.000116
      f-2     :     0.000349
      f+3     :    -0.000001
      f-3     :     0.000086
      g0      :     0.000001  g :     0.000007
      g+1     :     0.000000
      g-1     :     0.000000
      g+2     :     0.000000
      g-2     :     0.000001
      g+3     :     0.000000
      g-3     :     0.000003
      g+4     :     0.000000
      g-4     :     0.000001
  3 Ags       :     0.307849  s :     0.307849
      pz      :     0.004379  p :     0.006662
      px      :     0.001141
      py      :     0.001142
      dz2     :    -0.002041  d :    -0.010026
      dxz     :    -0.003619
      dyz     :    -0.003620
      dx2y2   :    -0.000373
      dxy     :    -0.000373
      f0      :     0.000016  f :     0.000016
      f+1     :    -0.000003
      f-1     :    -0.000003
      f+2     :     0.000002
      f-2     :     0.000002
      f+3     :     0.000001
      f-3     :     0.000002
      g0      :     0.000000  g :    -0.000000
      g+1     :    -0.000000
      g-1     :    -0.000000
      g+2     :    -0.000000
      g-2     :    -0.000000
      g+3     :     0.000000
      g-3     :     0.000000
      g+4     :     0.000000
      g-4     :     0.000000
  4 H s       :     0.174699  s :     0.174699
      pz      :     0.017232  p :     0.016512
      px      :    -0.000361
      py      :    -0.000360
      dz2     :    -0.000000  d :    -0.000055
      dxz     :    -0.000019
      dyz     :    -0.000019
      dx2y2   :    -0.000008
      dxy     :    -0.000008


                      *****************************
                      * MAYER POPULATION ANALYSIS *
                      *****************************

  NA   - Mulliken gross atomic population
  ZA   - Total nuclear charge
  QA   - Mulliken gross atomic charge
  VA   - Mayer's total valence
  BVA  - Mayer's bonded valence
  FA   - Mayer's free valence

  ATOM       NA         ZA         QA         VA         BVA        FA
  0 Ag    18.4834    19.0000     0.5166     1.1057     1.0845     0.0212
  1 Ag    18.4836    19.0000     0.5164     1.1059     1.0847     0.0212
  2 Ag    18.4836    19.0000     0.5164     1.1059     1.0847     0.0212
  3 Ag    18.6066    19.0000     0.3934     1.0303     0.7772     0.2531
  4 H      0.9427     1.0000     0.0573     0.8783     0.7816     0.0967

  Mayer bond orders larger than 0.100000
B(  0-Ag,  1-Ag) :   0.2901 B(  0-Ag,  2-Ag) :   0.2901 B(  0-Ag,  3-Ag) :   0.2515 
B(  0-Ag,  4-H ) :   0.2529 B(  1-Ag,  2-Ag) :   0.2901 B(  1-Ag,  3-Ag) :   0.2515 
B(  1-Ag,  4-H ) :   0.2530 B(  2-Ag,  3-Ag) :   0.2515 B(  2-Ag,  4-H ) :   0.2530 


-------
TIMINGS
-------

Total SCF time: 0 days 0 hours 0 min 11 sec 

Total time                  ....      11.457 sec
Sum of individual times     ....      11.248 sec  ( 98.2%)

Fock matrix formation       ....       8.714 sec  ( 76.1%)
  XC integration            ....       0.756 sec  (  8.7% of F)
    Basis function eval.    ....       0.080 sec  ( 10.6% of XC)
    Density eval.           ....       0.107 sec  ( 14.1% of XC)
    XC-Functional eval.     ....       0.021 sec  (  2.8% of XC)
    XC-Potential eval.      ....       0.200 sec  ( 26.5% of XC)
Diagonalization             ....       0.218 sec  (  1.9%)
Density matrix formation    ....       0.024 sec  (  0.2%)
Population analysis         ....       0.018 sec  (  0.2%)
Initial guess               ....       1.659 sec  ( 14.5%)
Orbital Transformation      ....       0.000 sec  (  0.0%)
Orbital Orthonormalization  ....       0.000 sec  (  0.0%)
DIIS solution               ....       0.071 sec  (  0.6%)
Grid generation             ....       0.545 sec  (  4.8%)


           ************************************************************
           *        Program running with 24 parallel MPI-processes    *
           *              working on a common directory               *
           ************************************************************

------------------------------------------------------------------------------
                                ORCA  MP2 
------------------------------------------------------------------------------

Freezing NCore=0 chemical core electrons

-------------
RI-MP2 ENERGY
-------------
Dimension of the basis                    ...  241
Memory devoted to MP2                     ... 5000 MB   
Data format for buffers                   ... DOUBLE
Compression type for matrix containers    ... UNCOMPRESSED
Overall scaling of the MP2 energy         ...   2.700e-01
Calculating two index integrals           ... done (    0.023 sec)
Cholesky decomposition of V**-1           ... done (    0.033 sec)

-----------------
RI-TRANSFORMATION (AUX index driven)
-----------------

Dimension of the orbital-basis         ... 241
Dimension of the aux-basis             ... 743
Transformation of internal/external MOs...    0-  37 to   38- 240
Number Format for Storage              ... Double (8 Byte)
Integral mode                          ... Direct

First Phase: integral generation and transformation of MO indices
  Aux angular momentum 0               ... done (    0.003 sec)
  Aux angular momentum 1               ... done (    0.006 sec)
  Aux angular momentum 2               ... done (    0.010 sec)
  Aux angular momentum 3               ... done (    0.007 sec)
  Aux angular momentum 4               ... done (    0.011 sec)
  Aux angular momentum 5               ... done (    0.017 sec)
  Aux angular momentum 6               ... done (    0.024 sec)
Closing buffer VIA ( 0.04 GB; CompressionRatio= 1.00)
  Phase 1 completed in     0.184 sec
Second Phase: sorting and transformation of aux index

IA-Transformation
Memory available                       ... 4990 MB 
Max. # MO pairs treated in a batch     ... 2    
# of internal orbitals                 ... 38
# batches for internal orbitals        ... 1
Closing buffer IAV ( 0.00 GB; CompressionRatio= 1.00)
(ia|v) transformation done in     0.027 sec

  Phase 2 completed in     0.075 sec
RI-Integral transformation completed in     0.261 sec

-----------------
RI-TRANSFORMATION (AUX index driven)
-----------------

Dimension of the orbital-basis         ... 241
Dimension of the aux-basis             ... 743
Transformation of internal/external MOs...    0-  36 to   37- 240
Number Format for Storage              ... Double (8 Byte)
Integral mode                          ... Direct

First Phase: integral generation and transformation of MO indices
  Aux angular momentum 0               ... done (    0.003 sec)
  Aux angular momentum 1               ... done (    0.006 sec)
  Aux angular momentum 2               ... done (    0.010 sec)
  Aux angular momentum 3               ... done (    0.007 sec)
  Aux angular momentum 4               ... done (    0.011 sec)
  Aux angular momentum 5               ... done (    0.016 sec)
  Aux angular momentum 6               ... done (    0.023 sec)
Closing buffer VIA ( 0.04 GB; CompressionRatio= 1.00)
  Phase 1 completed in     0.166 sec
Second Phase: sorting and transformation of aux index

IA-Transformation
Memory available                       ... 4990 MB 
Max. # MO pairs treated in a batch     ... 2    
# of internal orbitals                 ... 37
# batches for internal orbitals        ... 1
Closing buffer IAV ( 0.00 GB; CompressionRatio= 1.00)
(ia|v) transformation done in     0.026 sec

  Phase 2 completed in     0.072 sec
RI-Integral transformation completed in     0.239 sec
Opening buffers                              ... done

Starting loop over batches of integrals:

Operator 0  - window                       ... (  0- 37)x( 38-240)
Operator 0  - Memory available             ...  5000 MB
Operator 0  - Memory needed per MO         ...   1.2 MB
Operator 0  - Number of orbitals per batch ... 2
Operator 0  - Number of batches            ... 1

OPERATOR  0   PASS   0:  MOs     0 ...    1 +    2 ...    3 +    4 ...    5 +    6 ...    7
                            +    8 ...    9 +   10 ...   11 +   12 ...   13 +   14 ...   15
                            +   16 ...   17 +   18 ...   19 +   20 ...   21 +   22 ...   23
                            +   24 ...   25 +   26 ...   27 +   28 ...   29 +   30 ...   31
                            +   32 ...   33 +   34 ...   35 +   36 ...   37
  Reading integrals       ... ok

Operator 1  - window                       ... (  0- 36)x( 37-240)
Operator 1  - Memory available             ...  5000 MB
Operator 1  - Memory needed per MO         ...   1.2 MB
Operator 1  - Number of orbitals per batch ... 2
Operator 1  - Number of batches            ... 1

OPERATOR  1   PASS   0:  MOs     0 ...    1 +    2 ...    3 +    4 ...    5 +    6 ...    7
                            +    8 ...    9 +   10 ...   11 +   12 ...   13 +   14 ...   15
                            +   16 ...   17 +   18 ...   19 +   20 ...   21 +   22 ...   23
                            +   24 ...   25 +   26 ...   27 +   28 ...   29 +   30 ...   31
                            +   32 ...   33 +   34 ...   35 +   36 ...   36
  Reading integrals       ... ok
Time spent in pair loops =     0.413 sec

Correlation energy components}
 E2 and T2 for alpha/alpha pairs :     -0.140846941 Eh      0.000000000
 E2 and T2 for beta/beta   pairs :     -0.136728748 Eh      0.000000000
 E2 and T2 for alpha/beta  pairs :     -0.548901273 Eh      0.000000000


-----------------------------------------------
 RI-MP2 CORRELATION ENERGY:     -0.826476961 Eh
-----------------------------------------------


-------
TIMINGS
-------

Total time                :    1.096 sec
Integral trafo            :    0.513 sec ( 46.8%)
I/O of integrals          :    0.004 sec (  0.3%)
K(i,j) Operators          :    0.211 sec ( 19.2%)
T(i,j) pair energies      :    0.012 sec (  1.1%)
V-calculation             :    0.023 sec (  2.1%)
V**(-1/2)                 :    0.033 sec (  3.0%)
Gamma(ia|P)               :    0.000 sec (  0.0%)
Gamma-Trafo               :    0.000 sec (  0.0%)
D(virtual)                :    0.000 sec (  0.0%)
D(internal)               :    0.000 sec (  0.0%)
W(virtual)                :    0.000 sec (  0.0%)
W(internal)               :    0.000 sec (  0.0%)
L(virtual)                :    0.000 sec (  0.0%)
L(internal)               :    0.000 sec (  0.0%)
G(D)                      :    0.000 sec (  0.0%)
G(Z)                      :    0.000 sec (  0.0%)
Z-Vector Solution         :    0.000 sec (  0.0%)
Z-Vector Solution         :    0.000 sec (  0.0%)
3-Index Derivative 
+ Separable RIJ part      :    0.000 sec (  0.0%)
2-Index Derivative 
+ Separable RIJ part      :    0.000 sec (  0.0%)
Separable Gradient (X)    :    0.000 sec (  0.0%)


---------------------------------------
MP2 TOTAL ENERGY:     -587.605264613 Eh
---------------------------------------


-------------------------------------------------------------------------------
                          DFT DISPERSION CORRECTION                            
                                                                               
                              DFTD3 V3.1  Rev 1                                
                          USING Becke-Johnson damping                          
-------------------------------------------------------------------------------
The B2PLYP functional is recognized
Active option DFTDOPT                   ...         4   

molecular C6(AA) [au] = 4524.494390 


            DFT-D V3
 parameters
 s6 scaling factor         :     0.6400 
 a1 scaling factor         :     0.3065 
 s8 scaling factor         :     0.9147 
 a2 scaling factor         :     5.0570 
 ad hoc parameters k1-k3   :    16.0000     1.3333    -4.0000 

 Edisp/kcal,au: -8.049671142502  -0.012827966137 
 E6   /kcal   :  -2.719403644 
 E8   /kcal   :  -5.330267499 
 % E8         :  66.217208187 

-------------------------   ----------------
Dispersion correction           -0.012827966
-------------------------   ----------------


-------------------------   --------------------
FINAL SINGLE POINT ENERGY      -587.618092579558
-------------------------   --------------------


                            ***************************************
                            *     ORCA property calculations      *
                            ***************************************


  WARNING: The energy has been calculated at the MP2 level but the densities
           used in the property calculations are still SCF densities
           MP2 response densities have not been calculated 
           use %mp2 Density relaxed end
           or  %mp2 Density unrelaxed end

                                    ---------------------
                                    Active property flags
                                    ---------------------
   (+) Dipole Moment


------------------------------------------------------------------------------
                       ORCA ELECTRIC PROPERTIES CALCULATION
------------------------------------------------------------------------------

Dipole Moment Calculation                       ... on
Quadrupole Moment Calculation                   ... off
Polarizability Calculation                      ... off
GBWName                                         ... Ag04C2_H_F.gbw
Electron density file                           ... Ag04C2_H_F.scfp
The origin for moment calculation is the CENTER OF MASS  = ( 0.000000, -0.000000  0.009647)

-------------
DIPOLE MOMENT
-------------
                                X             Y             Z
Electronic contribution:      0.00000       0.00002       2.67358
Nuclear contribution   :      0.00000       0.00000      -2.67399
                        -----------------------------------------
Total Dipole Moment    :      0.00000       0.00002      -0.00040
                        -----------------------------------------
Magnitude (a.u.)       :      0.00040
Magnitude (Debye)      :      0.00102



--------------------
Rotational spectrum 
--------------------
 
Rotational constants in cm-1:     0.020237     0.018353     0.018353 
Rotational constants in MHz :   606.690796   550.208253   550.208173 

 Dipole components along the rotational axes: 
x,y,z [a.u.] :     0.000402     0.000000    -0.000018 
x,y,z [Debye]:     0.001022     0.000000    -0.000046 

 

Timings for individual modules:

Sum of individual times         ...       15.573 sec (=   0.260 min)
GTO integral calculation        ...        2.014 sec (=   0.034 min)  12.9 %
SCF iterations                  ...       11.867 sec (=   0.198 min)  76.2 %
MP2 module                      ...        1.692 sec (=   0.028 min)  10.9 %
                             ****ORCA TERMINATED NORMALLY****
TOTAL RUN TIME: 0 days 0 hours 0 minutes 16 seconds 199 msec
