
                                 *****************
                                 * O   R   C   A *
                                 *****************

           --- An Ab Initio, DFT and Semiempirical electronic structure package ---

                  #######################################################
                  #                        -***-                        #
                  #          Department of theory and spectroscopy      #
                  #               Directorship: Frank Neese             #
                  #        Max Planck Institute fuer Kohlenforschung    #
                  #                Kaiser Wilhelm Platz 1               #
                  #                 D-45470 Muelheim/Ruhr               #
                  #                      Germany                        #
                  #                                                     #
                  #                  All rights reserved                #
                  #                        -***-                        #
                  #######################################################


                         Program Version 4.2.0 -  RELEASE  -


 With contributions from (in alphabetic order):
   Daniel Aravena         : Magnetic Suceptibility
   Michael Atanasov       : Ab Initio Ligand Field Theory (pilot matlab implementation)
   Alexander A. Auer      : GIAO ZORA, VPT2
   Ute Becker             : Parallelization
   Giovanni Bistoni       : ED, misc. LED, open-shell LED, HFLED
   Martin Brehm           : Molecular dynamics
   Dmytro Bykov           : SCF Hessian
   Vijay G. Chilkuri      : MRCI spin determinant printing, contributions to CSF-ICE
   Dipayan Datta          : RHF DLPNO-CCSD density
   Achintya Kumar Dutta   : EOM-CC, STEOM-CC
   Dmitry Ganyushin       : Spin-Orbit,Spin-Spin,Magnetic field MRCI
   Miquel Garcia          : C-PCM Hessian, Gaussian charge scheme
   Yang Guo               : DLPNO-NEVPT2, CIM, IAO-localization
   Andreas Hansen         : Spin unrestricted coupled pair/coupled cluster methods
   Benjamin Helmich-Paris : CASSCF linear response (MC-RPA)
   Lee Huntington         : MR-EOM, pCC
   Robert Izsak           : Overlap fitted RIJCOSX, COSX-SCS-MP3, EOM
   Christian Kollmar      : KDIIS, OOCD, Brueckner-CCSD(T), CCSD density
   Simone Kossmann        : Meta GGA functionals, TD-DFT gradient, OOMP2, MP2 Hessian
   Martin Krupicka        : AUTO-CI
   Lucas Lang             : DCDCAS
   Dagmar Lenk            : GEPOL surface, SMD
   Dimitrios Liakos       : Extrapolation schemes; Compound Job, initial MDCI parallelization
   Dimitrios Manganas     : Further ROCIS development; embedding schemes
   Dimitrios Pantazis     : SARC Basis sets
   Taras Petrenko         : DFT Hessian,TD-DFT gradient, ASA, ECA, R-Raman, ABS, FL, XAS/XES, NRVS
   Peter Pinski           : DLPNO-MP2, DLPNO-MP2 Gradient
   Christoph Reimann      : Effective Core Potentials
   Marius Retegan         : Local ZFS, SOC
   Christoph Riplinger    : Optimizer, TS searches, QM/MM, DLPNO-CCSD(T), (RO)-DLPNO pert. Triples
   Tobias Risthaus        : Range-separated hybrids, TD-DFT gradient, RPA, STAB
   Michael Roemelt        : Original ROCIS implementation
   Masaaki Saitow         : Open-shell DLPNO-CCSD energy and density
   Barbara Sandhoefer     : DKH picture change effects
   Avijit Sen             : IP-ROCIS
   Kantharuban Sivalingam : CASSCF convergence, NEVPT2, FIC-MRCI
   Bernardo de Souza      : ESD, SOC TD-DFT
   Georgi Stoychev        : AutoAux, RI-MP2 NMR
   Willem Van den Heuvel  : Paramagnetic NMR
   Boris Wezisla          : Elementary symmetry handling
   Frank Wennmohs         : Technical directorship


 We gratefully acknowledge several colleagues who have allowed us to
 interface, adapt or use parts of their codes:
   Stefan Grimme, W. Hujo, H. Kruse,             : VdW corrections, initial TS optimization,
                  C. Bannwarth                     DFT functionals, gCP, sTDA/sTD-DF
   Ed Valeev, F. Pavosevic, A. Kumar             : LibInt (2-el integral package), F12 methods
   Garnet Chan, S. Sharma, J. Yang, R. Olivares  : DMRG
   Ulf Ekstrom                                   : XCFun DFT Library
   Mihaly Kallay                                 : mrcc  (arbitrary order and MRCC methods)
   Andreas Klamt, Michael Diedenhofen            : otool_cosmo (COSMO solvation model)
   Jiri Pittner, Ondrej Demel                    : Mk-CCSD
   Frank Weinhold                                : gennbo (NPA and NBO analysis)
   Christopher J. Cramer and Donald G. Truhlar   : smd solvation model
   Lars Goerigk                                  : TD-DFT with DH, B97 family of functionals
   V. Asgeirsson, H. Jonsson                     : NEB implementation
   FAccTs GmbH                                   : IRC, NEB, NEB-TS, Multilevel, MM, QM/MM, CI optimization
   S Lehtola, MJT Oliveira, MAL Marques          : LibXC Library


 Your calculation uses the libint2 library for the computation of 2-el integrals
 For citations please refer to: http://libint.valeyev.net

 Your ORCA version has been built with support for libXC version: 4.2.3
 For citations please refer to: https://tddft.org/programs/libxc/

 This ORCA versions uses:
   CBLAS   interface :  Fast vector & matrix operations
   LAPACKE interface :  Fast linear algebra routines
   SCALAPACK package :  Parallel linear algebra routines


Your calculation utilizes the atom-pairwise dispersion correction
with the Becke-Johnson damping scheme (D3BJ)
Cite in your paper:
S.Grimme, S.Ehrlich, L.Goerigk, J Comput Chem, (2011), 32, 1456–1465 
S.Grimme, J.Antony, S.Ehrlich and H.Krieg, J.Chem.Phys., 132, (2010), 154104 
   

----- Orbital basis set information -----
Your calculation utilizes the basis: def2-TZVPPD
   F. Weigend and R. Ahlrichs, Phys. Chem. Chem. Phys. 7, 3297 (2005).
   D. Rappoport and F. Furche, J. Chem. Phys. 133 134105 (2010).

----- AuxC basis set information -----
Your calculation utilizes the auxiliary basis: def2-TZVPPD/C
   A. Hellweg, C. Hattig, S. Hofener and W. Klopper, Theor. Chem. Acc. 117, 587 (2007).

----- AuxJK basis set information -----
Your calculation utilizes the auxiliary basis: def2/JK
   H-Ba, Hf-Rn: F. Weigend, J. Comput. Chem. 29, 167 (2008).

cite the ECPs for Au [Def2-ECP] as follows:
Ce-Yb(ecp-28): M. Dolg, H. Stoll, H.Preuss, J. Chem. Phys., 1989, 90, 1730-1734.
Y-Cd(ecp-28), Hf-Hg(ecp-46): D. Andrae,U. Haeussermann, M. Dolg, H. Stoll, H. Preuss, Theor. Chim. Acta, 1990, 77, 123-141.
In-Sb(ecp-28), Tl-Bi(ecp-46): B. Metz, H. Stoll, M. Dolg, J. Chem. Phys., 2000, 113, 2563-2569.
Te-Xe(ecp-28), Po-Rn(ecp-46): K. A. Peterson, D. Figgen, E. Goll, H. Stoll, M. Dolg, J. Chem. Phys., 2003, 119, 11113-11123.
Rb(ecp-28), Cs(ecp-46): T. Leininger, A. Nicklass, W. Kuechle, H. Stoll, M. Dolg, A. Bergner, Chem. Phys. Lett., 1996, 255, 274-280.
Sr(ecp-28), Ba(ecp-46): M. Kaupp, P. V. Schleyer, H. Stoll and H. Preuss, J. Chem. Phys., 1991, 94, 1360-1366.
La(ecp-46): M. Dolg, H. Stoll, A. Savin, H. Preuss, Theor. Chim. Acta, 1989, 75, 173-194.
Lu(ecp-28): X. Cao, M. Dolg, J. Chem. Phys., 2001, 115, 7348-7355.

ECP parameters for Au [Def2-ECP] have been obtained from:
TURBOMOLE (7.0.2)

================================================================================
                                        WARNINGS
                       Please study these warnings very carefully!
================================================================================


WARNING: No MP2 level density has been requested!
         To caclulate MP2 level properties use
         %mp2 Density relaxed end
         or
         %mp2 Density unrelaxed end
         Otherwise for double-hybrid DFT only the energy is correct!

WARNING: The frozen-core approximation is turned on by default for 
         the MP2 part of double-hybrid DFT.

INFO   : the flag for use of LIBINT has been found!

================================================================================
                                       INPUT FILE
================================================================================
NAME = Au02N0.in
|  1> #
|  2> # Au02N0 ri-B2PLYP-D3BJ/Def2-TZVPPD
|  3> #
|  4> ! rijk ri-b2plyp d3bj def2-tzvppd def2/jk def2-tzvppd/c grid4 nofinalgrid
|  5> 
|  6> *xyz 0 1
|  7> Au       0.000000    0.000000    1.239541 
|  8> Au       0.000000    0.000000   -1.239541 
|  9> *
| 10> 
| 11> %maxcore 5000
| 12> 
| 13> %pal
| 14> nprocs = 24
| 15> end
| 16> 
| 17> 
| 18>                          ****END OF INPUT****
================================================================================

                       ****************************
                       * Single Point Calculation *
                       ****************************

---------------------------------
CARTESIAN COORDINATES (ANGSTROEM)
---------------------------------
  Au     0.000000    0.000000    1.239541
  Au     0.000000    0.000000   -1.239541

----------------------------
CARTESIAN COORDINATES (A.U.)
----------------------------
  NO LB      ZA    FRAG     MASS         X           Y           Z
   0 Au   19.0000*   0   196.966    0.000000    0.000000    2.342393
   1 Au   19.0000*   0   196.966    0.000000    0.000000   -2.342393
* core charge reduced due to ECP

--------------------------------
INTERNAL COORDINATES (ANGSTROEM)
--------------------------------
 Au     0   0   0     0.000000000000     0.00000000     0.00000000
 Au     1   0   0     2.479082000000     0.00000000     0.00000000

---------------------------
INTERNAL COORDINATES (A.U.)
---------------------------
 Au     0   0   0     0.000000000000     0.00000000     0.00000000
 Au     1   0   0     4.684786043534     0.00000000     0.00000000

---------------------
BASIS SET INFORMATION
---------------------
There are 1 groups of distinct atoms

 Group   1 Type Au  : 8s8p6d2f1g contracted to 6s5p3d2f1g pattern {311111/41111/411/11/1}

Atom   0Au   basis set group =>   1
Atom   1Au   basis set group =>   1
---------------------------------
AUXILIARY/C BASIS SET INFORMATION
---------------------------------
There are 1 groups of distinct atoms

 Group   1 Type Au  : 9s9p8d5f4g3h1i contracted to 9s9p8d5f4g3h1i pattern {111111111/111111111/11111111/11111/1111/111/1}

Atom   0Au   basis set group =>   1
Atom   1Au   basis set group =>   1
----------------------------------
AUXILIARY/JK BASIS SET INFORMATION
----------------------------------
There are 1 groups of distinct atoms

 Group   1 Type Au  : 13s12p11d9f5g3h2i contracted to 13s11p10d8f4g3h2i pattern {1111111111111/21111111111/2111111111/21111111/2111/111/11}

Atom   0Au   basis set group =>   1
Atom   1Au   basis set group =>   1
-------------------------
ECP PARAMETER INFORMATION
-------------------------

 Group 1, Type Au ECP Def2-ECP (replacing 60 core electrons, lmax=3)

Atom   0Au   ECP group =>   1
Atom   1Au   ECP group =>   1



           ************************************************************
           *        Program running with 24 parallel MPI-processes    *
           *              working on a common directory               *
           ************************************************************
------------------------------------------------------------------------------
                           ORCA GTO INTEGRAL CALCULATION
                           -- RI-GTO INTEGRALS CHOSEN --
------------------------------------------------------------------------------

                         BASIS SET STATISTICS AND STARTUP INFO

Gaussian basis set:
 # of primitive gaussian shells          ...   50
 # of primitive gaussian functions       ...  170
 # of contracted shells                  ...   34
 # of contracted basis functions         ...  118
 Highest angular momentum                ...    4
 Maximum contraction depth               ...    4
Auxiliary gaussian basis set:
 # of primitive gaussian shells          ...  110
 # of primitive gaussian functions       ...  542
 # of contracted shells                  ...  102
 # of contracted aux-basis functions     ...  494
 Highest angular momentum                ...    6
 Maximum contraction depth               ...    2
Ratio of auxiliary to basis functions    ...  4.19
Integral package used                  ... LIBINT
 One Electron integrals                  
   ECP integrals                         ... done
 Ordering auxiliary basis shells         ... done
 Integral threshhold             Thresh  ...  1.000e-10
 Primitive cut-off               TCut    ...  1.000e-11
 Pre-screening matrix                    ... done
 Shell pair data                         ... 
 Ordering of the shell pairs             ... done (   0.000 sec) 587 of 595 pairs
 Determination of significant pairs      ... done (   0.000 sec)
 Creation of shell pair data             ... done (   0.000 sec)
 Storage of shell pair data              ... done (   0.010 sec)
 Shell pair data done in (   0.011 sec)
 Computing two index integrals           ... done
 Cholesky decomposition of the V-matrix  ... done


Timings:
 Total evaluation time                   ...   0.436 sec (  0.007 min)
 One electron matrix time                ...   0.198 sec (  0.003 min) = 45.5%
 Schwartz matrix evaluation time         ...   0.121 sec (  0.002 min) = 27.8%
 Two index repulsion integral time       ...   0.074 sec (  0.001 min) = 17.0%
 Cholesky decomposition of V             ...   0.004 sec (  0.000 min) =  0.8%
 Three index repulsion integral time     ...   0.000 sec (  0.000 min) =  0.0%



           ************************************************************
           *        Program running with 24 parallel MPI-processes    *
           *              working on a common directory               *
           ************************************************************
-------------------------------------------------------------------------------
                                 ORCA SCF
-------------------------------------------------------------------------------

------------
SCF SETTINGS
------------
Hamiltonian:
 Density Functional     Method          .... DFT(GTOs)
 Exchange Functional    Exchange        .... B88
   X-Alpha parameter    XAlpha          ....  0.666667
   Becke's b parameter  XBeta           ....  0.004200
 Correlation Functional Correlation     .... LYP
 LDA part of GGA corr.  LDAOpt          .... VWN-3
 Gradients option       PostSCFGGA      .... off
 Hybrid DFT is turned on
   Fraction HF Exchange ScalHFX         ....  0.530000
   Scaling of DF-GGA-X  ScalDFX         ....  0.470000
   Scaling of DF-GGA-C  ScalDFC         ....  0.730000
   Scaling of DF-LDA-C  ScalLDAC        ....  0.730000
   Perturbative correction              ....  0.270000
   Density functional embedding theory  .... OFF
 RI-approximation to the Coulomb term is turned on
   Number of auxiliary basis functions  .... 494
   RI-JK (J+K treated both via RI)      .... on


General Settings:
 Integral files         IntName         .... Au02N0
 Hartree-Fock type      HFTyp           .... RHF
 Total Charge           Charge          ....    0
 Multiplicity           Mult            ....    1
 Number of Electrons    NEL             ....   38
 Basis Dimension        Dim             ....  118
 Nuclear Repulsion      ENuc            ....     77.0579481422 Eh

Convergence Acceleration:
 DIIS                   CNVDIIS         .... on
   Start iteration      DIISMaxIt       ....    12
   Startup error        DIISStart       ....  0.200000
   # of expansion vecs  DIISMaxEq       ....     5
   Bias factor          DIISBfac        ....   1.050
   Max. coefficient     DIISMaxC        ....  10.000
 Newton-Raphson         CNVNR           .... off
 SOSCF                  CNVSOSCF        .... off
 Level Shifting         CNVShift        .... on
   Level shift para.    LevelShift      ....    0.2500
   Turn off err/grad.   ShiftErr        ....    0.0010
 Zerner damping         CNVZerner       .... off
 Static damping         CNVDamp         .... on
   Fraction old density DampFac         ....    0.7000
   Max. Damping (<1)    DampMax         ....    0.9800
   Min. Damping (>=0)   DampMin         ....    0.0000
   Turn off err/grad.   DampErr         ....    0.1000
 Fernandez-Rico         CNVRico         .... off

SCF Procedure:
 Maximum # iterations   MaxIter         ....   125
 SCF integral mode      SCFMode         .... Direct
   Integral package                     .... LIBINT
 Reset frequency        DirectResetFreq ....    20
 Integral Threshold     Thresh          ....  1.000e-10 Eh
 Primitive CutOff       TCut            ....  1.000e-11 Eh

Convergence Tolerance:
 Convergence Check Mode ConvCheckMode   .... Total+1el-Energy
 Convergence forced     ConvForced      .... 0
 Energy Change          TolE            ....  1.000e-06 Eh
 1-El. energy change                    ....  1.000e-03 Eh
 DIIS Error             TolErr          ....  1.000e-06


Diagonalization of the overlap matrix:
Smallest eigenvalue                        ... 1.998e-03
Time for diagonalization                   ...    0.003 sec
Threshold for overlap eigenvalues          ... 1.000e-08
Number of eigenvalues below threshold      ... 0
Time for construction of square roots      ...    0.001 sec
Total time needed                          ...    0.004 sec

-------------------
DFT GRID GENERATION
-------------------

General Integration Accuracy     IntAcc      ...  4.670
Radial Grid Type                 RadialGrid  ... Gauss-Chebyshev
Angular Grid (max. acc.)         AngularGrid ... Lebedev-302
Angular grid pruning method      GridPruning ... 3 (G Style)
Weight generation scheme         WeightScheme... Becke
Basis function cutoff            BFCut       ...    1.0000e-10
Integration weight cutoff        WCut        ...    1.0000e-14
Grids for H and He will be reduced by one unit

# of grid points (after initial pruning)     ...  23304 (   0.0 sec)
# of grid points (after weights+screening)   ...  23266 (   0.0 sec)
nearest neighbour list constructed           ...    0.0 sec
Grid point re-assignment to atoms done       ...    0.0 sec
Grid point division into batches done        ...    0.2 sec
Reduced shell lists constructed in    0.2 sec

Total number of grid points                  ...    23266
Total number of batches                      ...      364
Average number of points per batch           ...       63
Average number of grid points per atom       ...    11633
Average number of shells per batch           ...     0.88 ( 2.60%)
Average number of basis functions per batch  ...     2.06 ( 1.74%)
Average number of large shells per batch     ...     0.59 (66.67%)
Average number of large basis fcns per batch ...     1.41 (68.57%)
Average number of aux-shells per batch       ...     0.88 ( 0.87%)
Average number of aux functions per batch    ...     2.06 ( 0.42%)
Maximum spatial batch extension              ...  31.96, 31.96, 20.28 au
Average spatial batch extension              ...   1.02,  1.02,  0.79 au

Time for grid setup =    0.361 sec

------------------------------
INITIAL GUESS: MODEL POTENTIAL
------------------------------
Loading Hartree-Fock densities                     ... done
  calling /sw/apps/orca/orca_4_2_0_linux_x86-64_openmpi314/orca Au02N0_atom79.inp > Au02N0_atom79.out in order to generate an atomic fitting density for atom 0 (Au with ECP) on-the-fly... 
    atom 0 (Au), assumed electronic state with S=2: 1s2 2s2 2p6 3s2 3p6 4s2 3d10 4p6 5s2 4d10 5p6 6s1 4f14 5d10           ... done
Calculating cut-offs                               ... done
Setting up the integral package                    ... done
Initializing the effective Hamiltonian             ... done
Starting the Coulomb interaction                   ... done (   0.0 sec)
Reading the grid                                   ... done
Mapping shells                                     ... done
Starting the XC term evaluation                    ... done (   0.0 sec)
  promolecular density results
     # of electrons  =    158.005730857
     EX              =   -734.693818121
     EC              =     -3.195472085
     EX+EC           =   -737.889290206
Transforming the Hamiltonian                       ... done (   0.0 sec)
Diagonalizing the Hamiltonian                      ... done (   0.0 sec)
Back transforming the eigenvectors                 ... done (   0.0 sec)
Now organizing SCF variables                       ... done
                      ------------------
                      INITIAL GUESS DONE (   1.7 sec)
                      ------------------
--------------
SCF ITERATIONS
--------------
ITER       Energy         Delta-E        Max-DP      RMS-DP      [F,P]     Damp
  0   -270.6260732503   0.000000000000 0.25146540  0.00437682  0.5494226 0.7000
  1   -270.5509435941   0.075129656211 0.19278377  0.00346770  0.3931483 0.7000
  2   -270.6277423245  -0.076798730319 0.12566241  0.00224578  0.2683228 0.7000
                               ***Turning on DIIS***
  3   -270.7278767172  -0.100134392780 0.08242115  0.00146041  0.1842268 0.7000
  4   -270.7920091394  -0.064132422212 0.05668547  0.00104652  0.1279404 0.7000
  5   -270.8269189137  -0.034909774242 0.14951021  0.00282407  0.0902246 0.0000
  6   -270.8263523381   0.000566575557 0.00732517  0.00035009  0.0150527 0.0000
  7   -270.8278099307  -0.001457592560 0.00519439  0.00015434  0.0036678 0.0000
  8   -270.8279535562  -0.000143625524 0.00179349  0.00005523  0.0011673 0.0000
  9   -270.8279703636  -0.000016807396 0.00105149  0.00003745  0.0004653 0.0000
 10   -270.8279739261  -0.000003562493 0.00037185  0.00001120  0.0002021 0.0000
 11   -270.8279742569  -0.000000330782 0.00008955  0.00000341  0.0000659 0.0000
                 **** Energy Check signals convergence ****

               *****************************************************
               *                     SUCCESS                       *
               *           SCF CONVERGED AFTER  12 CYCLES          *
               *****************************************************


----------------
TOTAL SCF ENERGY
----------------

Total Energy       :         -270.82797430 Eh           -7369.60384 eV

Components:
Nuclear Repulsion  :           77.05794814 Eh            2096.85337 eV
Electronic Energy  :         -347.88592244 Eh           -9466.45722 eV
One Electron Energy:         -631.85576552 Eh          -17193.66949 eV
Two Electron Energy:          283.96984308 Eh            7727.21227 eV

Virial components:
Potential Energy   :         -362.81748935 Eh           -9872.76581 eV
Kinetic Energy     :           91.98951505 Eh            2503.16196 eV
Virial Ratio       :            3.94411786


DFT components:
N(Alpha)           :       19.000002495130 electrons
N(Beta)            :       19.000002495130 electrons
N(Total)           :       38.000004990261 electrons
E(X)               :      -11.434225194964 Eh       
E(C)               :       -1.006140677648 Eh       
E(XC)              :      -12.440365872611 Eh       
DFET-embed. en.    :        0.000000000000 Eh       

---------------
SCF CONVERGENCE
---------------

  Last Energy change         ...   -4.2319e-08  Tolerance :   1.0000e-06
  Last MAX-Density change    ...    6.0457e-05  Tolerance :   1.0000e-05
  Last RMS-Density change    ...    1.9293e-06  Tolerance :   1.0000e-06
  Last DIIS Error            ...    1.8527e-05  Tolerance :   1.0000e-06

             **** THE GBW FILE WAS UPDATED (Au02N0.gbw) ****
             **** DENSITY FILE WAS UPDATED (Au02N0.scfp) ****
             **** ENERGY FILE WAS UPDATED (Au02N0.en.tmp) ****
             **** THE GBW FILE WAS UPDATED (Au02N0.gbw) ****
             **** DENSITY FILE WAS UPDATED (Au02N0.scfp) ****
----------------
ORBITAL ENERGIES
----------------

  NO   OCC          E(Eh)            E(eV) 
   0   2.0000      -4.367949      -118.8579 
   1   2.0000      -4.367076      -118.8342 
   2   2.0000      -2.498778       -67.9952 
   3   2.0000      -2.483825       -67.5883 
   4   2.0000      -2.483461       -67.5784 
   5   2.0000      -2.483461       -67.5784 
   6   2.0000      -2.482171       -67.5433 
   7   2.0000      -2.482171       -67.5433 
   8   2.0000      -0.430739       -11.7210 
   9   2.0000      -0.401721       -10.9314 
  10   2.0000      -0.401721       -10.9314 
  11   2.0000      -0.364329        -9.9139 
  12   2.0000      -0.364324        -9.9138 
  13   2.0000      -0.350406        -9.5350 
  14   2.0000      -0.350400        -9.5349 
  15   2.0000      -0.332208        -9.0399 
  16   2.0000      -0.332208        -9.0399 
  17   2.0000      -0.322604        -8.7785 
  18   2.0000      -0.275954        -7.5091 
  19   0.0000      -0.079458        -2.1622 
  20   0.0000       0.008749         0.2381 
  21   0.0000       0.008749         0.2381 
  22   0.0000       0.030073         0.8183 
  23   0.0000       0.074435         2.0255 
  24   0.0000       0.074435         2.0255 
  25   0.0000       0.102201         2.7810 
  26   0.0000       0.191724         5.2171 
  27   0.0000       0.224148         6.0994 
  28   0.0000       0.224148         6.0994 
  29   0.0000       0.225787         6.1440 
  30   0.0000       0.256195         6.9714 
  31   0.0000       0.287416         7.8210 
  32   0.0000       0.287416         7.8210 
  33   0.0000       0.328233         8.9317 
  34   0.0000       0.328234         8.9317 
  35   0.0000       0.388844        10.5810 
  36   0.0000       0.388844        10.5810 
  37   0.0000       0.394531        10.7357 
  38   0.0000       0.406031        11.0487 
  39   0.0000       0.406032        11.0487 
  40   0.0000       0.497257        13.5310 
  41   0.0000       0.497257        13.5310 
  42   0.0000       0.506837        13.7917 
  43   0.0000       0.646949        17.6044 
  44   0.0000       0.953884        25.9565 
  45   0.0000       1.048365        28.5275 
  46   0.0000       1.048365        28.5275 
  47   0.0000       1.157797        31.5052 
  48   0.0000       1.157797        31.5053 
  49   0.0000       1.181684        32.1553 
  50   0.0000       1.181684        32.1553 
  51   0.0000       1.185993        32.2725 
  52   0.0000       1.185993        32.2725 
  53   0.0000       1.188072        32.3291 
  54   0.0000       1.226298        33.3693 
  55   0.0000       1.226298        33.3693 
  56   0.0000       1.247369        33.9426 
  57   0.0000       1.247369        33.9426 
  58   0.0000       1.317918        35.8624 
  59   0.0000       1.317919        35.8624 
  60   0.0000       1.433944        39.0196 
  61   0.0000       1.482090        40.3297 
  62   0.0000       1.482880        40.3512 
  63   0.0000       1.482880        40.3512 
  64   0.0000       1.570575        42.7375 
  65   0.0000       1.570575        42.7375 
  66   0.0000       1.585533        43.1446 
  67   0.0000       1.585542        43.1448 
  68   0.0000       1.641659        44.6718 
  69   0.0000       1.642367        44.6911 
  70   0.0000       1.642375        44.6913 
  71   0.0000       1.824497        49.6471 
  72   0.0000       1.824497        49.6471 
  73   0.0000       2.177920        59.2642 
  74   0.0000       2.245092        61.0920 
  75   0.0000       2.745508        74.7091 
  76   0.0000       3.706510       100.8593 
  77   0.0000       3.706510       100.8593 
  78   0.0000       3.711193       100.9867 
  79   0.0000       3.711261       100.9885 
  80   0.0000       3.766340       102.4873 
  81   0.0000       3.766340       102.4873 
  82   0.0000       3.785091       102.9976 
  83   0.0000       3.785091       102.9976 
  84   0.0000       3.848540       104.7241 
  85   0.0000       3.848626       104.7264 
  86   0.0000       3.932417       107.0065 
  87   0.0000       3.996790       108.7582 
  88   0.0000       3.996790       108.7582 
  89   0.0000       4.060021       110.4788 
  90   0.0000       4.276274       116.3633 
  91   0.0000       4.294163       116.8501 
  92   0.0000       4.294163       116.8501 
  93   0.0000       4.304518       117.1319 
  94   0.0000       4.304557       117.1329 
  95   0.0000       4.314480       117.4030 
  96   0.0000       4.314480       117.4030 
  97   0.0000       4.316528       117.4587 
  98   0.0000       4.316528       117.4587 
  99   0.0000       4.321535       117.5949 
 100   0.0000       4.321630       117.5975 
 101   0.0000       4.321740       117.6005 
 102   0.0000       4.321835       117.6031 
 103   0.0000       4.323600       117.6511 
 104   0.0000       4.323621       117.6517 
 105   0.0000       4.434794       120.6769 
 106   0.0000       4.434794       120.6769 
 107   0.0000       4.710527       128.1800 
 108   0.0000      27.188650       739.8408 
 109   0.0000      27.188650       739.8408 
 110   0.0000      27.376091       744.9413 
 111   0.0000      27.632561       751.9202 
 112   0.0000      27.632561       751.9202 
 113   0.0000      30.366919       826.3259 
 114   0.0000      43.954225      1196.0553 
 115   0.0000      44.413748      1208.5595 
 116   0.0000     202.627181      5513.7659 
 117   0.0000     202.824949      5519.1474 

                    ********************************
                    * MULLIKEN POPULATION ANALYSIS *
                    ********************************

-----------------------
MULLIKEN ATOMIC CHARGES
-----------------------
   0 Au:    0.000001
   1 Au:   -0.000001
Sum of atomic charges:    0.0000000

--------------------------------
MULLIKEN REDUCED ORBITAL CHARGES
--------------------------------
  0 Aus       :     3.028362  s :     3.028362
      pz      :     2.038777  p :     6.056213
      px      :     2.008718
      py      :     2.008718
      dz2     :     1.929741  d :     9.907480
      dxz     :     1.989135
      dyz     :     1.989135
      dx2y2   :     1.999734
      dxy     :     1.999734
      f0      :     0.003050  f :     0.007778
      f+1     :     0.002105
      f-1     :     0.002105
      f+2     :     0.000259
      f-2     :     0.000259
      f+3     :     0.000000
      f-3     :     0.000000
      g0      :     0.000069  g :     0.000166
      g+1     :     0.000042
      g-1     :     0.000042
      g+2     :     0.000007
      g-2     :     0.000007
      g+3     :     0.000000
      g-3     :     0.000000
      g+4     :     0.000000
      g-4     :     0.000000
  1 Aus       :     3.028363  s :     3.028363
      pz      :     2.038777  p :     6.056214
      px      :     2.008718
      py      :     2.008718
      dz2     :     1.929741  d :     9.907480
      dxz     :     1.989135
      dyz     :     1.989135
      dx2y2   :     1.999734
      dxy     :     1.999734
      f0      :     0.003050  f :     0.007778
      f+1     :     0.002105
      f-1     :     0.002105
      f+2     :     0.000259
      f-2     :     0.000259
      f+3     :     0.000000
      f-3     :     0.000000
      g0      :     0.000069  g :     0.000166
      g+1     :     0.000042
      g-1     :     0.000042
      g+2     :     0.000007
      g-2     :     0.000007
      g+3     :     0.000000
      g-3     :     0.000000
      g+4     :     0.000000
      g-4     :     0.000000


                     *******************************
                     * LOEWDIN POPULATION ANALYSIS *
                     *******************************

----------------------
LOEWDIN ATOMIC CHARGES
----------------------
   0 Au:    0.000000
   1 Au:   -0.000000

-------------------------------
LOEWDIN REDUCED ORBITAL CHARGES
-------------------------------
  0 Aus       :     2.918988  s :     2.918988
      pz      :     2.102527  p :     6.129000
      px      :     2.013236
      py      :     2.013236
      dz2     :     1.972108  d :     9.937044
      dxz     :     1.982833
      dyz     :     1.982833
      dx2y2   :     1.999635
      dxy     :     1.999635
      f0      :     0.006268  f :     0.014720
      f+1     :     0.003869
      f-1     :     0.003869
      f+2     :     0.000357
      f-2     :     0.000357
      f+3     :     0.000000
      f-3     :     0.000000
      g0      :     0.000109  g :     0.000248
      g+1     :     0.000061
      g-1     :     0.000061
      g+2     :     0.000008
      g-2     :     0.000008
      g+3     :     0.000000
      g-3     :     0.000000
      g+4     :     0.000000
      g-4     :     0.000000
  1 Aus       :     2.918989  s :     2.918989
      pz      :     2.102527  p :     6.129000
      px      :     2.013236
      py      :     2.013236
      dz2     :     1.972108  d :     9.937043
      dxz     :     1.982833
      dyz     :     1.982833
      dx2y2   :     1.999635
      dxy     :     1.999635
      f0      :     0.006268  f :     0.014720
      f+1     :     0.003869
      f-1     :     0.003869
      f+2     :     0.000357
      f-2     :     0.000357
      f+3     :     0.000000
      f-3     :     0.000000
      g0      :     0.000109  g :     0.000248
      g+1     :     0.000061
      g-1     :     0.000061
      g+2     :     0.000008
      g-2     :     0.000008
      g+3     :     0.000000
      g-3     :     0.000000
      g+4     :     0.000000
      g-4     :     0.000000


                      *****************************
                      * MAYER POPULATION ANALYSIS *
                      *****************************

  NA   - Mulliken gross atomic population
  ZA   - Total nuclear charge
  QA   - Mulliken gross atomic charge
  VA   - Mayer's total valence
  BVA  - Mayer's bonded valence
  FA   - Mayer's free valence

  ATOM       NA         ZA         QA         VA         BVA        FA
  0 Au    19.0000    19.0000     0.0000     1.1087     1.1087     0.0000
  1 Au    19.0000    19.0000    -0.0000     1.1087     1.1087     0.0000

  Mayer bond orders larger than 0.100000
B(  0-Au,  1-Au) :   1.1087 

-------
TIMINGS
-------

Total SCF time: 0 days 0 hours 0 min 3 sec 

Total time                  ....       3.701 sec
Sum of individual times     ....       3.579 sec  ( 96.7%)

Fock matrix formation       ....       1.865 sec  ( 50.4%)
  XC integration            ....       0.170 sec  (  9.1% of F)
    Basis function eval.    ....       0.030 sec  ( 17.5% of XC)
    Density eval.           ....       0.018 sec  ( 10.5% of XC)
    XC-Functional eval.     ....       0.009 sec  (  5.5% of XC)
    XC-Potential eval.      ....       0.032 sec  ( 18.8% of XC)
Diagonalization             ....       0.024 sec  (  0.7%)
Density matrix formation    ....       0.004 sec  (  0.1%)
Population analysis         ....       0.003 sec  (  0.1%)
Initial guess               ....       1.310 sec  ( 35.4%)
Orbital Transformation      ....       0.000 sec  (  0.0%)
Orbital Orthonormalization  ....       0.000 sec  (  0.0%)
DIIS solution               ....       0.011 sec  (  0.3%)
Grid generation             ....       0.361 sec  (  9.8%)


           ************************************************************
           *        Program running with 24 parallel MPI-processes    *
           *              working on a common directory               *
           ************************************************************

------------------------------------------------------------------------------
                                ORCA  MP2 
------------------------------------------------------------------------------

Freezing NCore=0 chemical core electrons

-------------
RI-MP2 ENERGY
-------------
Dimension of the basis                    ...  118
Memory devoted to MP2                     ... 5000 MB   
Data format for buffers                   ... DOUBLE
Compression type for matrix containers    ... UNCOMPRESSED
Overall scaling of the MP2 energy         ...   2.700e-01
Calculating two index integrals           ... done (    0.008 sec)
Cholesky decomposition of V**-1           ... done (    0.011 sec)

-----------------
RI-TRANSFORMATION (AUX index driven)
-----------------

Dimension of the orbital-basis         ... 118
Dimension of the aux-basis             ... 386
Transformation of internal/external MOs...    0-  18 to   19- 117
Number Format for Storage              ... Double (8 Byte)
Integral mode                          ... Direct

First Phase: integral generation and transformation of MO indices
  Aux angular momentum 0               ... done (    0.000 sec)
  Aux angular momentum 1               ... done (    0.001 sec)
  Aux angular momentum 2               ... done (    0.001 sec)
  Aux angular momentum 3               ... done (    0.002 sec)
  Aux angular momentum 4               ... done (    0.002 sec)
  Aux angular momentum 5               ... done (    0.004 sec)
  Aux angular momentum 6               ... done (    0.006 sec)
Closing buffer VIA ( 0.01 GB; CompressionRatio= 1.00)
  Phase 1 completed in     0.122 sec
Second Phase: sorting and transformation of aux index

IA-Transformation
Memory available                       ... 4998 MB 
Max. # MO pairs treated in a batch     ... 1    
# of internal orbitals                 ... 19
# batches for internal orbitals        ... 1
Closing buffer IAV ( 0.00 GB; CompressionRatio= 1.00)
(ia|v) transformation done in     0.004 sec

  Phase 2 completed in     0.011 sec
RI-Integral transformation completed in     0.134 sec
Opening buffers                              ... done

Starting loop over batches of integrals:

Operator 0  - window                       ... (  0- 18)x( 19-117)
Operator 0  - Memory available             ...  5000 MB
Operator 0  - Memory needed per MO         ...   0.3 MB
Operator 0  - Number of orbitals per batch ... 1
Operator 0  - Number of batches            ... 1

OPERATOR  0   PASS   0:  MOs     0 ...    0 +    1 ...    1 +    2 ...    2 +    3 ...    3
                            +    4 ...    4 +    5 ...    5 +    6 ...    6 +    7 ...    7
                            +    8 ...    8 +    9 ...    9 +   10 ...   10 +   11 ...   11
                            +   12 ...   12 +   13 ...   13 +   14 ...   14 +   15 ...   15
                            +   16 ...   16 +   17 ...   17 +   18 ...   18
  Reading integrals       ... ok
Time spent in pair loops =     0.003 sec

-----------------------------------------------
 RI-MP2 CORRELATION ENERGY:     -0.389041698 Eh
-----------------------------------------------


-------
TIMINGS
-------

Total time                :    0.177 sec
Integral trafo            :    0.149 sec ( 84.5%)
I/O of integrals          :    0.000 sec (  0.1%)
K(i,j) Operators          :    0.000 sec (  0.1%)
T(i,j) pair energies      :    0.000 sec (  0.0%)
V-calculation             :    0.008 sec (  4.3%)
V**(-1/2)                 :    0.011 sec (  6.0%)
Gamma(ia|P)               :    0.000 sec (  0.0%)
Gamma-Trafo               :    0.000 sec (  0.0%)
D(virtual)                :    0.000 sec (  0.0%)
D(internal)               :    0.000 sec (  0.0%)
W(virtual)                :    0.000 sec (  0.0%)
W(internal)               :    0.000 sec (  0.0%)
L(virtual)                :    0.000 sec (  0.0%)
L(internal)               :    0.000 sec (  0.0%)
G(D)                      :    0.000 sec (  0.0%)
G(Z)                      :    0.000 sec (  0.0%)
Z-Vector Solution         :    0.000 sec (  0.0%)
Z-Vector Solution         :    0.000 sec (  0.0%)
3-Index Derivative 
+ Separable RIJ part      :    0.000 sec (  0.0%)
2-Index Derivative 
+ Separable RIJ part      :    0.000 sec (  0.0%)
Separable Gradient (X)    :    0.000 sec (  0.0%)


---------------------------------------
MP2 TOTAL ENERGY:     -271.217015997 Eh
---------------------------------------


-------------------------------------------------------------------------------
                          DFT DISPERSION CORRECTION                            
                                                                               
                              DFTD3 V3.1  Rev 1                                
                          USING Becke-Johnson damping                          
-------------------------------------------------------------------------------
The B2PLYP functional is recognized
Active option DFTDOPT                   ...         4   

molecular C6(AA) [au] = 1270.811776 


            DFT-D V3
 parameters
 s6 scaling factor         :     0.6400 
 a1 scaling factor         :     0.3065 
 s8 scaling factor         :     0.9147 
 a2 scaling factor         :     5.0570 
 ad hoc parameters k1-k3   :    16.0000     1.3333    -4.0000 

 Edisp/kcal,au: -1.401834667783  -0.002233965504 
 E6   /kcal   :  -0.439687438 
 E8   /kcal   :  -0.962147229 
 % E8         :  68.634857700 

-------------------------   ----------------
Dispersion correction           -0.002233966
-------------------------   ----------------


-------------------------   --------------------
FINAL SINGLE POINT ENERGY      -271.219249962670
-------------------------   --------------------


                            ***************************************
                            *     ORCA property calculations      *
                            ***************************************


  WARNING: The energy has been calculated at the MP2 level but the densities
           used in the property calculations are still SCF densities
           MP2 response densities have not been calculated 
           use %mp2 Density relaxed end
           or  %mp2 Density unrelaxed end

                                    ---------------------
                                    Active property flags
                                    ---------------------
   (+) Dipole Moment


------------------------------------------------------------------------------
                       ORCA ELECTRIC PROPERTIES CALCULATION
------------------------------------------------------------------------------

Dipole Moment Calculation                       ... on
Quadrupole Moment Calculation                   ... off
Polarizability Calculation                      ... off
GBWName                                         ... Au02N0.gbw
Electron density file                           ... Au02N0.scfp
The origin for moment calculation is the CENTER OF MASS  = ( 0.000000,  0.000000  0.000000)

-------------
DIPOLE MOMENT
-------------
                                X             Y             Z
Electronic contribution:      0.00000      -0.00000       0.00000
Nuclear contribution   :      0.00000       0.00000       0.00000
                        -----------------------------------------
Total Dipole Moment    :      0.00000      -0.00000       0.00000
                        -----------------------------------------
Magnitude (a.u.)       :      0.00000
Magnitude (Debye)      :      0.00000



--------------------
Rotational spectrum 
--------------------
 
Rotational constants in cm-1:     0.000000     0.027852     0.027852 
Rotational constants in MHz :     0.000000   834.974952   834.974952 

 Dipole components along the rotational axes: 
x,y,z [a.u.] :     0.000000    -0.000000     0.000000 
x,y,z [Debye]:     0.000000    -0.000000     0.000000 

 

Timings for individual modules:

Sum of individual times         ...        5.740 sec (=   0.096 min)
GTO integral calculation        ...        0.904 sec (=   0.015 min)  15.8 %
SCF iterations                  ...        4.128 sec (=   0.069 min)  71.9 %
MP2 module                      ...        0.708 sec (=   0.012 min)  12.3 %
                             ****ORCA TERMINATED NORMALLY****
TOTAL RUN TIME: 0 days 0 hours 0 minutes 6 seconds 354 msec
