
                                 *****************
                                 * O   R   C   A *
                                 *****************

           --- An Ab Initio, DFT and Semiempirical electronic structure package ---

                  #######################################################
                  #                        -***-                        #
                  #          Department of theory and spectroscopy      #
                  #               Directorship: Frank Neese             #
                  #        Max Planck Institute fuer Kohlenforschung    #
                  #                Kaiser Wilhelm Platz 1               #
                  #                 D-45470 Muelheim/Ruhr               #
                  #                      Germany                        #
                  #                                                     #
                  #                  All rights reserved                #
                  #                        -***-                        #
                  #######################################################


                         Program Version 4.2.0 -  RELEASE  -


 With contributions from (in alphabetic order):
   Daniel Aravena         : Magnetic Suceptibility
   Michael Atanasov       : Ab Initio Ligand Field Theory (pilot matlab implementation)
   Alexander A. Auer      : GIAO ZORA, VPT2
   Ute Becker             : Parallelization
   Giovanni Bistoni       : ED, misc. LED, open-shell LED, HFLED
   Martin Brehm           : Molecular dynamics
   Dmytro Bykov           : SCF Hessian
   Vijay G. Chilkuri      : MRCI spin determinant printing, contributions to CSF-ICE
   Dipayan Datta          : RHF DLPNO-CCSD density
   Achintya Kumar Dutta   : EOM-CC, STEOM-CC
   Dmitry Ganyushin       : Spin-Orbit,Spin-Spin,Magnetic field MRCI
   Miquel Garcia          : C-PCM Hessian, Gaussian charge scheme
   Yang Guo               : DLPNO-NEVPT2, CIM, IAO-localization
   Andreas Hansen         : Spin unrestricted coupled pair/coupled cluster methods
   Benjamin Helmich-Paris : CASSCF linear response (MC-RPA)
   Lee Huntington         : MR-EOM, pCC
   Robert Izsak           : Overlap fitted RIJCOSX, COSX-SCS-MP3, EOM
   Christian Kollmar      : KDIIS, OOCD, Brueckner-CCSD(T), CCSD density
   Simone Kossmann        : Meta GGA functionals, TD-DFT gradient, OOMP2, MP2 Hessian
   Martin Krupicka        : AUTO-CI
   Lucas Lang             : DCDCAS
   Dagmar Lenk            : GEPOL surface, SMD
   Dimitrios Liakos       : Extrapolation schemes; Compound Job, initial MDCI parallelization
   Dimitrios Manganas     : Further ROCIS development; embedding schemes
   Dimitrios Pantazis     : SARC Basis sets
   Taras Petrenko         : DFT Hessian,TD-DFT gradient, ASA, ECA, R-Raman, ABS, FL, XAS/XES, NRVS
   Peter Pinski           : DLPNO-MP2, DLPNO-MP2 Gradient
   Christoph Reimann      : Effective Core Potentials
   Marius Retegan         : Local ZFS, SOC
   Christoph Riplinger    : Optimizer, TS searches, QM/MM, DLPNO-CCSD(T), (RO)-DLPNO pert. Triples
   Tobias Risthaus        : Range-separated hybrids, TD-DFT gradient, RPA, STAB
   Michael Roemelt        : Original ROCIS implementation
   Masaaki Saitow         : Open-shell DLPNO-CCSD energy and density
   Barbara Sandhoefer     : DKH picture change effects
   Avijit Sen             : IP-ROCIS
   Kantharuban Sivalingam : CASSCF convergence, NEVPT2, FIC-MRCI
   Bernardo de Souza      : ESD, SOC TD-DFT
   Georgi Stoychev        : AutoAux, RI-MP2 NMR
   Willem Van den Heuvel  : Paramagnetic NMR
   Boris Wezisla          : Elementary symmetry handling
   Frank Wennmohs         : Technical directorship


 We gratefully acknowledge several colleagues who have allowed us to
 interface, adapt or use parts of their codes:
   Stefan Grimme, W. Hujo, H. Kruse,             : VdW corrections, initial TS optimization,
                  C. Bannwarth                     DFT functionals, gCP, sTDA/sTD-DF
   Ed Valeev, F. Pavosevic, A. Kumar             : LibInt (2-el integral package), F12 methods
   Garnet Chan, S. Sharma, J. Yang, R. Olivares  : DMRG
   Ulf Ekstrom                                   : XCFun DFT Library
   Mihaly Kallay                                 : mrcc  (arbitrary order and MRCC methods)
   Andreas Klamt, Michael Diedenhofen            : otool_cosmo (COSMO solvation model)
   Jiri Pittner, Ondrej Demel                    : Mk-CCSD
   Frank Weinhold                                : gennbo (NPA and NBO analysis)
   Christopher J. Cramer and Donald G. Truhlar   : smd solvation model
   Lars Goerigk                                  : TD-DFT with DH, B97 family of functionals
   V. Asgeirsson, H. Jonsson                     : NEB implementation
   FAccTs GmbH                                   : IRC, NEB, NEB-TS, Multilevel, MM, QM/MM, CI optimization
   S Lehtola, MJT Oliveira, MAL Marques          : LibXC Library


 Your calculation uses the libint2 library for the computation of 2-el integrals
 For citations please refer to: http://libint.valeyev.net

 Your ORCA version has been built with support for libXC version: 4.2.3
 For citations please refer to: https://tddft.org/programs/libxc/

 This ORCA versions uses:
   CBLAS   interface :  Fast vector & matrix operations
   LAPACKE interface :  Fast linear algebra routines
   SCALAPACK package :  Parallel linear algebra routines


Your calculation utilizes the atom-pairwise dispersion correction
with the Becke-Johnson damping scheme (D3BJ)
Cite in your paper:
S.Grimme, S.Ehrlich, L.Goerigk, J Comput Chem, (2011), 32, 1456–1465 
S.Grimme, J.Antony, S.Ehrlich and H.Krieg, J.Chem.Phys., 132, (2010), 154104 
   

----- Orbital basis set information -----
Your calculation utilizes the basis: def2-TZVPPD
   F. Weigend and R. Ahlrichs, Phys. Chem. Chem. Phys. 7, 3297 (2005).
   D. Rappoport and F. Furche, J. Chem. Phys. 133 134105 (2010).

----- AuxC basis set information -----
Your calculation utilizes the auxiliary basis: def2-TZVPPD/C
   A. Hellweg, C. Hattig, S. Hofener and W. Klopper, Theor. Chem. Acc. 117, 587 (2007).

----- AuxJK basis set information -----
Your calculation utilizes the auxiliary basis: def2/JK
   H-Ba, Hf-Rn: F. Weigend, J. Comput. Chem. 29, 167 (2008).

cite the ECPs for Au [Def2-ECP] as follows:
Ce-Yb(ecp-28): M. Dolg, H. Stoll, H.Preuss, J. Chem. Phys., 1989, 90, 1730-1734.
Y-Cd(ecp-28), Hf-Hg(ecp-46): D. Andrae,U. Haeussermann, M. Dolg, H. Stoll, H. Preuss, Theor. Chim. Acta, 1990, 77, 123-141.
In-Sb(ecp-28), Tl-Bi(ecp-46): B. Metz, H. Stoll, M. Dolg, J. Chem. Phys., 2000, 113, 2563-2569.
Te-Xe(ecp-28), Po-Rn(ecp-46): K. A. Peterson, D. Figgen, E. Goll, H. Stoll, M. Dolg, J. Chem. Phys., 2003, 119, 11113-11123.
Rb(ecp-28), Cs(ecp-46): T. Leininger, A. Nicklass, W. Kuechle, H. Stoll, M. Dolg, A. Bergner, Chem. Phys. Lett., 1996, 255, 274-280.
Sr(ecp-28), Ba(ecp-46): M. Kaupp, P. V. Schleyer, H. Stoll and H. Preuss, J. Chem. Phys., 1991, 94, 1360-1366.
La(ecp-46): M. Dolg, H. Stoll, A. Savin, H. Preuss, Theor. Chim. Acta, 1989, 75, 173-194.
Lu(ecp-28): X. Cao, M. Dolg, J. Chem. Phys., 2001, 115, 7348-7355.

ECP parameters for Au [Def2-ECP] have been obtained from:
TURBOMOLE (7.0.2)

================================================================================
                                        WARNINGS
                       Please study these warnings very carefully!
================================================================================


WARNING: No MP2 level density has been requested!
         To caclulate MP2 level properties use
         %mp2 Density relaxed end
         or
         %mp2 Density unrelaxed end
         Otherwise for double-hybrid DFT only the energy is correct!

WARNING: The frozen-core approximation is turned on by default for 
         the MP2 part of double-hybrid DFT.

INFO   : the flag for use of LIBINT has been found!

================================================================================
                                       INPUT FILE
================================================================================
NAME = Au03C1_LIN.in
|  1> #
|  2> # Au03C1_LIN ri-B2PLYP-D3BJ/Def2-TZVPPD
|  3> #
|  4> ! rijk ri-b2plyp d3bj def2-tzvppd def2/jk def2-tzvppd/c grid4 nofinalgrid
|  5> 
|  6> *xyz 1 1
|  7> Au       0.000000    0.000000    0.000000 
|  8> Au       0.000000    0.000000    2.576864 
|  9> Au       0.000000    0.000000   -2.576864 
| 10> *
| 11> 
| 12> %maxcore 5000
| 13> 
| 14> %pal
| 15> nprocs = 24
| 16> end
| 17> 
| 18> 
| 19>                          ****END OF INPUT****
================================================================================

                       ****************************
                       * Single Point Calculation *
                       ****************************

---------------------------------
CARTESIAN COORDINATES (ANGSTROEM)
---------------------------------
  Au     0.000000    0.000000    0.000000
  Au     0.000000    0.000000    2.576864
  Au     0.000000    0.000000   -2.576864

----------------------------
CARTESIAN COORDINATES (A.U.)
----------------------------
  NO LB      ZA    FRAG     MASS         X           Y           Z
   0 Au   19.0000*   0   196.966    0.000000    0.000000    0.000000
   1 Au   19.0000*   0   196.966    0.000000    0.000000    4.869567
   2 Au   19.0000*   0   196.966    0.000000    0.000000   -4.869567
* core charge reduced due to ECP

--------------------------------
INTERNAL COORDINATES (ANGSTROEM)
--------------------------------
 Au     0   0   0     0.000000000000     0.00000000     0.00000000
 Au     1   0   0     2.576864000000     0.00000000     0.00000000
 Au     1   2   0     2.576864000000   179.99999915     0.00000000

---------------------------
INTERNAL COORDINATES (A.U.)
---------------------------
 Au     0   0   0     0.000000000000     0.00000000     0.00000000
 Au     1   0   0     4.869567244361     0.00000000     0.00000000
 Au     1   2   0     4.869567244361   179.99999915     0.00000000

---------------------
BASIS SET INFORMATION
---------------------
There are 1 groups of distinct atoms

 Group   1 Type Au  : 8s8p6d2f1g contracted to 6s5p3d2f1g pattern {311111/41111/411/11/1}

Atom   0Au   basis set group =>   1
Atom   1Au   basis set group =>   1
Atom   2Au   basis set group =>   1
---------------------------------
AUXILIARY/C BASIS SET INFORMATION
---------------------------------
There are 1 groups of distinct atoms

 Group   1 Type Au  : 9s9p8d5f4g3h1i contracted to 9s9p8d5f4g3h1i pattern {111111111/111111111/11111111/11111/1111/111/1}

Atom   0Au   basis set group =>   1
Atom   1Au   basis set group =>   1
Atom   2Au   basis set group =>   1
----------------------------------
AUXILIARY/JK BASIS SET INFORMATION
----------------------------------
There are 1 groups of distinct atoms

 Group   1 Type Au  : 13s12p11d9f5g3h2i contracted to 13s11p10d8f4g3h2i pattern {1111111111111/21111111111/2111111111/21111111/2111/111/11}

Atom   0Au   basis set group =>   1
Atom   1Au   basis set group =>   1
Atom   2Au   basis set group =>   1
-------------------------
ECP PARAMETER INFORMATION
-------------------------

 Group 1, Type Au ECP Def2-ECP (replacing 60 core electrons, lmax=3)

Atom   0Au   ECP group =>   1
Atom   1Au   ECP group =>   1
Atom   2Au   ECP group =>   1



           ************************************************************
           *        Program running with 24 parallel MPI-processes    *
           *              working on a common directory               *
           ************************************************************
------------------------------------------------------------------------------
                           ORCA GTO INTEGRAL CALCULATION
                           -- RI-GTO INTEGRALS CHOSEN --
------------------------------------------------------------------------------

                         BASIS SET STATISTICS AND STARTUP INFO

Gaussian basis set:
 # of primitive gaussian shells          ...   75
 # of primitive gaussian functions       ...  255
 # of contracted shells                  ...   51
 # of contracted basis functions         ...  177
 Highest angular momentum                ...    4
 Maximum contraction depth               ...    4
Auxiliary gaussian basis set:
 # of primitive gaussian shells          ...  165
 # of primitive gaussian functions       ...  813
 # of contracted shells                  ...  153
 # of contracted aux-basis functions     ...  741
 Highest angular momentum                ...    6
 Maximum contraction depth               ...    2
Ratio of auxiliary to basis functions    ...  4.19
Integral package used                  ... LIBINT
 One Electron integrals                  
   ECP integrals                         ... done
 Ordering auxiliary basis shells         ... done
 Integral threshhold             Thresh  ...  1.000e-10
 Primitive cut-off               TCut    ...  1.000e-11
 Pre-screening matrix                    ... done
 Shell pair data                         ... 
 Ordering of the shell pairs             ... done (   0.000 sec) 1213 of 1326 pairs
 Determination of significant pairs      ... done (   0.000 sec)
 Creation of shell pair data             ... done (   0.000 sec)
 Storage of shell pair data              ... done (   0.005 sec)
 Shell pair data done in (   0.005 sec)
 Computing two index integrals           ... done
 Cholesky decomposition of the V-matrix  ... done


Timings:
 Total evaluation time                   ...   0.711 sec (  0.012 min)
 One electron matrix time                ...   0.377 sec (  0.006 min) = 53.0%
 Schwartz matrix evaluation time         ...   0.143 sec (  0.002 min) = 20.1%
 Two index repulsion integral time       ...   0.146 sec (  0.002 min) = 20.5%
 Cholesky decomposition of V             ...   0.009 sec (  0.000 min) =  1.2%
 Three index repulsion integral time     ...   0.000 sec (  0.000 min) =  0.0%



           ************************************************************
           *        Program running with 24 parallel MPI-processes    *
           *              working on a common directory               *
           ************************************************************
-------------------------------------------------------------------------------
                                 ORCA SCF
-------------------------------------------------------------------------------

------------
SCF SETTINGS
------------
Hamiltonian:
 Density Functional     Method          .... DFT(GTOs)
 Exchange Functional    Exchange        .... B88
   X-Alpha parameter    XAlpha          ....  0.666667
   Becke's b parameter  XBeta           ....  0.004200
 Correlation Functional Correlation     .... LYP
 LDA part of GGA corr.  LDAOpt          .... VWN-3
 Gradients option       PostSCFGGA      .... off
 Hybrid DFT is turned on
   Fraction HF Exchange ScalHFX         ....  0.530000
   Scaling of DF-GGA-X  ScalDFX         ....  0.470000
   Scaling of DF-GGA-C  ScalDFC         ....  0.730000
   Scaling of DF-LDA-C  ScalLDAC        ....  0.730000
   Perturbative correction              ....  0.270000
   Density functional embedding theory  .... OFF
 RI-approximation to the Coulomb term is turned on
   Number of auxiliary basis functions  .... 741
   RI-JK (J+K treated both via RI)      .... on


General Settings:
 Integral files         IntName         .... Au03C1_LIN
 Hartree-Fock type      HFTyp           .... RHF
 Total Charge           Charge          ....    1
 Multiplicity           Mult            ....    1
 Number of Electrons    NEL             ....   56
 Basis Dimension        Dim             ....  177
 Nuclear Repulsion      ENuc            ....    185.3347442825 Eh

Convergence Acceleration:
 DIIS                   CNVDIIS         .... on
   Start iteration      DIISMaxIt       ....    12
   Startup error        DIISStart       ....  0.200000
   # of expansion vecs  DIISMaxEq       ....     5
   Bias factor          DIISBfac        ....   1.050
   Max. coefficient     DIISMaxC        ....  10.000
 Newton-Raphson         CNVNR           .... off
 SOSCF                  CNVSOSCF        .... off
 Level Shifting         CNVShift        .... on
   Level shift para.    LevelShift      ....    0.2500
   Turn off err/grad.   ShiftErr        ....    0.0010
 Zerner damping         CNVZerner       .... off
 Static damping         CNVDamp         .... on
   Fraction old density DampFac         ....    0.7000
   Max. Damping (<1)    DampMax         ....    0.9800
   Min. Damping (>=0)   DampMin         ....    0.0000
   Turn off err/grad.   DampErr         ....    0.1000
 Fernandez-Rico         CNVRico         .... off

SCF Procedure:
 Maximum # iterations   MaxIter         ....   125
 SCF integral mode      SCFMode         .... Direct
   Integral package                     .... LIBINT
 Reset frequency        DirectResetFreq ....    20
 Integral Threshold     Thresh          ....  1.000e-10 Eh
 Primitive CutOff       TCut            ....  1.000e-11 Eh

Convergence Tolerance:
 Convergence Check Mode ConvCheckMode   .... Total+1el-Energy
 Convergence forced     ConvForced      .... 0
 Energy Change          TolE            ....  1.000e-06 Eh
 1-El. energy change                    ....  1.000e-03 Eh
 DIIS Error             TolErr          ....  1.000e-06


Diagonalization of the overlap matrix:
Smallest eigenvalue                        ... 7.965e-04
Time for diagonalization                   ...    0.005 sec
Threshold for overlap eigenvalues          ... 1.000e-08
Number of eigenvalues below threshold      ... 0
Time for construction of square roots      ...    0.004 sec
Total time needed                          ...    0.009 sec

-------------------
DFT GRID GENERATION
-------------------

General Integration Accuracy     IntAcc      ...  4.670
Radial Grid Type                 RadialGrid  ... Gauss-Chebyshev
Angular Grid (max. acc.)         AngularGrid ... Lebedev-302
Angular grid pruning method      GridPruning ... 3 (G Style)
Weight generation scheme         WeightScheme... Becke
Basis function cutoff            BFCut       ...    1.0000e-10
Integration weight cutoff        WCut        ...    1.0000e-14
Grids for H and He will be reduced by one unit

# of grid points (after initial pruning)     ...  34956 (   0.0 sec)
# of grid points (after weights+screening)   ...  34728 (   0.0 sec)
nearest neighbour list constructed           ...    0.0 sec
Grid point re-assignment to atoms done       ...    0.0 sec
Grid point division into batches done        ...    0.3 sec
Reduced shell lists constructed in    0.4 sec

Total number of grid points                  ...    34728
Total number of batches                      ...      545
Average number of points per batch           ...       63
Average number of grid points per atom       ...    11576
Average number of shells per batch           ...    12.79 (25.08%)
Average number of basis functions per batch  ...    38.21 (21.59%)
Average number of large shells per batch     ...    10.21 (79.80%)
Average number of large basis fcns per batch ...    27.62 (72.30%)
Average number of aux-shells per batch       ...    12.79 ( 8.36%)
Average number of aux functions per batch    ...    38.21 ( 5.16%)
Maximum spatial batch extension              ...  37.74, 37.74,  4.83 au
Average spatial batch extension              ...   0.54,  0.53,  0.19 au

Time for grid setup =    0.419 sec

------------------------------
INITIAL GUESS: MODEL POTENTIAL
------------------------------
Loading Hartree-Fock densities                     ... done
  calling /sw/apps/orca/orca_4_2_0_linux_x86-64_openmpi314/orca Au03C1_LIN_atom79.inp > Au03C1_LIN_atom79.out in order to generate an atomic fitting density for atom 0 (Au with ECP) on-the-fly... 
    atom 0 (Au), assumed electronic state with S=2: 1s2 2s2 2p6 3s2 3p6 4s2 3d10 4p6 5s2 4d10 5p6 6s1 4f14 5d10           ... done
Calculating cut-offs                               ... done
Setting up the integral package                    ... done
Initializing the effective Hamiltonian             ... done
Starting the Coulomb interaction                   ... done (   0.0 sec)
Reading the grid                                   ... done
Mapping shells                                     ... done
Starting the XC term evaluation                    ... done (   0.0 sec)
  promolecular density results
     # of electrons  =    237.007918883
     EX              =  -1102.045317074
     EC              =     -4.796678323
     EX+EC           =  -1106.841995398
Transforming the Hamiltonian                       ... done (   0.0 sec)
Diagonalizing the Hamiltonian                      ... done (   0.0 sec)
Back transforming the eigenvectors                 ... done (   0.0 sec)
Now organizing SCF variables                       ... done
                      ------------------
                      INITIAL GUESS DONE (   1.5 sec)
                      ------------------
--------------
SCF ITERATIONS
--------------
ITER       Energy         Delta-E        Max-DP      RMS-DP      [F,P]     Damp
  0   -405.6702282253   0.000000000000 0.28053260  0.00338171  0.5619347 0.7000
  1   -405.6367018106   0.033526414678 0.21493033  0.00270362  0.4077480 0.7000
  2   -405.7326152276  -0.095913417011 0.13738196  0.00181775  0.2817731 0.7000
                               ***Turning on DIIS***
  3   -405.8351155637  -0.102500336070 0.08658389  0.00123982  0.1941756 0.7000
  4   -405.8971596931  -0.062044129406 0.06068024  0.00092294  0.1341030 0.7000
  5   -405.9298436880  -0.032683994956 0.14846568  0.00245789  0.0936038 0.0000
  6   -405.9388494775  -0.009005789458 0.02255522  0.00032383  0.0167845 0.0000
  7   -405.9401149253  -0.001265447835 0.01067294  0.00012944  0.0055106 0.0000
  8   -405.9402300956  -0.000115170296 0.00400533  0.00006044  0.0013711 0.0000
  9   -405.9402517681  -0.000021672497 0.00536450  0.00007940  0.0009424 0.0000
 10   -405.9402678030  -0.000016034835 0.00092931  0.00001881  0.0003852 0.0000
 11   -405.9402695145  -0.000001711546 0.00046130  0.00000920  0.0001699 0.0000
                 **** Energy Check signals convergence ****

               *****************************************************
               *                     SUCCESS                       *
               *           SCF CONVERGED AFTER  12 CYCLES          *
               *****************************************************


----------------
TOTAL SCF ENERGY
----------------

Total Energy       :         -405.94026983 Eh          -11046.19632 eV

Components:
Nuclear Repulsion  :          185.33474428 Eh            5043.21478 eV
Electronic Energy  :         -591.27501411 Eh          -16089.41110 eV
One Electron Energy:        -1075.82982510 Eh          -29274.81784 eV
Two Electron Energy:          484.55481099 Eh           13185.40674 eV

Virial components:
Potential Energy   :         -544.02516587 Eh          -14803.67737 eV
Kinetic Energy     :          138.08489604 Eh            3757.48105 eV
Virial Ratio       :            3.93978763


DFT components:
N(Alpha)           :       27.999993455294 electrons
N(Beta)            :       27.999993455294 electrons
N(Total)           :       55.999986910588 electrons
E(X)               :      -17.073346638291 Eh       
E(C)               :       -1.490291973545 Eh       
E(XC)              :      -18.563638611836 Eh       
DFET-embed. en.    :        0.000000000000 Eh       

---------------
SCF CONVERGENCE
---------------

  Last Energy change         ...   -3.1538e-07  Tolerance :   1.0000e-06
  Last MAX-Density change    ...    1.8282e-04  Tolerance :   1.0000e-05
  Last RMS-Density change    ...    2.3564e-06  Tolerance :   1.0000e-06
  Last DIIS Error            ...    3.6372e-05  Tolerance :   1.0000e-06

             **** THE GBW FILE WAS UPDATED (Au03C1_LIN.gbw) ****
             **** DENSITY FILE WAS UPDATED (Au03C1_LIN.scfp) ****
             **** ENERGY FILE WAS UPDATED (Au03C1_LIN.en.tmp) ****
             **** THE GBW FILE WAS UPDATED (Au03C1_LIN.gbw) ****
             **** DENSITY FILE WAS UPDATED (Au03C1_LIN.scfp) ****
----------------
ORBITAL ENERGIES
----------------

  NO   OCC          E(Eh)            E(eV) 
   0   2.0000      -4.580572      -124.6437 
   1   2.0000      -4.580570      -124.6436 
   2   2.0000      -4.539295      -123.5205 
   3   2.0000      -2.705761       -73.6275 
   4   2.0000      -2.704489       -73.5929 
   5   2.0000      -2.699816       -73.4657 
   6   2.0000      -2.699816       -73.4657 
   7   2.0000      -2.699782       -73.4648 
   8   2.0000      -2.699782       -73.4648 
   9   2.0000      -2.664167       -72.4957 
  10   2.0000      -2.652868       -72.1882 
  11   2.0000      -2.652868       -72.1882 
  12   2.0000      -0.645583       -17.5672 
  13   2.0000      -0.604679       -16.4542 
  14   2.0000      -0.604679       -16.4542 
  15   2.0000      -0.585723       -15.9383 
  16   2.0000      -0.582604       -15.8535 
  17   2.0000      -0.582604       -15.8535 
  18   2.0000      -0.575672       -15.6648 
  19   2.0000      -0.575666       -15.6647 
  20   2.0000      -0.574629       -15.6364 
  21   2.0000      -0.574623       -15.6363 
  22   2.0000      -0.524106       -14.2617 
  23   2.0000      -0.524098       -14.2614 
  24   2.0000      -0.514616       -14.0034 
  25   2.0000      -0.514616       -14.0034 
  26   2.0000      -0.504283       -13.7222 
  27   2.0000      -0.452323       -12.3083 
  28   0.0000      -0.331931        -9.0323 
  29   0.0000      -0.214775        -5.8443 
  30   0.0000      -0.154687        -4.2093 
  31   0.0000      -0.154687        -4.2093 
  32   0.0000      -0.123359        -3.3568 
  33   0.0000      -0.109381        -2.9764 
  34   0.0000      -0.109381        -2.9764 
  35   0.0000      -0.038567        -1.0495 
  36   0.0000      -0.038567        -1.0495 
  37   0.0000      -0.017219        -0.4686 
  38   0.0000       0.005923         0.1612 
  39   0.0000       0.022172         0.6033 
  40   0.0000       0.064064         1.7433 
  41   0.0000       0.065532         1.7832 
  42   0.0000       0.065532         1.7832 
  43   0.0000       0.101648         2.7660 
  44   0.0000       0.101648         2.7660 
  45   0.0000       0.109713         2.9855 
  46   0.0000       0.151955         4.1349 
  47   0.0000       0.151956         4.1349 
  48   0.0000       0.155423         4.2293 
  49   0.0000       0.155423         4.2293 
  50   0.0000       0.182781         4.9737 
  51   0.0000       0.182781         4.9737 
  52   0.0000       0.184690         5.0257 
  53   0.0000       0.210257         5.7214 
  54   0.0000       0.213017         5.7965 
  55   0.0000       0.213017         5.7965 
  56   0.0000       0.273710         7.4480 
  57   0.0000       0.273710         7.4480 
  58   0.0000       0.297912         8.1066 
  59   0.0000       0.308459         8.3936 
  60   0.0000       0.308459         8.3936 
  61   0.0000       0.402755        10.9595 
  62   0.0000       0.443366        12.0646 
  63   0.0000       0.443366        12.0646 
  64   0.0000       0.485033        13.1984 
  65   0.0000       0.533881        14.5276 
  66   0.0000       0.737015        20.0552 
  67   0.0000       0.841973        22.9112 
  68   0.0000       0.841973        22.9112 
  69   0.0000       0.941852        25.6291 
  70   0.0000       0.952274        25.9127 
  71   0.0000       0.952275        25.9127 
  72   0.0000       0.957784        26.0626 
  73   0.0000       0.957784        26.0626 
  74   0.0000       0.979119        26.6432 
  75   0.0000       0.979119        26.6432 
  76   0.0000       1.016714        27.6662 
  77   0.0000       1.016714        27.6662 
  78   0.0000       1.018751        27.7216 
  79   0.0000       1.018751        27.7216 
  80   0.0000       1.028890        27.9975 
  81   0.0000       1.028890        27.9975 
  82   0.0000       1.033219        28.1153 
  83   0.0000       1.033219        28.1153 
  84   0.0000       1.074146        29.2290 
  85   0.0000       1.074146        29.2290 
  86   0.0000       1.089229        29.6394 
  87   0.0000       1.133343        30.8398 
  88   0.0000       1.133345        30.8399 
  89   0.0000       1.145941        31.1826 
  90   0.0000       1.145941        31.1826 
  91   0.0000       1.176354        32.0102 
  92   0.0000       1.303833        35.4791 
  93   0.0000       1.303833        35.4791 
  94   0.0000       1.355988        36.8983 
  95   0.0000       1.358294        36.9611 
  96   0.0000       1.358294        36.9611 
  97   0.0000       1.369632        37.2696 
  98   0.0000       1.392642        37.8957 
  99   0.0000       1.392650        37.8959 
 100   0.0000       1.403329        38.1865 
 101   0.0000       1.403335        38.1867 
 102   0.0000       1.442449        39.2510 
 103   0.0000       1.479212        40.2514 
 104   0.0000       1.479221        40.2516 
 105   0.0000       1.558084        42.3976 
 106   0.0000       1.558084        42.3976 
 107   0.0000       1.657653        45.1070 
 108   0.0000       1.657653        45.1070 
 109   0.0000       1.817044        49.4443 
 110   0.0000       1.998739        54.3885 
 111   0.0000       2.067035        56.2469 
 112   0.0000       2.349954        63.9455 
 113   0.0000       2.727420        74.2169 
 114   0.0000       3.471988        94.4776 
 115   0.0000       3.471988        94.4776 
 116   0.0000       3.506207        95.4087 
 117   0.0000       3.506294        95.4111 
 118   0.0000       3.556669        96.7819 
 119   0.0000       3.556669        96.7819 
 120   0.0000       3.558307        96.8264 
 121   0.0000       3.558307        96.8264 
 122   0.0000       3.563690        96.9729 
 123   0.0000       3.563769        96.9751 
 124   0.0000       3.609724        98.2256 
 125   0.0000       3.609724        98.2256 
 126   0.0000       3.627948        98.7215 
 127   0.0000       3.627948        98.7215 
 128   0.0000       3.668628        99.8284 
 129   0.0000       3.668738        99.8314 
 130   0.0000       3.696887       100.5974 
 131   0.0000       3.774265       102.7030 
 132   0.0000       3.865676       105.1904 
 133   0.0000       3.865676       105.1904 
 134   0.0000       3.966504       107.9341 
 135   0.0000       4.090377       111.3048 
 136   0.0000       4.090377       111.3048 
 137   0.0000       4.091953       111.3477 
 138   0.0000       4.091998       111.3489 
 139   0.0000       4.095152       111.4347 
 140   0.0000       4.095152       111.4347 
 141   0.0000       4.095219       111.4366 
 142   0.0000       4.095219       111.4366 
 143   0.0000       4.095909       111.4553 
 144   0.0000       4.095951       111.4565 
 145   0.0000       4.096147       111.4618 
 146   0.0000       4.098033       111.5131 
 147   0.0000       4.098033       111.5131 
 148   0.0000       4.098307       111.5206 
 149   0.0000       4.098307       111.5206 
 150   0.0000       4.142133       112.7132 
 151   0.0000       4.142205       112.7151 
 152   0.0000       4.145710       112.8105 
 153   0.0000       4.145710       112.8105 
 154   0.0000       4.154955       113.0621 
 155   0.0000       4.155340       113.0726 
 156   0.0000       4.166806       113.3846 
 157   0.0000       4.166806       113.3846 
 158   0.0000       4.200150       114.2919 
 159   0.0000       4.200150       114.2919 
 160   0.0000       4.393995       119.5667 
 161   0.0000       4.412677       120.0751 
 162   0.0000      26.988564       734.3962 
 163   0.0000      26.988564       734.3962 
 164   0.0000      27.291375       742.6361 
 165   0.0000      27.291375       742.6361 
 166   0.0000      27.528382       749.0854 
 167   0.0000      27.528382       749.0854 
 168   0.0000      27.855658       757.9910 
 169   0.0000      28.115983       765.0748 
 170   0.0000      30.805359       838.2564 
 171   0.0000      43.740572      1190.2415 
 172   0.0000      44.016592      1197.7524 
 173   0.0000      44.433703      1209.1025 
 174   0.0000     202.424616      5508.2538 
 175   0.0000     202.539523      5511.3806 
 176   0.0000     202.729278      5516.5441 

                    ********************************
                    * MULLIKEN POPULATION ANALYSIS *
                    ********************************

-----------------------
MULLIKEN ATOMIC CHARGES
-----------------------
   0 Au:   -0.037566
   1 Au:    0.518786
   2 Au:    0.518780
Sum of atomic charges:    1.0000000

--------------------------------
MULLIKEN REDUCED ORBITAL CHARGES
--------------------------------
  0 Aus       :     3.116192  s :     3.116192
      pz      :     2.020291  p :     6.038481
      px      :     2.009095
      py      :     2.009095
      dz2     :     1.910571  d :     9.872145
      dxz     :     1.981532
      dyz     :     1.981532
      dx2y2   :     1.999255
      dxy     :     1.999255
      f0      :     0.004313  f :     0.010502
      f+1     :     0.002862
      f-1     :     0.002862
      f+2     :     0.000233
      f-2     :     0.000233
      f+3     :     0.000000
      f-3     :     0.000000
      g0      :     0.000101  g :     0.000246
      g+1     :     0.000061
      g-1     :     0.000061
      g+2     :     0.000011
      g-2     :     0.000011
      g+3     :     0.000000
      g-3     :     0.000000
      g+4     :     0.000000
      g-4     :     0.000000
  1 Aus       :     2.469930  s :     2.469930
      pz      :     2.046272  p :     6.061834
      px      :     2.007781
      py      :     2.007781
      dz2     :     1.955661  d :     9.943131
      dxz     :     1.993660
      dyz     :     1.993660
      dx2y2   :     2.000075
      dxy     :     2.000075
      f0      :     0.002359  f :     0.006217
      f+1     :     0.001757
      f-1     :     0.001757
      f+2     :     0.000172
      f-2     :     0.000172
      f+3     :     0.000000
      f-3     :     0.000000
      g0      :     0.000041  g :     0.000101
      g+1     :     0.000027
      g-1     :     0.000027
      g+2     :     0.000004
      g-2     :     0.000004
      g+3     :     0.000000
      g-3     :     0.000000
      g+4     :     0.000000
      g-4     :     0.000000
  2 Aus       :     2.469935  s :     2.469935
      pz      :     2.046273  p :     6.061835
      px      :     2.007781
      py      :     2.007781
      dz2     :     1.955662  d :     9.943131
      dxz     :     1.993660
      dyz     :     1.993660
      dx2y2   :     2.000075
      dxy     :     2.000075
      f0      :     0.002359  f :     0.006217
      f+1     :     0.001757
      f-1     :     0.001757
      f+2     :     0.000172
      f-2     :     0.000172
      f+3     :     0.000000
      f-3     :     0.000000
      g0      :     0.000041  g :     0.000101
      g+1     :     0.000027
      g-1     :     0.000027
      g+2     :     0.000004
      g-2     :     0.000004
      g+3     :     0.000000
      g-3     :     0.000000
      g+4     :     0.000000
      g-4     :     0.000000


                     *******************************
                     * LOEWDIN POPULATION ANALYSIS *
                     *******************************

----------------------
LOEWDIN ATOMIC CHARGES
----------------------
   0 Au:    0.127444
   1 Au:    0.436278
   2 Au:    0.436278

-------------------------------
LOEWDIN REDUCED ORBITAL CHARGES
-------------------------------
  0 Aus       :     2.860072  s :     2.860072
      pz      :     2.038519  p :     6.065823
      px      :     2.013652
      py      :     2.013652
      dz2     :     1.986295  d :     9.926615
      dxz     :     1.971138
      dyz     :     1.971138
      dx2y2   :     1.999022
      dxy     :     1.999022
      f0      :     0.009812  f :     0.019708
      f+1     :     0.004645
      f-1     :     0.004645
      f+2     :     0.000303
      f-2     :     0.000303
      f+3     :     0.000000
      f-3     :     0.000000
      g0      :     0.000150  g :     0.000338
      g+1     :     0.000082
      g-1     :     0.000082
      g+2     :     0.000012
      g-2     :     0.000012
      g+3     :     0.000000
      g-3     :     0.000000
      g+4     :     0.000000
      g-4     :     0.000000
  1 Aus       :     2.446794  s :     2.446794
      pz      :     2.114212  p :     6.137742
      px      :     2.011765
      py      :     2.011765
      dz2     :     1.986842  d :     9.968253
      dxz     :     1.990592
      dyz     :     1.990592
      dx2y2   :     2.000114
      dxy     :     2.000114
      f0      :     0.004662  f :     0.010782
      f+1     :     0.002847
      f-1     :     0.002847
      f+2     :     0.000213
      f-2     :     0.000213
      f+3     :     0.000000
      f-3     :     0.000000
      g0      :     0.000067  g :     0.000151
      g+1     :     0.000038
      g-1     :     0.000038
      g+2     :     0.000004
      g-2     :     0.000004
      g+3     :     0.000000
      g-3     :     0.000000
      g+4     :     0.000000
      g-4     :     0.000000
  2 Aus       :     2.446794  s :     2.446794
      pz      :     2.114212  p :     6.137742
      px      :     2.011765
      py      :     2.011765
      dz2     :     1.986842  d :     9.968253
      dxz     :     1.990592
      dyz     :     1.990592
      dx2y2   :     2.000114
      dxy     :     2.000114
      f0      :     0.004662  f :     0.010782
      f+1     :     0.002847
      f-1     :     0.002847
      f+2     :     0.000213
      f-2     :     0.000213
      f+3     :     0.000000
      f-3     :     0.000000
      g0      :     0.000067  g :     0.000151
      g+1     :     0.000038
      g-1     :     0.000038
      g+2     :     0.000004
      g-2     :     0.000004
      g+3     :     0.000000
      g-3     :     0.000000
      g+4     :     0.000000
      g-4     :     0.000000


                      *****************************
                      * MAYER POPULATION ANALYSIS *
                      *****************************

  NA   - Mulliken gross atomic population
  ZA   - Total nuclear charge
  QA   - Mulliken gross atomic charge
  VA   - Mayer's total valence
  BVA  - Mayer's bonded valence
  FA   - Mayer's free valence

  ATOM       NA         ZA         QA         VA         BVA        FA
  0 Au    19.0376    19.0000    -0.0376     1.2219     1.2219     0.0000
  1 Au    18.4812    19.0000     0.5188     0.9085     0.9085    -0.0000
  2 Au    18.4812    19.0000     0.5188     0.9085     0.9085    -0.0000

  Mayer bond orders larger than 0.100000
B(  0-Au,  1-Au) :   0.6110 B(  0-Au,  2-Au) :   0.6110 B(  1-Au,  2-Au) :   0.2975 


-------
TIMINGS
-------

Total SCF time: 0 days 0 hours 0 min 5 sec 

Total time                  ....       5.020 sec
Sum of individual times     ....       4.886 sec  ( 97.3%)

Fock matrix formation       ....       3.307 sec  ( 65.9%)
  XC integration            ....       0.566 sec  ( 17.1% of F)
    Basis function eval.    ....       0.052 sec  (  9.2% of XC)
    Density eval.           ....       0.034 sec  (  6.0% of XC)
    XC-Functional eval.     ....       0.013 sec  (  2.3% of XC)
    XC-Potential eval.      ....       0.058 sec  ( 10.3% of XC)
Diagonalization             ....       0.055 sec  (  1.1%)
Density matrix formation    ....       0.009 sec  (  0.2%)
Population analysis         ....       0.005 sec  (  0.1%)
Initial guess               ....       1.067 sec  ( 21.3%)
Orbital Transformation      ....       0.000 sec  (  0.0%)
Orbital Orthonormalization  ....       0.000 sec  (  0.0%)
DIIS solution               ....       0.024 sec  (  0.5%)
Grid generation             ....       0.419 sec  (  8.3%)


           ************************************************************
           *        Program running with 24 parallel MPI-processes    *
           *              working on a common directory               *
           ************************************************************

------------------------------------------------------------------------------
                                ORCA  MP2 
------------------------------------------------------------------------------

Freezing NCore=0 chemical core electrons

-------------
RI-MP2 ENERGY
-------------
Dimension of the basis                    ...  177
Memory devoted to MP2                     ... 5000 MB   
Data format for buffers                   ... DOUBLE
Compression type for matrix containers    ... UNCOMPRESSED
Overall scaling of the MP2 energy         ...   2.700e-01
Calculating two index integrals           ... done (    0.009 sec)
Cholesky decomposition of V**-1           ... done (    0.016 sec)

-----------------
RI-TRANSFORMATION (AUX index driven)
-----------------

Dimension of the orbital-basis         ... 177
Dimension of the aux-basis             ... 579
Transformation of internal/external MOs...    0-  27 to   28- 176
Number Format for Storage              ... Double (8 Byte)
Integral mode                          ... Direct

First Phase: integral generation and transformation of MO indices
  Aux angular momentum 0               ... done (    0.002 sec)
  Aux angular momentum 1               ... done (    0.003 sec)
  Aux angular momentum 2               ... done (    0.002 sec)
  Aux angular momentum 3               ... done (    0.003 sec)
  Aux angular momentum 4               ... done (    0.005 sec)
  Aux angular momentum 5               ... done (    0.007 sec)
  Aux angular momentum 6               ... done (    0.011 sec)
Closing buffer VIA ( 0.02 GB; CompressionRatio= 1.00)
  Phase 1 completed in     0.104 sec
Second Phase: sorting and transformation of aux index

IA-Transformation
Memory available                       ... 4996 MB 
Max. # MO pairs treated in a batch     ... 2    
# of internal orbitals                 ... 28
# batches for internal orbitals        ... 1
Closing buffer IAV ( 0.00 GB; CompressionRatio= 1.00)
(ia|v) transformation done in     0.012 sec

  Phase 2 completed in     0.030 sec
RI-Integral transformation completed in     0.134 sec
Opening buffers                              ... done

Starting loop over batches of integrals:

Operator 0  - window                       ... (  0- 27)x( 28-176)
Operator 0  - Memory available             ...  5000 MB
Operator 0  - Memory needed per MO         ...   0.7 MB
Operator 0  - Number of orbitals per batch ... 2
Operator 0  - Number of batches            ... 1

OPERATOR  0   PASS   0:  MOs     0 ...    1 +    2 ...    3 +    4 ...    5 +    6 ...    7
                            +    8 ...    9 +   10 ...   11 +   12 ...   13 +   14 ...   15
                            +   16 ...   17 +   18 ...   19 +   20 ...   21 +   22 ...   23
                            +   24 ...   25 +   26 ...   27
  Reading integrals       ... ok
Time spent in pair loops =     0.004 sec

-----------------------------------------------
 RI-MP2 CORRELATION ENERGY:     -0.567785211 Eh
-----------------------------------------------


-------
TIMINGS
-------

Total time                :    0.217 sec
Integral trafo            :    0.150 sec ( 69.0%)
I/O of integrals          :    0.001 sec (  0.4%)
K(i,j) Operators          :    0.002 sec (  0.7%)
T(i,j) pair energies      :    0.000 sec (  0.1%)
V-calculation             :    0.009 sec (  4.2%)
V**(-1/2)                 :    0.016 sec (  7.3%)
Gamma(ia|P)               :    0.000 sec (  0.0%)
Gamma-Trafo               :    0.000 sec (  0.0%)
D(virtual)                :    0.000 sec (  0.0%)
D(internal)               :    0.000 sec (  0.0%)
W(virtual)                :    0.000 sec (  0.0%)
W(internal)               :    0.000 sec (  0.0%)
L(virtual)                :    0.000 sec (  0.0%)
L(internal)               :    0.000 sec (  0.0%)
G(D)                      :    0.000 sec (  0.0%)
G(Z)                      :    0.000 sec (  0.0%)
Z-Vector Solution         :    0.000 sec (  0.0%)
Z-Vector Solution         :    0.000 sec (  0.0%)
3-Index Derivative 
+ Separable RIJ part      :    0.000 sec (  0.0%)
2-Index Derivative 
+ Separable RIJ part      :    0.000 sec (  0.0%)
Separable Gradient (X)    :    0.000 sec (  0.0%)


---------------------------------------
MP2 TOTAL ENERGY:     -406.508055041 Eh
---------------------------------------


-------------------------------------------------------------------------------
                          DFT DISPERSION CORRECTION                            
                                                                               
                              DFTD3 V3.1  Rev 1                                
                          USING Becke-Johnson damping                          
-------------------------------------------------------------------------------
The B2PLYP functional is recognized
Active option DFTDOPT                   ...         4   

molecular C6(AA) [au] = 2858.544030 


            DFT-D V3
 parameters
 s6 scaling factor         :     0.6400 
 a1 scaling factor         :     0.3065 
 s8 scaling factor         :     0.9147 
 a2 scaling factor         :     5.0570 
 ad hoc parameters k1-k3   :    16.0000     1.3333    -4.0000 

 Edisp/kcal,au: -3.077197092629  -0.004903825188 
 E6   /kcal   :  -0.983198918 
 E8   /kcal   :  -2.093998174 
 % E8         :  68.048880569 

-------------------------   ----------------
Dispersion correction           -0.004903825
-------------------------   ----------------


-------------------------   --------------------
FINAL SINGLE POINT ENERGY      -406.512958865794
-------------------------   --------------------


                            ***************************************
                            *     ORCA property calculations      *
                            ***************************************


  WARNING: The energy has been calculated at the MP2 level but the densities
           used in the property calculations are still SCF densities
           MP2 response densities have not been calculated 
           use %mp2 Density relaxed end
           or  %mp2 Density unrelaxed end

                                    ---------------------
                                    Active property flags
                                    ---------------------
   (+) Dipole Moment


------------------------------------------------------------------------------
                       ORCA ELECTRIC PROPERTIES CALCULATION
------------------------------------------------------------------------------

Dipole Moment Calculation                       ... on
Quadrupole Moment Calculation                   ... off
Polarizability Calculation                      ... off
GBWName                                         ... Au03C1_LIN.gbw
Electron density file                           ... Au03C1_LIN.scfp
The origin for moment calculation is the CENTER OF MASS  = ( 0.000000,  0.000000  0.000000)

-------------
DIPOLE MOMENT
-------------
                                X             Y             Z
Electronic contribution:     -0.00000      -0.00000      -0.00000
Nuclear contribution   :      0.00000       0.00000       0.00000
                        -----------------------------------------
Total Dipole Moment    :     -0.00000      -0.00000      -0.00000
                        -----------------------------------------
Magnitude (a.u.)       :      0.00000
Magnitude (Debye)      :      0.00000



--------------------
Rotational spectrum 
--------------------
 
Rotational constants in cm-1:     0.000000     0.006445     0.006445 
Rotational constants in MHz :     0.000000   193.202279   193.202279 

 Dipole components along the rotational axes: 
x,y,z [a.u.] :    -0.000000    -0.000000    -0.000000 
x,y,z [Debye]:    -0.000001    -0.000000    -0.000000 

 

Timings for individual modules:

Sum of individual times         ...        7.110 sec (=   0.118 min)
GTO integral calculation        ...        1.065 sec (=   0.018 min)  15.0 %
SCF iterations                  ...        5.350 sec (=   0.089 min)  75.3 %
MP2 module                      ...        0.695 sec (=   0.012 min)   9.8 %
                             ****ORCA TERMINATED NORMALLY****
TOTAL RUN TIME: 0 days 0 hours 0 minutes 7 seconds 626 msec
