
                                 *****************
                                 * O   R   C   A *
                                 *****************

           --- An Ab Initio, DFT and Semiempirical electronic structure package ---

                  #######################################################
                  #                        -***-                        #
                  #          Department of theory and spectroscopy      #
                  #               Directorship: Frank Neese             #
                  #        Max Planck Institute fuer Kohlenforschung    #
                  #                Kaiser Wilhelm Platz 1               #
                  #                 D-45470 Muelheim/Ruhr               #
                  #                      Germany                        #
                  #                                                     #
                  #                  All rights reserved                #
                  #                        -***-                        #
                  #######################################################


                         Program Version 4.2.0 -  RELEASE  -


 With contributions from (in alphabetic order):
   Daniel Aravena         : Magnetic Suceptibility
   Michael Atanasov       : Ab Initio Ligand Field Theory (pilot matlab implementation)
   Alexander A. Auer      : GIAO ZORA, VPT2
   Ute Becker             : Parallelization
   Giovanni Bistoni       : ED, misc. LED, open-shell LED, HFLED
   Martin Brehm           : Molecular dynamics
   Dmytro Bykov           : SCF Hessian
   Vijay G. Chilkuri      : MRCI spin determinant printing, contributions to CSF-ICE
   Dipayan Datta          : RHF DLPNO-CCSD density
   Achintya Kumar Dutta   : EOM-CC, STEOM-CC
   Dmitry Ganyushin       : Spin-Orbit,Spin-Spin,Magnetic field MRCI
   Miquel Garcia          : C-PCM Hessian, Gaussian charge scheme
   Yang Guo               : DLPNO-NEVPT2, CIM, IAO-localization
   Andreas Hansen         : Spin unrestricted coupled pair/coupled cluster methods
   Benjamin Helmich-Paris : CASSCF linear response (MC-RPA)
   Lee Huntington         : MR-EOM, pCC
   Robert Izsak           : Overlap fitted RIJCOSX, COSX-SCS-MP3, EOM
   Christian Kollmar      : KDIIS, OOCD, Brueckner-CCSD(T), CCSD density
   Simone Kossmann        : Meta GGA functionals, TD-DFT gradient, OOMP2, MP2 Hessian
   Martin Krupicka        : AUTO-CI
   Lucas Lang             : DCDCAS
   Dagmar Lenk            : GEPOL surface, SMD
   Dimitrios Liakos       : Extrapolation schemes; Compound Job, initial MDCI parallelization
   Dimitrios Manganas     : Further ROCIS development; embedding schemes
   Dimitrios Pantazis     : SARC Basis sets
   Taras Petrenko         : DFT Hessian,TD-DFT gradient, ASA, ECA, R-Raman, ABS, FL, XAS/XES, NRVS
   Peter Pinski           : DLPNO-MP2, DLPNO-MP2 Gradient
   Christoph Reimann      : Effective Core Potentials
   Marius Retegan         : Local ZFS, SOC
   Christoph Riplinger    : Optimizer, TS searches, QM/MM, DLPNO-CCSD(T), (RO)-DLPNO pert. Triples
   Tobias Risthaus        : Range-separated hybrids, TD-DFT gradient, RPA, STAB
   Michael Roemelt        : Original ROCIS implementation
   Masaaki Saitow         : Open-shell DLPNO-CCSD energy and density
   Barbara Sandhoefer     : DKH picture change effects
   Avijit Sen             : IP-ROCIS
   Kantharuban Sivalingam : CASSCF convergence, NEVPT2, FIC-MRCI
   Bernardo de Souza      : ESD, SOC TD-DFT
   Georgi Stoychev        : AutoAux, RI-MP2 NMR
   Willem Van den Heuvel  : Paramagnetic NMR
   Boris Wezisla          : Elementary symmetry handling
   Frank Wennmohs         : Technical directorship


 We gratefully acknowledge several colleagues who have allowed us to
 interface, adapt or use parts of their codes:
   Stefan Grimme, W. Hujo, H. Kruse,             : VdW corrections, initial TS optimization,
                  C. Bannwarth                     DFT functionals, gCP, sTDA/sTD-DF
   Ed Valeev, F. Pavosevic, A. Kumar             : LibInt (2-el integral package), F12 methods
   Garnet Chan, S. Sharma, J. Yang, R. Olivares  : DMRG
   Ulf Ekstrom                                   : XCFun DFT Library
   Mihaly Kallay                                 : mrcc  (arbitrary order and MRCC methods)
   Andreas Klamt, Michael Diedenhofen            : otool_cosmo (COSMO solvation model)
   Jiri Pittner, Ondrej Demel                    : Mk-CCSD
   Frank Weinhold                                : gennbo (NPA and NBO analysis)
   Christopher J. Cramer and Donald G. Truhlar   : smd solvation model
   Lars Goerigk                                  : TD-DFT with DH, B97 family of functionals
   V. Asgeirsson, H. Jonsson                     : NEB implementation
   FAccTs GmbH                                   : IRC, NEB, NEB-TS, Multilevel, MM, QM/MM, CI optimization
   S Lehtola, MJT Oliveira, MAL Marques          : LibXC Library


 Your calculation uses the libint2 library for the computation of 2-el integrals
 For citations please refer to: http://libint.valeyev.net

 Your ORCA version has been built with support for libXC version: 4.2.3
 For citations please refer to: https://tddft.org/programs/libxc/

 This ORCA versions uses:
   CBLAS   interface :  Fast vector & matrix operations
   LAPACKE interface :  Fast linear algebra routines
   SCALAPACK package :  Parallel linear algebra routines


Your calculation utilizes the atom-pairwise dispersion correction
with the Becke-Johnson damping scheme (D3BJ)
Cite in your paper:
S.Grimme, S.Ehrlich, L.Goerigk, J Comput Chem, (2011), 32, 1456–1465 
S.Grimme, J.Antony, S.Ehrlich and H.Krieg, J.Chem.Phys., 132, (2010), 154104 
   

----- Orbital basis set information -----
Your calculation utilizes the basis: def2-TZVPPD
   F. Weigend and R. Ahlrichs, Phys. Chem. Chem. Phys. 7, 3297 (2005).
   D. Rappoport and F. Furche, J. Chem. Phys. 133 134105 (2010).

----- AuxC basis set information -----
Your calculation utilizes the auxiliary basis: def2-TZVPPD/C
   A. Hellweg, C. Hattig, S. Hofener and W. Klopper, Theor. Chem. Acc. 117, 587 (2007).

----- AuxJK basis set information -----
Your calculation utilizes the auxiliary basis: def2/JK
   H-Ba, Hf-Rn: F. Weigend, J. Comput. Chem. 29, 167 (2008).

cite the ECPs for Au [Def2-ECP] as follows:
Ce-Yb(ecp-28): M. Dolg, H. Stoll, H.Preuss, J. Chem. Phys., 1989, 90, 1730-1734.
Y-Cd(ecp-28), Hf-Hg(ecp-46): D. Andrae,U. Haeussermann, M. Dolg, H. Stoll, H. Preuss, Theor. Chim. Acta, 1990, 77, 123-141.
In-Sb(ecp-28), Tl-Bi(ecp-46): B. Metz, H. Stoll, M. Dolg, J. Chem. Phys., 2000, 113, 2563-2569.
Te-Xe(ecp-28), Po-Rn(ecp-46): K. A. Peterson, D. Figgen, E. Goll, H. Stoll, M. Dolg, J. Chem. Phys., 2003, 119, 11113-11123.
Rb(ecp-28), Cs(ecp-46): T. Leininger, A. Nicklass, W. Kuechle, H. Stoll, M. Dolg, A. Bergner, Chem. Phys. Lett., 1996, 255, 274-280.
Sr(ecp-28), Ba(ecp-46): M. Kaupp, P. V. Schleyer, H. Stoll and H. Preuss, J. Chem. Phys., 1991, 94, 1360-1366.
La(ecp-46): M. Dolg, H. Stoll, A. Savin, H. Preuss, Theor. Chim. Acta, 1989, 75, 173-194.
Lu(ecp-28): X. Cao, M. Dolg, J. Chem. Phys., 2001, 115, 7348-7355.

ECP parameters for Au [Def2-ECP] have been obtained from:
TURBOMOLE (7.0.2)

================================================================================
                                        WARNINGS
                       Please study these warnings very carefully!
================================================================================


WARNING: your system is open-shell and RHF/RKS was chosen
  ===> : WILL SWITCH to UHF/UKS


WARNING: No MP2 level density has been requested!
         To caclulate MP2 level properties use
         %mp2 Density relaxed end
         or
         %mp2 Density unrelaxed end
         Otherwise for double-hybrid DFT only the energy is correct!

WARNING: The frozen-core approximation is turned on by default for 
         the MP2 part of double-hybrid DFT.

INFO   : the flag for use of LIBINT has been found!

================================================================================
                                       INPUT FILE
================================================================================
NAME = Au04C2_H_F.in
|  1> #
|  2> # Au04C2_H_F ri-B2PLYP-D3BJ/Def2-TZVPPD
|  3> #
|  4> ! rijk ri-b2plyp d3bj def2-tzvppd def2/jk def2-tzvppd/c grid4 nofinalgrid
|  5> 
|  6> *xyz 2 2
|  7> Au       0.000000    1.567068   -0.568281 
|  8> Au       1.357120   -0.783534   -0.568281 
|  9> Au      -1.357120   -0.783534   -0.568281 
| 10> Au       0.000000    0.000000    1.725922 
| 11> H        0.000000    0.000000   -1.665144 
| 12> *
| 13> 
| 14> %maxcore 5000
| 15> 
| 16> %pal
| 17> nprocs = 24
| 18> end
| 19> 
| 20> 
| 21>                          ****END OF INPUT****
================================================================================

                       ****************************
                       * Single Point Calculation *
                       ****************************

---------------------------------
CARTESIAN COORDINATES (ANGSTROEM)
---------------------------------
  Au     0.000000    1.567068   -0.568281
  Au     1.357120   -0.783534   -0.568281
  Au    -1.357120   -0.783534   -0.568281
  Au     0.000000    0.000000    1.725922
  H      0.000000    0.000000   -1.665144

----------------------------
CARTESIAN COORDINATES (A.U.)
----------------------------
  NO LB      ZA    FRAG     MASS         X           Y           Z
   0 Au   19.0000*   0   196.966    0.000000    2.961329   -1.073895
   1 Au   19.0000*   0   196.966    2.564585   -1.480665   -1.073895
   2 Au   19.0000*   0   196.966   -2.564585   -1.480665   -1.073895
   3 Au   19.0000*   0   196.966    0.000000    0.000000    3.261520
   4 H     1.0000    0     1.008    0.000000    0.000000   -3.146666
* core charge reduced due to ECP

--------------------------------
INTERNAL COORDINATES (ANGSTROEM)
--------------------------------
 Au     0   0   0     0.000000000000     0.00000000     0.00000000
 Au     1   0   0     2.714241046187     0.00000000     0.00000000
 Au     2   1   0     2.714240000000    60.00001275     0.00000000
 Au     2   1   3     2.778321008949    60.76008000   288.85645343
 H      2   1   3     1.912801261063    44.80627518    54.46024256

---------------------------
INTERNAL COORDINATES (A.U.)
---------------------------
 Au     0   0   0     0.000000000000     0.00000000     0.00000000
 Au     1   0   0     5.129172238741     0.00000000     0.00000000
 Au     2   1   0     5.129170261734    60.00001275     0.00000000
 Au     2   1   3     5.250265819033    60.76008000   288.85645343
 H      2   1   3     3.614670532029    44.80627518    54.46024256

---------------------
BASIS SET INFORMATION
---------------------
There are 2 groups of distinct atoms

 Group   1 Type Au  : 8s8p6d2f1g contracted to 6s5p3d2f1g pattern {311111/41111/411/11/1}
 Group   2 Type H   : 5s3p1d contracted to 3s3p1d pattern {311/111/1}

Atom   0Au   basis set group =>   1
Atom   1Au   basis set group =>   1
Atom   2Au   basis set group =>   1
Atom   3Au   basis set group =>   1
Atom   4H    basis set group =>   2
---------------------------------
AUXILIARY/C BASIS SET INFORMATION
---------------------------------
There are 2 groups of distinct atoms

 Group   1 Type Au  : 9s9p8d5f4g3h1i contracted to 9s9p8d5f4g3h1i pattern {111111111/111111111/11111111/11111/1111/111/1}
 Group   2 Type H   : 5s4p3d1f contracted to 5s4p3d1f pattern {11111/1111/111/1}

Atom   0Au   basis set group =>   1
Atom   1Au   basis set group =>   1
Atom   2Au   basis set group =>   1
Atom   3Au   basis set group =>   1
Atom   4H    basis set group =>   2
----------------------------------
AUXILIARY/JK BASIS SET INFORMATION
----------------------------------
There are 2 groups of distinct atoms

 Group   1 Type Au  : 13s12p11d9f5g3h2i contracted to 13s11p10d8f4g3h2i pattern {1111111111111/21111111111/2111111111/21111111/2111/111/11}
 Group   2 Type H   : 4s2p2d contracted to 2s2p2d pattern {31/11/11}

Atom   0Au   basis set group =>   1
Atom   1Au   basis set group =>   1
Atom   2Au   basis set group =>   1
Atom   3Au   basis set group =>   1
Atom   4H    basis set group =>   2
-------------------------
ECP PARAMETER INFORMATION
-------------------------

 Group 1, Type Au ECP Def2-ECP (replacing 60 core electrons, lmax=3)

Atom   0Au   ECP group =>   1
Atom   1Au   ECP group =>   1
Atom   2Au   ECP group =>   1
Atom   3Au   ECP group =>   1



           ************************************************************
           *        Program running with 24 parallel MPI-processes    *
           *              working on a common directory               *
           ************************************************************
------------------------------------------------------------------------------
                           ORCA GTO INTEGRAL CALCULATION
                           -- RI-GTO INTEGRALS CHOSEN --
------------------------------------------------------------------------------

                         BASIS SET STATISTICS AND STARTUP INFO

Gaussian basis set:
 # of primitive gaussian shells          ...  109
 # of primitive gaussian functions       ...  359
 # of contracted shells                  ...   75
 # of contracted basis functions         ...  253
 Highest angular momentum                ...    4
 Maximum contraction depth               ...    4
Auxiliary gaussian basis set:
 # of primitive gaussian shells          ...  228
 # of primitive gaussian functions       ... 1104
 # of contracted shells                  ...  210
 # of contracted aux-basis functions     ... 1006
 Highest angular momentum                ...    6
 Maximum contraction depth               ...    3
Ratio of auxiliary to basis functions    ...  3.98
Integral package used                  ... LIBINT
 One Electron integrals                  
   ECP integrals                         ... done
 Ordering auxiliary basis shells         ... done
 Integral threshhold             Thresh  ...  1.000e-10
 Primitive cut-off               TCut    ...  1.000e-11
 Pre-screening matrix                    ... done
 Shell pair data                         ... 
 Ordering of the shell pairs             ... done (   0.000 sec) 2760 of 2850 pairs
 Determination of significant pairs      ... done (   0.000 sec)
 Creation of shell pair data             ... done (   0.000 sec)
 Storage of shell pair data              ... done (   0.009 sec)
 Shell pair data done in (   0.009 sec)
 Computing two index integrals           ... done
 Cholesky decomposition of the V-matrix  ... done


Timings:
 Total evaluation time                   ...   1.761 sec (  0.029 min)
 One electron matrix time                ...   1.244 sec (  0.021 min) = 70.7%
 Schwartz matrix evaluation time         ...   0.180 sec (  0.003 min) = 10.2%
 Two index repulsion integral time       ...   0.242 sec (  0.004 min) = 13.7%
 Cholesky decomposition of V             ...   0.045 sec (  0.001 min) =  2.6%
 Three index repulsion integral time     ...   0.000 sec (  0.000 min) =  0.0%



           ************************************************************
           *        Program running with 24 parallel MPI-processes    *
           *              working on a common directory               *
           ************************************************************
-------------------------------------------------------------------------------
                                 ORCA SCF
-------------------------------------------------------------------------------

------------
SCF SETTINGS
------------
Hamiltonian:
 Density Functional     Method          .... DFT(GTOs)
 Exchange Functional    Exchange        .... B88
   X-Alpha parameter    XAlpha          ....  0.666667
   Becke's b parameter  XBeta           ....  0.004200
 Correlation Functional Correlation     .... LYP
 LDA part of GGA corr.  LDAOpt          .... VWN-3
 Gradients option       PostSCFGGA      .... off
 Hybrid DFT is turned on
   Fraction HF Exchange ScalHFX         ....  0.530000
   Scaling of DF-GGA-X  ScalDFX         ....  0.470000
   Scaling of DF-GGA-C  ScalDFC         ....  0.730000
   Scaling of DF-LDA-C  ScalLDAC        ....  0.730000
   Perturbative correction              ....  0.270000
   Density functional embedding theory  .... OFF
 RI-approximation to the Coulomb term is turned on
   Number of auxiliary basis functions  .... 1006
   RI-JK (J+K treated both via RI)      .... on


General Settings:
 Integral files         IntName         .... Au04C2_H_F
 Hartree-Fock type      HFTyp           .... UHF
 Total Charge           Charge          ....    2
 Multiplicity           Mult            ....    2
 Number of Electrons    NEL             ....   75
 Basis Dimension        Dim             ....  253
 Nuclear Repulsion      ENuc            ....    436.1544979593 Eh

Convergence Acceleration:
 DIIS                   CNVDIIS         .... on
   Start iteration      DIISMaxIt       ....    12
   Startup error        DIISStart       ....  0.200000
   # of expansion vecs  DIISMaxEq       ....     5
   Bias factor          DIISBfac        ....   1.050
   Max. coefficient     DIISMaxC        ....  10.000
 Newton-Raphson         CNVNR           .... off
 SOSCF                  CNVSOSCF        .... off
 Level Shifting         CNVShift        .... on
   Level shift para.    LevelShift      ....    0.2500
   Turn off err/grad.   ShiftErr        ....    0.0010
 Zerner damping         CNVZerner       .... off
 Static damping         CNVDamp         .... on
   Fraction old density DampFac         ....    0.7000
   Max. Damping (<1)    DampMax         ....    0.9800
   Min. Damping (>=0)   DampMin         ....    0.0000
   Turn off err/grad.   DampErr         ....    0.1000
 Fernandez-Rico         CNVRico         .... off

SCF Procedure:
 Maximum # iterations   MaxIter         ....   125
 SCF integral mode      SCFMode         .... Direct
   Integral package                     .... LIBINT
 Reset frequency        DirectResetFreq ....    20
 Integral Threshold     Thresh          ....  1.000e-10 Eh
 Primitive CutOff       TCut            ....  1.000e-11 Eh

Convergence Tolerance:
 Convergence Check Mode ConvCheckMode   .... Total+1el-Energy
 Convergence forced     ConvForced      .... 0
 Energy Change          TolE            ....  1.000e-06 Eh
 1-El. energy change                    ....  1.000e-03 Eh
 DIIS Error             TolErr          ....  1.000e-06


Diagonalization of the overlap matrix:
Smallest eigenvalue                        ... 9.342e-04
Time for diagonalization                   ...    0.011 sec
Threshold for overlap eigenvalues          ... 1.000e-08
Number of eigenvalues below threshold      ... 0
Time for construction of square roots      ...    0.008 sec
Total time needed                          ...    0.019 sec

-------------------
DFT GRID GENERATION
-------------------

General Integration Accuracy     IntAcc      ...  4.670
Radial Grid Type                 RadialGrid  ... Gauss-Chebyshev
Angular Grid (max. acc.)         AngularGrid ... Lebedev-302
Angular grid pruning method      GridPruning ... 3 (G Style)
Weight generation scheme         WeightScheme... Becke
Basis function cutoff            BFCut       ...    1.0000e-10
Integration weight cutoff        WCut        ...    1.0000e-14
Grids for H and He will be reduced by one unit

# of grid points (after initial pruning)     ...  50002 (   0.0 sec)
# of grid points (after weights+screening)   ...  48863 (   0.0 sec)
nearest neighbour list constructed           ...    0.0 sec
Grid point re-assignment to atoms done       ...    0.0 sec
Grid point division into batches done        ...    0.5 sec
Reduced shell lists constructed in    0.6 sec

Total number of grid points                  ...    48863
Total number of batches                      ...      766
Average number of points per batch           ...       63
Average number of grid points per atom       ...     9773
Average number of shells per batch           ...    13.88 (18.51%)
Average number of basis functions per batch  ...    38.79 (15.33%)
Average number of large shells per batch     ...     9.42 (67.90%)
Average number of large basis fcns per batch ...    24.45 (63.05%)
Average number of aux-shells per batch       ...    13.88 ( 6.61%)
Average number of aux functions per batch    ...    38.79 ( 3.86%)
Maximum spatial batch extension              ...  27.71, 26.50, 27.27 au
Average spatial batch extension              ...   0.50,  0.43,  0.48 au

Time for grid setup =    0.612 sec

------------------------------
INITIAL GUESS: MODEL POTENTIAL
------------------------------
Loading Hartree-Fock densities                     ... done
  calling /sw/apps/orca/orca_4_2_0_linux_x86-64_openmpi314/orca Au04C2_H_F_atom79.inp > Au04C2_H_F_atom79.out in order to generate an atomic fitting density for atom 0 (Au with ECP) on-the-fly... 
    atom 0 (Au), assumed electronic state with S=2: 1s2 2s2 2p6 3s2 3p6 4s2 3d10 4p6 5s2 4d10 5p6 6s1 4f14 5d10           ... done
Calculating cut-offs                               ... done
Setting up the integral package                    ... done
Initializing the effective Hamiltonian             ... done
Starting the Coulomb interaction                   ... done (   0.0 sec)
Reading the grid                                   ... done
Mapping shells                                     ... done
Starting the XC term evaluation                    ... done (   0.0 sec)
  promolecular density results
     # of electrons  =    317.008731720
     EX              =  -1469.787160443
     EC              =     -6.425759325
     EX+EC           =  -1476.212919768
Transforming the Hamiltonian                       ... done (   0.0 sec)
Diagonalizing the Hamiltonian                      ... done (   0.0 sec)
Back transforming the eigenvectors                 ... done (   0.0 sec)
Now organizing SCF variables                       ... done
                      ------------------
                      INITIAL GUESS DONE (   2.0 sec)
                      ------------------
--------------
SCF ITERATIONS
--------------
ITER       Energy         Delta-E        Max-DP      RMS-DP      [F,P]     Damp
  0   -541.1280169394   0.000000000000 0.12947036  0.00131395  0.5522186 0.7000
  1   -541.1994985416  -0.071481602208 0.10120467  0.00107504  0.4030536 0.7000
  2   -541.3244817969  -0.124983255274 0.06791367  0.00076593  0.2806414 0.7000
                               ***Turning on DIIS***
  3   -541.4229072529  -0.098425456060 0.04677971  0.00054788  0.1945895 0.7000
  4   -541.4737972305  -0.050889977547 0.03399635  0.00041044  0.1347670 0.7000
  5   -541.4903558648  -0.016558634355 0.09078761  0.00103249  0.0934853 0.0000
  6   -541.5189340371  -0.028578172289 0.01127557  0.00010865  0.0109955 0.0000
  7   -541.5198996946  -0.000965657505 0.00284027  0.00002997  0.0041992 0.0000
  8   -541.5200304705  -0.000130775839 0.00329482  0.00003470  0.0007278 0.0000
  9   -541.5200734487  -0.000042978259 0.00349541  0.00002328  0.0005821 0.0000
 10   -541.5200872623  -0.000013813639 0.00117970  0.00001345  0.0006674 0.0000
 11   -541.5200943419  -0.000007079506 0.00143278  0.00001097  0.0001370 0.0000
 12   -541.5200967943  -0.000002452486 0.00042891  0.00000408  0.0000706 0.0000
                 **** Energy Check signals convergence ****

               *****************************************************
               *                     SUCCESS                       *
               *           SCF CONVERGED AFTER  13 CYCLES          *
               *****************************************************


----------------
TOTAL SCF ENERGY
----------------

Total Energy       :         -541.52009733 Eh          -14735.51099 eV

Components:
Nuclear Repulsion  :          436.15449796 Eh           11868.36727 eV
Electronic Energy  :         -977.67459529 Eh          -26603.87825 eV
One Electron Energy:        -1797.10520063 Eh          -48901.71862 eV
Two Electron Energy:          819.43060534 Eh           22297.84037 eV

Virial components:
Potential Energy   :         -725.88002852 Eh          -19752.19976 eV
Kinetic Energy     :          184.35993119 Eh            5016.68877 eV
Virial Ratio       :            3.93729822


DFT components:
N(Alpha)           :       37.999986304007 electrons
N(Beta)            :       36.999986845079 electrons
N(Total)           :       74.999973149085 electrons
E(X)               :      -22.836523171526 Eh       
E(C)               :       -2.007635921489 Eh       
E(XC)              :      -24.844159093015 Eh       
DFET-embed. en.    :        0.000000000000 Eh       

---------------
SCF CONVERGENCE
---------------

  Last Energy change         ...   -5.3528e-07  Tolerance :   1.0000e-06
  Last MAX-Density change    ...    1.9304e-04  Tolerance :   1.0000e-05
  Last RMS-Density change    ...    2.4890e-06  Tolerance :   1.0000e-06
  Last DIIS Error            ...    2.5460e-05  Tolerance :   1.0000e-06

             **** THE GBW FILE WAS UPDATED (Au04C2_H_F.gbw) ****
             **** DENSITY FILE WAS UPDATED (Au04C2_H_F.scfp) ****
             **** ENERGY FILE WAS UPDATED (Au04C2_H_F.en.tmp) ****
----------------------
UHF SPIN CONTAMINATION
----------------------

Warning: in a DFT calculation there is little theoretical justification to 
         calculate <S**2> as in Hartree-Fock theory. We will do it anyways
         but you should keep in mind that the values have only limited relevance

Expectation value of <S**2>     :     0.760977
Ideal value S*(S+1) for S=0.5   :     0.750000
Deviation                       :     0.010977

             **** THE GBW FILE WAS UPDATED (Au04C2_H_F.gbw) ****
             **** DENSITY FILE WAS UPDATED (Au04C2_H_F.scfp) ****
----------------
ORBITAL ENERGIES
----------------
                 SPIN UP ORBITALS
  NO   OCC          E(Eh)            E(eV) 
   0   1.0000      -4.785702      -130.2256 
   1   1.0000      -4.785331      -130.2155 
   2   1.0000      -4.785331      -130.2155 
   3   1.0000      -4.746287      -129.1530 
   4   1.0000      -2.914947       -79.3197 
   5   1.0000      -2.908807       -79.1527 
   6   1.0000      -2.908806       -79.1526 
   7   1.0000      -2.904359       -79.0316 
   8   1.0000      -2.903454       -79.0070 
   9   1.0000      -2.903454       -79.0070 
  10   1.0000      -2.901312       -78.9487 
  11   1.0000      -2.901309       -78.9486 
  12   1.0000      -2.899331       -78.8948 
  13   1.0000      -2.867096       -78.0176 
  14   1.0000      -2.862017       -77.8794 
  15   1.0000      -2.862016       -77.8794 
  16   1.0000      -0.944173       -25.6923 
  17   1.0000      -0.863207       -23.4891 
  18   1.0000      -0.824983       -22.4489 
  19   1.0000      -0.824981       -22.4489 
  20   1.0000      -0.808132       -21.9904 
  21   1.0000      -0.808132       -21.9904 
  22   1.0000      -0.801245       -21.8030 
  23   1.0000      -0.782791       -21.3008 
  24   1.0000      -0.782791       -21.3008 
  25   1.0000      -0.768073       -20.9003 
  26   1.0000      -0.762635       -20.7524 
  27   1.0000      -0.762631       -20.7522 
  28   1.0000      -0.756646       -20.5894 
  29   1.0000      -0.756053       -20.5732 
  30   1.0000      -0.756052       -20.5732 
  31   1.0000      -0.730413       -19.8756 
  32   1.0000      -0.730409       -19.8755 
  33   1.0000      -0.724280       -19.7087 
  34   1.0000      -0.721883       -19.6434 
  35   1.0000      -0.709753       -19.3133 
  36   1.0000      -0.709751       -19.3133 
  37   1.0000      -0.593628       -16.1535 
  38   0.0000      -0.443883       -12.0787 
  39   0.0000      -0.443882       -12.0786 
  40   0.0000      -0.372979       -10.1493 
  41   0.0000      -0.305216        -8.3054 
  42   0.0000      -0.292440        -7.9577 
  43   0.0000      -0.292440        -7.9577 
  44   0.0000      -0.282370        -7.6837 
  45   0.0000      -0.282369        -7.6836 
  46   0.0000      -0.181666        -4.9434 
  47   0.0000      -0.167263        -4.5515 
  48   0.0000      -0.167263        -4.5515 
  49   0.0000      -0.158074        -4.3014 
  50   0.0000      -0.158073        -4.3014 
  51   0.0000      -0.156925        -4.2701 
  52   0.0000      -0.156476        -4.2579 
  53   0.0000      -0.115214        -3.1351 
  54   0.0000      -0.091660        -2.4942 
  55   0.0000      -0.076206        -2.0737 
  56   0.0000      -0.076205        -2.0736 
  57   0.0000      -0.068684        -1.8690 
  58   0.0000      -0.068684        -1.8690 
  59   0.0000      -0.056605        -1.5403 
  60   0.0000      -0.019848        -0.5401 
  61   0.0000      -0.019848        -0.5401 
  62   0.0000      -0.001570        -0.0427 
  63   0.0000      -0.001570        -0.0427 
  64   0.0000      -0.000711        -0.0193 
  65   0.0000       0.024495         0.6665 
  66   0.0000       0.024495         0.6665 
  67   0.0000       0.029165         0.7936 
  68   0.0000       0.039020         1.0618 
  69   0.0000       0.048438         1.3181 
  70   0.0000       0.059057         1.6070 
  71   0.0000       0.059059         1.6071 
  72   0.0000       0.078550         2.1375 
  73   0.0000       0.078551         2.1375 
  74   0.0000       0.104920         2.8550 
  75   0.0000       0.104922         2.8551 
  76   0.0000       0.118544         3.2257 
  77   0.0000       0.140824         3.8320 
  78   0.0000       0.183043         4.9809 
  79   0.0000       0.202757         5.5173 
  80   0.0000       0.202759         5.5174 
  81   0.0000       0.205735         5.5983 
  82   0.0000       0.205737         5.5984 
  83   0.0000       0.209499         5.7008 
  84   0.0000       0.238172         6.4810 
  85   0.0000       0.238173         6.4810 
  86   0.0000       0.266378         7.2485 
  87   0.0000       0.266680         7.2567 
  88   0.0000       0.266681         7.2568 
  89   0.0000       0.275532         7.4976 
  90   0.0000       0.287041         7.8108 
  91   0.0000       0.287043         7.8108 
  92   0.0000       0.347938         9.4679 
  93   0.0000       0.549091        14.9415 
  94   0.0000       0.549105        14.9419 
  95   0.0000       0.589762        16.0482 
  96   0.0000       0.595648        16.2084 
  97   0.0000       0.649361        17.6700 
  98   0.0000       0.649365        17.6701 
  99   0.0000       0.701606        19.0917 
 100   0.0000       0.701606        19.0917 
 101   0.0000       0.743015        20.2185 
 102   0.0000       0.746766        20.3205 
 103   0.0000       0.746768        20.3206 
 104   0.0000       0.796918        21.6852 
 105   0.0000       0.820511        22.3272 
 106   0.0000       0.820512        22.3273 
 107   0.0000       0.827845        22.5268 
 108   0.0000       0.841265        22.8920 
 109   0.0000       0.841269        22.8921 
 110   0.0000       0.892583        24.2884 
 111   0.0000       0.892585        24.2885 
 112   0.0000       0.908207        24.7136 
 113   0.0000       0.908682        24.7265 
 114   0.0000       0.918663        24.9981 
 115   0.0000       0.922549        25.1038 
 116   0.0000       0.922554        25.1040 
 117   0.0000       0.929022        25.2800 
 118   0.0000       0.986196        26.8358 
 119   0.0000       0.986200        26.8359 
 120   0.0000       1.003106        27.2959 
 121   0.0000       1.019577        27.7441 
 122   0.0000       1.019579        27.7442 
 123   0.0000       1.026981        27.9456 
 124   0.0000       1.076056        29.2810 
 125   0.0000       1.076059        29.2810 
 126   0.0000       1.103366        30.0241 
 127   0.0000       1.114777        30.3346 
 128   0.0000       1.114787        30.3349 
 129   0.0000       1.123705        30.5776 
 130   0.0000       1.168567        31.7983 
 131   0.0000       1.171995        31.8916 
 132   0.0000       1.172452        31.9040 
 133   0.0000       1.172455        31.9041 
 134   0.0000       1.185707        32.2647 
 135   0.0000       1.185712        32.2649 
 136   0.0000       1.235413        33.6173 
 137   0.0000       1.235421        33.6175 
 138   0.0000       1.243804        33.8456 
 139   0.0000       1.243814        33.8459 
 140   0.0000       1.280568        34.8460 
 141   0.0000       1.287492        35.0344 
 142   0.0000       1.287505        35.0348 
 143   0.0000       1.294784        35.2329 
 144   0.0000       1.343719        36.5644 
 145   0.0000       1.343719        36.5644 
 146   0.0000       1.385260        37.6948 
 147   0.0000       1.453531        39.5526 
 148   0.0000       1.453554        39.5532 
 149   0.0000       1.495865        40.7046 
 150   0.0000       1.545067        42.0434 
 151   0.0000       1.545090        42.0440 
 152   0.0000       1.598440        43.4958 
 153   0.0000       1.673432        45.5364 
 154   0.0000       1.673438        45.5366 
 155   0.0000       1.704899        46.3927 
 156   0.0000       2.192526        59.6617 
 157   0.0000       2.522595        68.6433 
 158   0.0000       2.601936        70.8023 
 159   0.0000       2.601942        70.8024 
 160   0.0000       2.849082        77.5275 
 161   0.0000       2.907440        79.1155 
 162   0.0000       2.907441        79.1155 
 163   0.0000       2.947784        80.2133 
 164   0.0000       3.188550        86.7649 
 165   0.0000       3.188567        86.7653 
 166   0.0000       3.228620        87.8552 
 167   0.0000       3.273396        89.0736 
 168   0.0000       3.273445        89.0750 
 169   0.0000       3.362112        91.4877 
 170   0.0000       3.377564        91.9082 
 171   0.0000       3.377580        91.9086 
 172   0.0000       3.379385        91.9577 
 173   0.0000       3.444722        93.7356 
 174   0.0000       3.445214        93.7491 
 175   0.0000       3.445286        93.7510 
 176   0.0000       3.469047        94.3976 
 177   0.0000       3.506999        95.4303 
 178   0.0000       3.507035        95.4313 
 179   0.0000       3.523721        95.8853 
 180   0.0000       3.550614        96.6171 
 181   0.0000       3.562377        96.9372 
 182   0.0000       3.562459        96.9394 
 183   0.0000       3.595837        97.8477 
 184   0.0000       3.595850        97.8481 
 185   0.0000       3.638316        99.0036 
 186   0.0000       3.640281        99.0571 
 187   0.0000       3.640339        99.0587 
 188   0.0000       3.669010        99.8388 
 189   0.0000       3.670544        99.8806 
 190   0.0000       3.670600        99.8821 
 191   0.0000       3.742194       101.8303 
 192   0.0000       3.743012       101.8525 
 193   0.0000       3.743073       101.8542 
 194   0.0000       3.779301       102.8400 
 195   0.0000       3.779501       102.8454 
 196   0.0000       3.788511       103.0906 
 197   0.0000       3.895726       106.0081 
 198   0.0000       3.895735       106.0083 
 199   0.0000       3.898824       106.0924 
 200   0.0000       3.900641       106.1418 
 201   0.0000       3.901711       106.1710 
 202   0.0000       3.901724       106.1713 
 203   0.0000       3.903234       106.2124 
 204   0.0000       3.907996       106.3420 
 205   0.0000       3.908170       106.3467 
 206   0.0000       3.912065       106.4527 
 207   0.0000       3.912172       106.4556 
 208   0.0000       3.913792       106.4997 
 209   0.0000       3.920794       106.6902 
 210   0.0000       3.930086       106.9431 
 211   0.0000       3.930117       106.9439 
 212   0.0000       3.931010       106.9682 
 213   0.0000       3.942322       107.2760 
 214   0.0000       3.942327       107.2762 
 215   0.0000       3.944494       107.3351 
 216   0.0000       3.944881       107.3457 
 217   0.0000       3.944890       107.3459 
 218   0.0000       3.947044       107.4045 
 219   0.0000       3.967996       107.9747 
 220   0.0000       3.968004       107.9749 
 221   0.0000       3.987792       108.5133 
 222   0.0000       4.000893       108.8698 
 223   0.0000       4.000931       108.8709 
 224   0.0000       4.057268       110.4039 
 225   0.0000       4.057292       110.4045 
 226   0.0000       4.098287       111.5201 
 227   0.0000       4.105094       111.7053 
 228   0.0000       4.105122       111.7060 
 229   0.0000       4.153562       113.0242 
 230   0.0000       4.732051       128.7657 
 231   0.0000       4.732225       128.7704 
 232   0.0000       4.736645       128.8907 
 233   0.0000      27.236147       741.1332 
 234   0.0000      27.236170       741.1339 
 235   0.0000      27.470641       747.5141 
 236   0.0000      27.470658       747.5146 
 237   0.0000      28.312621       770.4256 
 238   0.0000      28.319099       770.6019 
 239   0.0000      28.698813       780.9344 
 240   0.0000      28.698820       780.9346 
 241   0.0000      28.999453       789.1152 
 242   0.0000      30.094539       818.9140 
 243   0.0000      30.094579       818.9151 
 244   0.0000      30.264697       823.5443 
 245   0.0000      43.885786      1194.1929 
 246   0.0000      44.224013      1203.3966 
 247   0.0000      44.349053      1206.7991 
 248   0.0000      44.349054      1206.7991 
 249   0.0000     202.373740      5506.8694 
 250   0.0000     202.522076      5510.9058 
 251   0.0000     202.565140      5512.0777 
 252   0.0000     202.565142      5512.0777 

                 SPIN DOWN ORBITALS
  NO   OCC          E(Eh)            E(eV) 
   0   1.0000      -4.782285      -130.1326 
   1   1.0000      -4.781936      -130.1231 
   2   1.0000      -4.781936      -130.1231 
   3   1.0000      -4.744261      -129.0979 
   4   1.0000      -2.909087       -79.1603 
   5   1.0000      -2.903914       -79.0195 
   6   1.0000      -2.903913       -79.0195 
   7   1.0000      -2.899489       -78.8991 
   8   1.0000      -2.899488       -78.8991 
   9   1.0000      -2.898571       -78.8741 
  10   1.0000      -2.898466       -78.8713 
  11   1.0000      -2.897826       -78.8538 
  12   1.0000      -2.897825       -78.8538 
  13   1.0000      -2.865960       -77.9867 
  14   1.0000      -2.861569       -77.8672 
  15   1.0000      -2.861568       -77.8672 
  16   1.0000      -0.916982       -24.9524 
  17   1.0000      -0.854326       -23.2474 
  18   1.0000      -0.824169       -22.4268 
  19   1.0000      -0.824168       -22.4267 
  20   1.0000      -0.801953       -21.8223 
  21   1.0000      -0.801952       -21.8222 
  22   1.0000      -0.795497       -21.6466 
  23   1.0000      -0.780089       -21.2273 
  24   1.0000      -0.780089       -21.2273 
  25   1.0000      -0.755870       -20.5683 
  26   1.0000      -0.755867       -20.5682 
  27   1.0000      -0.755604       -20.5610 
  28   1.0000      -0.755179       -20.5495 
  29   1.0000      -0.749460       -20.3938 
  30   1.0000      -0.749454       -20.3937 
  31   1.0000      -0.727115       -19.7858 
  32   1.0000      -0.727111       -19.7857 
  33   1.0000      -0.719856       -19.5883 
  34   1.0000      -0.716246       -19.4900 
  35   1.0000      -0.702547       -19.1173 
  36   1.0000      -0.702545       -19.1172 
  37   0.0000      -0.457339       -12.4448 
  38   0.0000      -0.439146       -11.9498 
  39   0.0000      -0.439145       -11.9497 
  40   0.0000      -0.347961        -9.4685 
  41   0.0000      -0.294328        -8.0091 
  42   0.0000      -0.289140        -7.8679 
  43   0.0000      -0.289140        -7.8679 
  44   0.0000      -0.272101        -7.4042 
  45   0.0000      -0.272100        -7.4042 
  46   0.0000      -0.173451        -4.7199 
  47   0.0000      -0.167182        -4.5493 
  48   0.0000      -0.167182        -4.5493 
  49   0.0000      -0.157224        -4.2783 
  50   0.0000      -0.155370        -4.2278 
  51   0.0000      -0.155369        -4.2278 
  52   0.0000      -0.146511        -3.9868 
  53   0.0000      -0.112141        -3.0515 
  54   0.0000      -0.089166        -2.4263 
  55   0.0000      -0.074598        -2.0299 
  56   0.0000      -0.074597        -2.0299 
  57   0.0000      -0.066033        -1.7969 
  58   0.0000      -0.066033        -1.7969 
  59   0.0000      -0.053175        -1.4470 
  60   0.0000      -0.017552        -0.4776 
  61   0.0000      -0.017551        -0.4776 
  62   0.0000      -0.000255        -0.0069 
  63   0.0000      -0.000253        -0.0069 
  64   0.0000       0.003535         0.0962 
  65   0.0000       0.028652         0.7797 
  66   0.0000       0.028653         0.7797 
  67   0.0000       0.028963         0.7881 
  68   0.0000       0.051276         1.3953 
  69   0.0000       0.055768         1.5175 
  70   0.0000       0.060234         1.6391 
  71   0.0000       0.060237         1.6391 
  72   0.0000       0.080903         2.2015 
  73   0.0000       0.080905         2.2015 
  74   0.0000       0.106645         2.9020 
  75   0.0000       0.106649         2.9021 
  76   0.0000       0.120062         3.2671 
  77   0.0000       0.144436         3.9303 
  78   0.0000       0.186614         5.0780 
  79   0.0000       0.204593         5.5673 
  80   0.0000       0.204594         5.5673 
  81   0.0000       0.206856         5.6288 
  82   0.0000       0.206857         5.6289 
  83   0.0000       0.212189         5.7740 
  84   0.0000       0.240375         6.5409 
  85   0.0000       0.240376         6.5410 
  86   0.0000       0.267547         7.2803 
  87   0.0000       0.267549         7.2804 
  88   0.0000       0.270736         7.3671 
  89   0.0000       0.275895         7.5075 
  90   0.0000       0.290672         7.9096 
  91   0.0000       0.290673         7.9096 
  92   0.0000       0.353754         9.6261 
  93   0.0000       0.556878        15.1534 
  94   0.0000       0.556890        15.1538 
  95   0.0000       0.591051        16.0833 
  96   0.0000       0.606558        16.5053 
  97   0.0000       0.651421        17.7261 
  98   0.0000       0.651423        17.7261 
  99   0.0000       0.706082        19.2135 
 100   0.0000       0.706082        19.2135 
 101   0.0000       0.746962        20.3259 
 102   0.0000       0.750660        20.4265 
 103   0.0000       0.750662        20.4266 
 104   0.0000       0.799982        21.7686 
 105   0.0000       0.824076        22.4243 
 106   0.0000       0.824077        22.4243 
 107   0.0000       0.834888        22.7185 
 108   0.0000       0.842584        22.9279 
 109   0.0000       0.842588        22.9280 
 110   0.0000       0.897223        24.4147 
 111   0.0000       0.897225        24.4147 
 112   0.0000       0.909427        24.7468 
 113   0.0000       0.916258        24.9326 
 114   0.0000       0.921127        25.0651 
 115   0.0000       0.925744        25.1908 
 116   0.0000       0.925749        25.1909 
 117   0.0000       0.935306        25.4510 
 118   0.0000       0.989821        26.9344 
 119   0.0000       0.989825        26.9345 
 120   0.0000       1.010882        27.5075 
 121   0.0000       1.022706        27.8292 
 122   0.0000       1.022707        27.8293 
 123   0.0000       1.030204        28.0333 
 124   0.0000       1.081992        29.4425 
 125   0.0000       1.081997        29.4426 
 126   0.0000       1.106565        30.1112 
 127   0.0000       1.115902        30.3652 
 128   0.0000       1.115911        30.3655 
 129   0.0000       1.133275        30.8380 
 130   0.0000       1.169050        31.8115 
 131   0.0000       1.177184        32.0328 
 132   0.0000       1.177543        32.0426 
 133   0.0000       1.177548        32.0427 
 134   0.0000       1.191824        32.4312 
 135   0.0000       1.191829        32.4313 
 136   0.0000       1.237725        33.6802 
 137   0.0000       1.237734        33.6805 
 138   0.0000       1.247117        33.9358 
 139   0.0000       1.247125        33.9360 
 140   0.0000       1.284156        34.9437 
 141   0.0000       1.290517        35.1168 
 142   0.0000       1.290530        35.1171 
 143   0.0000       1.295767        35.2596 
 144   0.0000       1.347494        36.6672 
 145   0.0000       1.347495        36.6672 
 146   0.0000       1.394242        37.9392 
 147   0.0000       1.456389        39.6304 
 148   0.0000       1.456410        39.6309 
 149   0.0000       1.499841        40.8128 
 150   0.0000       1.549636        42.1677 
 151   0.0000       1.549656        42.1683 
 152   0.0000       1.608821        43.7782 
 153   0.0000       1.677393        45.6442 
 154   0.0000       1.677399        45.6443 
 155   0.0000       1.704734        46.3882 
 156   0.0000       2.196731        59.7761 
 157   0.0000       2.527437        68.7750 
 158   0.0000       2.604155        70.8626 
 159   0.0000       2.604160        70.8628 
 160   0.0000       2.877688        78.3059 
 161   0.0000       2.923045        79.5401 
 162   0.0000       2.923045        79.5401 
 163   0.0000       2.965308        80.6901 
 164   0.0000       3.202965        87.1571 
 165   0.0000       3.202987        87.1577 
 166   0.0000       3.229984        87.8923 
 167   0.0000       3.275693        89.1361 
 168   0.0000       3.275741        89.1374 
 169   0.0000       3.363385        91.5224 
 170   0.0000       3.379363        91.9571 
 171   0.0000       3.379380        91.9576 
 172   0.0000       3.381339        92.0109 
 173   0.0000       3.446254        93.7773 
 174   0.0000       3.447500        93.8112 
 175   0.0000       3.447572        93.8132 
 176   0.0000       3.472269        94.4852 
 177   0.0000       3.511408        95.5503 
 178   0.0000       3.511443        95.5512 
 179   0.0000       3.526684        95.9660 
 180   0.0000       3.554041        96.7104 
 181   0.0000       3.563947        96.9799 
 182   0.0000       3.564026        96.9821 
 183   0.0000       3.599364        97.9437 
 184   0.0000       3.599378        97.9440 
 185   0.0000       3.643007        99.1313 
 186   0.0000       3.643081        99.1333 
 187   0.0000       3.644961        99.1844 
 188   0.0000       3.673844        99.9704 
 189   0.0000       3.676224       100.0351 
 190   0.0000       3.676300       100.0372 
 191   0.0000       3.743374       101.8624 
 192   0.0000       3.760498       102.3284 
 193   0.0000       3.760548       102.3297 
 194   0.0000       3.782453       102.9258 
 195   0.0000       3.782651       102.9312 
 196   0.0000       3.805713       103.5587 
 197   0.0000       3.897020       106.0433 
 198   0.0000       3.897030       106.0436 
 199   0.0000       3.899557       106.1123 
 200   0.0000       3.902084       106.1811 
 201   0.0000       3.903567       106.2215 
 202   0.0000       3.903571       106.2216 
 203   0.0000       3.904401       106.2441 
 204   0.0000       3.909004       106.3694 
 205   0.0000       3.909197       106.3747 
 206   0.0000       3.912691       106.4697 
 207   0.0000       3.912793       106.4725 
 208   0.0000       3.915268       106.5399 
 209   0.0000       3.922029       106.7238 
 210   0.0000       3.931528       106.9823 
 211   0.0000       3.931561       106.9832 
 212   0.0000       3.933516       107.0364 
 213   0.0000       3.943455       107.3069 
 214   0.0000       3.943459       107.3070 
 215   0.0000       3.947566       107.4187 
 216   0.0000       3.947576       107.4190 
 217   0.0000       3.947970       107.4297 
 218   0.0000       3.948869       107.4542 
 219   0.0000       3.972053       108.0851 
 220   0.0000       3.972059       108.0852 
 221   0.0000       3.990344       108.5828 
 222   0.0000       4.003571       108.9427 
 223   0.0000       4.003608       108.9437 
 224   0.0000       4.060161       110.4826 
 225   0.0000       4.060186       110.4833 
 226   0.0000       4.098858       111.5356 
 227   0.0000       4.115710       111.9942 
 228   0.0000       4.115735       111.9949 
 229   0.0000       4.165264       113.3426 
 230   0.0000       4.745978       129.1446 
 231   0.0000       4.746170       129.1499 
 232   0.0000       4.751729       129.3011 
 233   0.0000      27.236033       741.1301 
 234   0.0000      27.236056       741.1307 
 235   0.0000      27.470845       747.5197 
 236   0.0000      27.470862       747.5202 
 237   0.0000      28.313216       770.4418 
 238   0.0000      28.318759       770.5926 
 239   0.0000      28.698521       780.9265 
 240   0.0000      28.698529       780.9267 
 241   0.0000      29.000664       789.1482 
 242   0.0000      30.094588       818.9154 
 243   0.0000      30.094626       818.9164 
 244   0.0000      30.264692       823.5441 
 245   0.0000      43.885382      1194.1820 
 246   0.0000      44.223572      1203.3846 
 247   0.0000      44.348621      1206.7873 
 248   0.0000      44.348622      1206.7874 
 249   0.0000     202.366506      5506.6726 
 250   0.0000     202.517612      5510.7844 
 251   0.0000     202.555479      5511.8148 
 252   0.0000     202.555479      5511.8148 

                    ********************************
                    * MULLIKEN POPULATION ANALYSIS *
                    ********************************

--------------------------------------------
MULLIKEN ATOMIC CHARGES AND SPIN POPULATIONS
--------------------------------------------
   0 Au:    0.516394    0.073251
   1 Au:    0.516314    0.073219
   2 Au:    0.516313    0.073220
   3 Au:    0.333148    0.483353
   4 H :    0.117830    0.296957
Sum of atomic charges         :    2.0000000
Sum of atomic spin populations:    1.0000000

-----------------------------------------------------
MULLIKEN REDUCED ORBITAL CHARGES AND SPIN POPULATIONS
-----------------------------------------------------
CHARGE
  0 Aus       :     2.482194  s :     2.482194
      pz      :     2.094604  p :     6.213442
      px      :     2.019017
      py      :     2.099821
      dz2     :     1.966682  d :     9.775830
      dxz     :     1.993452
      dyz     :     1.912713
      dx2y2   :     1.969341
      dxy     :     1.933642
      f0      :     0.001498  f :     0.011959
      f+1     :     0.000709
      f-1     :     0.002065
      f+2     :     0.002025
      f-2     :     0.001356
      f+3     :     0.002238
      f-3     :     0.002069
      g0      :     0.000016  g :     0.000181
      g+1     :     0.000006
      g-1     :     0.000024
      g+2     :     0.000022
      g-2     :     0.000016
      g+3     :     0.000018
      g-3     :     0.000021
      g+4     :     0.000028
      g-4     :     0.000030
  1 Aus       :     2.482261  s :     2.482261
      pz      :     2.094603  p :     6.213482
      px      :     2.079650
      py      :     2.039229
      dz2     :     1.966683  d :     9.775800
      dxz     :     1.932888
      dyz     :     1.973261
      dx2y2   :     1.942561
      dxy     :     1.960408
      f0      :     0.001499  f :     0.011962
      f+1     :     0.001726
      f-1     :     0.001048
      f+2     :     0.001524
      f-2     :     0.001858
      f+3     :     0.002238
      f-3     :     0.002069
      g0      :     0.000016  g :     0.000181
      g+1     :     0.000020
      g-1     :     0.000010
      g+2     :     0.000018
      g-2     :     0.000021
      g+3     :     0.000018
      g-3     :     0.000021
      g+4     :     0.000029
      g-4     :     0.000028
  2 Aus       :     2.482261  s :     2.482261
      pz      :     2.094603  p :     6.213483
      px      :     2.079650
      py      :     2.039229
      dz2     :     1.966683  d :     9.775800
      dxz     :     1.932888
      dyz     :     1.973261
      dx2y2   :     1.942561
      dxy     :     1.960408
      f0      :     0.001499  f :     0.011962
      f+1     :     0.001726
      f-1     :     0.001048
      f+2     :     0.001524
      f-2     :     0.001858
      f+3     :     0.002238
      f-3     :     0.002069
      g0      :     0.000016  g :     0.000181
      g+1     :     0.000020
      g-1     :     0.000010
      g+2     :     0.000018
      g-2     :     0.000021
      g+3     :     0.000018
      g-3     :     0.000021
      g+4     :     0.000029
      g-4     :     0.000028
  3 Aus       :     2.761523  s :     2.761523
      pz      :     2.063411  p :     6.090169
      px      :     2.013380
      py      :     2.013378
      dz2     :     1.975040  d :     9.807474
      dxz     :     1.929575
      dyz     :     1.929567
      dx2y2   :     1.986646
      dxy     :     1.986646
      f0      :     0.001369  f :     0.007576
      f+1     :     0.001674
      f-1     :     0.001674
      f+2     :     0.001201
      f-2     :     0.001201
      f+3     :     0.000226
      f-3     :     0.000232
      g0      :     0.000015  g :     0.000111
      g+1     :     0.000020
      g-1     :     0.000020
      g+2     :     0.000019
      g-2     :     0.000019
      g+3     :     0.000007
      g-3     :     0.000008
      g+4     :     0.000001
      g-4     :     0.000001
  4 H s       :     0.866587  s :     0.866587
      pz      :    -0.017587  p :     0.012244
      px      :     0.014920
      py      :     0.014911
      dz2     :     0.000650  d :     0.003338
      dxz     :     0.000772
      dyz     :     0.000770
      dx2y2   :     0.000573
      dxy     :     0.000573

SPIN
  0 Aus       :    -0.030323  s :    -0.030323
      pz      :     0.064532  p :     0.057564
      px      :    -0.000237
      py      :    -0.006731
      dz2     :    -0.001347  d :     0.045605
      dxz     :    -0.000649
      dyz     :     0.043625
      dx2y2   :     0.003368
      dxy     :     0.000609
      f0      :    -0.000007  f :     0.000396
      f+1     :     0.000005
      f-1     :    -0.000005
      f+2     :     0.000460
      f-2     :    -0.000043
      f+3     :    -0.000029
      f-3     :     0.000015
      g0      :     0.000002  g :     0.000008
      g+1     :    -0.000000
      g-1     :    -0.000000
      g+2     :     0.000002
      g-2     :    -0.000001
      g+3     :     0.000001
      g-3     :     0.000004
      g+4     :     0.000001
      g-4     :     0.000000
  1 Aus       :    -0.030348  s :    -0.030348
      pz      :     0.064532  p :     0.057554
      px      :    -0.005115
      py      :    -0.001864
      dz2     :    -0.001347  d :     0.045609
      dxz     :     0.032558
      dyz     :     0.010421
      dx2y2   :     0.001299
      dxy     :     0.002677
      f0      :    -0.000007  f :     0.000396
      f+1     :    -0.000003
      f-1     :     0.000003
      f+2     :     0.000083
      f-2     :     0.000334
      f+3     :    -0.000029
      f-3     :     0.000015
      g0      :     0.000002  g :     0.000008
      g+1     :    -0.000000
      g-1     :    -0.000000
      g+2     :     0.000000
      g-2     :     0.000002
      g+3     :     0.000001
      g-3     :     0.000004
      g+4     :     0.000000
      g-4     :     0.000001
  2 Aus       :    -0.030347  s :    -0.030347
      pz      :     0.064533  p :     0.057554
      px      :    -0.005115
      py      :    -0.001864
      dz2     :    -0.001347  d :     0.045609
      dxz     :     0.032558
      dyz     :     0.010421
      dx2y2   :     0.001299
      dxy     :     0.002677
      f0      :    -0.000007  f :     0.000396
      f+1     :    -0.000003
      f-1     :     0.000003
      f+2     :     0.000083
      f-2     :     0.000334
      f+3     :    -0.000029
      f-3     :     0.000015
      g0      :     0.000002  g :     0.000008
      g+1     :    -0.000000
      g-1     :    -0.000000
      g+2     :     0.000000
      g-2     :     0.000002
      g+3     :     0.000001
      g-3     :     0.000004
      g+4     :     0.000000
      g-4     :     0.000001
  3 Aus       :     0.477264  s :     0.477264
      pz      :     0.000992  p :     0.005068
      px      :     0.002038
      py      :     0.002038
      dz2     :     0.008137  d :     0.000836
      dxz     :    -0.002823
      dyz     :    -0.002825
      dx2y2   :    -0.000826
      dxy     :    -0.000826
      f0      :     0.000127  f :     0.000181
      f+1     :    -0.000009
      f-1     :    -0.000009
      f+2     :     0.000022
      f-2     :     0.000022
      f+3     :     0.000007
      f-3     :     0.000021
      g0      :     0.000001  g :     0.000004
      g+1     :     0.000001
      g-1     :     0.000001
      g+2     :     0.000000
      g-2     :     0.000000
      g+3     :     0.000000
      g-3     :    -0.000000
      g+4     :     0.000000
      g-4     :     0.000000
  4 H s       :     0.291518  s :     0.291518
      pz      :     0.002940  p :     0.005375
      px      :     0.001218
      py      :     0.001217
      dz2     :     0.000020  d :     0.000063
      dxz     :    -0.000004
      dyz     :    -0.000004
      dx2y2   :     0.000026
      dxy     :     0.000026


                     *******************************
                     * LOEWDIN POPULATION ANALYSIS *
                     *******************************

-------------------------------------------
LOEWDIN ATOMIC CHARGES AND SPIN POPULATIONS
-------------------------------------------
   0 Au:    0.552626    0.186853
   1 Au:    0.552634    0.186857
   2 Au:    0.552634    0.186857
   3 Au:    0.460376    0.272084
   4 H :   -0.118270    0.167349

----------------------------------------------------
LOEWDIN REDUCED ORBITAL CHARGES AND SPIN POPULATIONS
----------------------------------------------------
CHARGE
  0 Aus       :     2.267768  s :     2.267768
      pz      :     2.163349  p :     6.341290
      px      :     2.030864
      py      :     2.147077
      dz2     :     1.971446  d :     9.816240
      dxz     :     1.987747
      dyz     :     1.938397
      dx2y2   :     1.973145
      dxy     :     1.945506
      f0      :     0.002348  f :     0.021801
      f+1     :     0.001243
      f-1     :     0.004018
      f+2     :     0.004947
      f-2     :     0.001712
      f+3     :     0.004487
      f-3     :     0.003046
      g0      :     0.000026  g :     0.000276
      g+1     :     0.000008
      g-1     :     0.000034
      g+2     :     0.000035
      g-2     :     0.000027
      g+3     :     0.000018
      g-3     :     0.000046
      g+4     :     0.000038
      g-4     :     0.000043
  1 Aus       :     2.267772  s :     2.267772
      pz      :     2.163349  p :     6.341292
      px      :     2.118025
      py      :     2.059917
      dz2     :     1.971446  d :     9.816224
      dxz     :     1.950731
      dyz     :     1.975405
      dx2y2   :     1.952413
      dxy     :     1.966230
      f0      :     0.002349  f :     0.021802
      f+1     :     0.003324
      f-1     :     0.001937
      f+2     :     0.002521
      f-2     :     0.004139
      f+3     :     0.004487
      f-3     :     0.003046
      g0      :     0.000026  g :     0.000276
      g+1     :     0.000027
      g-1     :     0.000014
      g+2     :     0.000029
      g-2     :     0.000033
      g+3     :     0.000018
      g-3     :     0.000046
      g+4     :     0.000042
      g-4     :     0.000040
  2 Aus       :     2.267773  s :     2.267773
      pz      :     2.163349  p :     6.341292
      px      :     2.118025
      py      :     2.059917
      dz2     :     1.971446  d :     9.816224
      dxz     :     1.950731
      dyz     :     1.975405
      dx2y2   :     1.952413
      dxy     :     1.966230
      f0      :     0.002349  f :     0.021802
      f+1     :     0.003324
      f-1     :     0.001937
      f+2     :     0.002521
      f-2     :     0.004139
      f+3     :     0.004487
      f-3     :     0.003046
      g0      :     0.000026  g :     0.000276
      g+1     :     0.000027
      g-1     :     0.000014
      g+2     :     0.000029
      g-2     :     0.000033
      g+3     :     0.000018
      g-3     :     0.000046
      g+4     :     0.000042
      g-4     :     0.000040
  3 Aus       :     2.485426  s :     2.485426
      pz      :     2.131396  p :     6.182642
      px      :     2.025623
      py      :     2.025623
      dz2     :     1.990724  d :     9.858108
      dxz     :     1.945402
      dyz     :     1.945400
      dx2y2   :     1.988291
      dxy     :     1.988291
      f0      :     0.002006  f :     0.013288
      f+1     :     0.003365
      f-1     :     0.003365
      f+2     :     0.001933
      f-2     :     0.001933
      f+3     :     0.000359
      f-3     :     0.000327
      g0      :     0.000018  g :     0.000160
      g+1     :     0.000031
      g-1     :     0.000031
      g+2     :     0.000028
      g-2     :     0.000028
      g+3     :     0.000011
      g-3     :     0.000011
      g+4     :     0.000001
      g-4     :     0.000001
  4 H s       :     0.745889  s :     0.745889
      pz      :     0.132373  p :     0.352703
      px      :     0.110168
      py      :     0.110161
      dz2     :     0.002540  d :     0.019678
      dxz     :     0.005130
      dyz     :     0.005129
      dx2y2   :     0.003440
      dxy     :     0.003439

SPIN
  0 Aus       :    -0.008264  s :    -0.008264
      pz      :     0.120410  p :     0.122966
      px      :    -0.000173
      py      :     0.002729
      dz2     :     0.000003  d :     0.070003
      dxz     :    -0.000533
      dyz     :     0.065200
      dx2y2   :     0.004643
      dxy     :     0.000690
      f0      :     0.000101  f :     0.002118
      f+1     :     0.000006
      f-1     :     0.000121
      f+2     :     0.001778
      f-2     :    -0.000036
      f+3     :    -0.000032
      f-3     :     0.000180
      g0      :     0.000004  g :     0.000030
      g+1     :    -0.000000
      g-1     :     0.000001
      g+2     :     0.000006
      g-2     :    -0.000001
      g+3     :     0.000000
      g-3     :     0.000017
      g+4     :     0.000003
      g-4     :     0.000000
  1 Aus       :    -0.008267  s :    -0.008267
      pz      :     0.120410  p :     0.122966
      px      :     0.002003
      py      :     0.000552
      dz2     :     0.000004  d :     0.070010
      dxz     :     0.048769
      dyz     :     0.015903
      dx2y2   :     0.001679
      dxy     :     0.003656
      f0      :     0.000101  f :     0.002118
      f+1     :     0.000092
      f-1     :     0.000034
      f+2     :     0.000418
      f-2     :     0.001324
      f+3     :    -0.000032
      f-3     :     0.000180
      g0      :     0.000004  g :     0.000030
      g+1     :     0.000001
      g-1     :     0.000000
      g+2     :     0.000001
      g-2     :     0.000004
      g+3     :     0.000000
      g-3     :     0.000017
      g+4     :     0.000001
      g-4     :     0.000002
  2 Aus       :    -0.008267  s :    -0.008267
      pz      :     0.120410  p :     0.122966
      px      :     0.002003
      py      :     0.000552
      dz2     :     0.000004  d :     0.070010
      dxz     :     0.048769
      dyz     :     0.015903
      dx2y2   :     0.001679
      dxy     :     0.003656
      f0      :     0.000101  f :     0.002118
      f+1     :     0.000092
      f-1     :     0.000034
      f+2     :     0.000418
      f-2     :     0.001324
      f+3     :    -0.000032
      f-3     :     0.000180
      g0      :     0.000004  g :     0.000030
      g+1     :     0.000001
      g-1     :     0.000000
      g+2     :     0.000001
      g-2     :     0.000004
      g+3     :     0.000000
      g-3     :     0.000017
      g+4     :     0.000001
      g-4     :     0.000002
  3 Aus       :     0.278381  s :     0.278381
      pz      :    -0.007302  p :    -0.005215
      px      :     0.001044
      py      :     0.001044
      dz2     :     0.008123  d :    -0.001055
      dxz     :    -0.003869
      dyz     :    -0.003870
      dx2y2   :    -0.000720
      dxy     :    -0.000720
      f0      :     0.000197  f :    -0.000028
      f+1     :    -0.000104
      f-1     :    -0.000104
      f+2     :    -0.000016
      f-2     :    -0.000016
      f+3     :     0.000006
      f-3     :     0.000008
      g0      :     0.000001  g :     0.000001
      g+1     :     0.000000
      g-1     :     0.000000
      g+2     :    -0.000000
      g-2     :    -0.000000
      g+3     :     0.000000
      g-3     :    -0.000001
      g+4     :     0.000000
      g-4     :     0.000000
  4 H s       :     0.157484  s :     0.157484
      pz      :     0.012022  p :     0.010124
      px      :    -0.000949
      py      :    -0.000949
      dz2     :    -0.000006  d :    -0.000258
      dxz     :    -0.000085
      dyz     :    -0.000085
      dx2y2   :    -0.000042
      dxy     :    -0.000042


                      *****************************
                      * MAYER POPULATION ANALYSIS *
                      *****************************

  NA   - Mulliken gross atomic population
  ZA   - Total nuclear charge
  QA   - Mulliken gross atomic charge
  VA   - Mayer's total valence
  BVA  - Mayer's bonded valence
  FA   - Mayer's free valence

  ATOM       NA         ZA         QA         VA         BVA        FA
  0 Au    18.4836    19.0000     0.5164     1.4427     1.4168     0.0259
  1 Au    18.4837    19.0000     0.5163     1.4429     1.4170     0.0259
  2 Au    18.4837    19.0000     0.5163     1.4429     1.4170     0.0259
  3 Au    18.6669    19.0000     0.3331     1.3739     1.1388     0.2351
  4 H      0.8822     1.0000     0.1178     0.9726     0.8872     0.0854

  Mayer bond orders larger than 0.100000
B(  0-Au,  1-Au) :   0.3834 B(  0-Au,  2-Au) :   0.3834 B(  0-Au,  3-Au) :   0.3670 
B(  0-Au,  4-H ) :   0.2831 B(  1-Au,  2-Au) :   0.3834 B(  1-Au,  3-Au) :   0.3670 
B(  1-Au,  4-H ) :   0.2832 B(  2-Au,  3-Au) :   0.3670 B(  2-Au,  4-H ) :   0.2832 


-------
TIMINGS
-------

Total SCF time: 0 days 0 hours 0 min 13 sec 

Total time                  ....      13.367 sec
Sum of individual times     ....      13.121 sec  ( 98.2%)

Fock matrix formation       ....      10.715 sec  ( 80.2%)
  XC integration            ....       1.149 sec  ( 10.7% of F)
    Basis function eval.    ....       0.109 sec  (  9.5% of XC)
    Density eval.           ....       0.177 sec  ( 15.4% of XC)
    XC-Functional eval.     ....       0.025 sec  (  2.1% of XC)
    XC-Potential eval.      ....       0.342 sec  ( 29.8% of XC)
Diagonalization             ....       0.273 sec  (  2.0%)
Density matrix formation    ....       0.029 sec  (  0.2%)
Population analysis         ....       0.020 sec  (  0.2%)
Initial guess               ....       1.372 sec  ( 10.3%)
Orbital Transformation      ....       0.000 sec  (  0.0%)
Orbital Orthonormalization  ....       0.000 sec  (  0.0%)
DIIS solution               ....       0.100 sec  (  0.7%)
Grid generation             ....       0.612 sec  (  4.6%)


           ************************************************************
           *        Program running with 24 parallel MPI-processes    *
           *              working on a common directory               *
           ************************************************************

------------------------------------------------------------------------------
                                ORCA  MP2 
------------------------------------------------------------------------------

Freezing NCore=0 chemical core electrons

-------------
RI-MP2 ENERGY
-------------
Dimension of the basis                    ...  253
Memory devoted to MP2                     ... 5000 MB   
Data format for buffers                   ... DOUBLE
Compression type for matrix containers    ... UNCOMPRESSED
Overall scaling of the MP2 energy         ...   2.700e-01
Calculating two index integrals           ... done (    0.018 sec)
Cholesky decomposition of V**-1           ... done (    0.037 sec)

-----------------
RI-TRANSFORMATION (AUX index driven)
-----------------

Dimension of the orbital-basis         ... 253
Dimension of the aux-basis             ... 811
Transformation of internal/external MOs...    0-  37 to   38- 252
Number Format for Storage              ... Double (8 Byte)
Integral mode                          ... Direct

First Phase: integral generation and transformation of MO indices
  Aux angular momentum 0               ... done (    0.004 sec)
  Aux angular momentum 1               ... done (    0.006 sec)
  Aux angular momentum 2               ... done (    0.011 sec)
  Aux angular momentum 3               ... done (    0.009 sec)
  Aux angular momentum 4               ... done (    0.013 sec)
  Aux angular momentum 5               ... done (    0.020 sec)
  Aux angular momentum 6               ... done (    0.028 sec)
Closing buffer VIA ( 0.05 GB; CompressionRatio= 1.00)
  Phase 1 completed in     0.186 sec
Second Phase: sorting and transformation of aux index

IA-Transformation
Memory available                       ... 4989 MB 
Max. # MO pairs treated in a batch     ... 2    
# of internal orbitals                 ... 38
# batches for internal orbitals        ... 1
Closing buffer IAV ( 0.00 GB; CompressionRatio= 1.00)
(ia|v) transformation done in     0.031 sec

  Phase 2 completed in     0.087 sec
RI-Integral transformation completed in     0.275 sec

-----------------
RI-TRANSFORMATION (AUX index driven)
-----------------

Dimension of the orbital-basis         ... 253
Dimension of the aux-basis             ... 811
Transformation of internal/external MOs...    0-  36 to   37- 252
Number Format for Storage              ... Double (8 Byte)
Integral mode                          ... Direct

First Phase: integral generation and transformation of MO indices
  Aux angular momentum 0               ... done (    0.004 sec)
  Aux angular momentum 1               ... done (    0.006 sec)
  Aux angular momentum 2               ... done (    0.011 sec)
  Aux angular momentum 3               ... done (    0.009 sec)
  Aux angular momentum 4               ... done (    0.013 sec)
  Aux angular momentum 5               ... done (    0.020 sec)
  Aux angular momentum 6               ... done (    0.028 sec)
Closing buffer VIA ( 0.05 GB; CompressionRatio= 1.00)
  Phase 1 completed in     0.182 sec
Second Phase: sorting and transformation of aux index

IA-Transformation
Memory available                       ... 4989 MB 
Max. # MO pairs treated in a batch     ... 2    
# of internal orbitals                 ... 37
# batches for internal orbitals        ... 1
Closing buffer IAV ( 0.00 GB; CompressionRatio= 1.00)
(ia|v) transformation done in     0.029 sec

  Phase 2 completed in     0.084 sec
RI-Integral transformation completed in     0.268 sec
Opening buffers                              ... done

Starting loop over batches of integrals:

Operator 0  - window                       ... (  0- 37)x( 38-252)
Operator 0  - Memory available             ...  5000 MB
Operator 0  - Memory needed per MO         ...   1.3 MB
Operator 0  - Number of orbitals per batch ... 2
Operator 0  - Number of batches            ... 1

OPERATOR  0   PASS   0:  MOs     0 ...    1 +    2 ...    3 +    4 ...    5 +    6 ...    7
                            +    8 ...    9 +   10 ...   11 +   12 ...   13 +   14 ...   15
                            +   16 ...   17 +   18 ...   19 +   20 ...   21 +   22 ...   23
                            +   24 ...   25 +   26 ...   27 +   28 ...   29 +   30 ...   31
                            +   32 ...   33 +   34 ...   35 +   36 ...   37
  Reading integrals       ... ok

Operator 1  - window                       ... (  0- 36)x( 37-252)
Operator 1  - Memory available             ...  5000 MB
Operator 1  - Memory needed per MO         ...   1.3 MB
Operator 1  - Number of orbitals per batch ... 2
Operator 1  - Number of batches            ... 1

OPERATOR  1   PASS   0:  MOs     0 ...    1 +    2 ...    3 +    4 ...    5 +    6 ...    7
                            +    8 ...    9 +   10 ...   11 +   12 ...   13 +   14 ...   15
                            +   16 ...   17 +   18 ...   19 +   20 ...   21 +   22 ...   23
                            +   24 ...   25 +   26 ...   27 +   28 ...   29 +   30 ...   31
                            +   32 ...   33 +   34 ...   35 +   36 ...   36
  Reading integrals       ... ok
Time spent in pair loops =     0.480 sec

Correlation energy components}
 E2 and T2 for alpha/alpha pairs :     -0.133422499 Eh      0.000000000
 E2 and T2 for beta/beta   pairs :     -0.129594484 Eh      0.000000000
 E2 and T2 for alpha/beta  pairs :     -0.502674908 Eh      0.000000000


-----------------------------------------------
 RI-MP2 CORRELATION ENERGY:     -0.765691892 Eh
-----------------------------------------------


-------
TIMINGS
-------

Total time                :    1.215 sec
Integral trafo            :    0.556 sec ( 45.7%)
I/O of integrals          :    0.004 sec (  0.3%)
K(i,j) Operators          :    0.243 sec ( 20.0%)
T(i,j) pair energies      :    0.014 sec (  1.1%)
V-calculation             :    0.018 sec (  1.5%)
V**(-1/2)                 :    0.037 sec (  3.0%)
Gamma(ia|P)               :    0.000 sec (  0.0%)
Gamma-Trafo               :    0.000 sec (  0.0%)
D(virtual)                :    0.000 sec (  0.0%)
D(internal)               :    0.000 sec (  0.0%)
W(virtual)                :    0.000 sec (  0.0%)
W(internal)               :    0.000 sec (  0.0%)
L(virtual)                :    0.000 sec (  0.0%)
L(internal)               :    0.000 sec (  0.0%)
G(D)                      :    0.000 sec (  0.0%)
G(Z)                      :    0.000 sec (  0.0%)
Z-Vector Solution         :    0.000 sec (  0.0%)
Z-Vector Solution         :    0.000 sec (  0.0%)
3-Index Derivative 
+ Separable RIJ part      :    0.000 sec (  0.0%)
2-Index Derivative 
+ Separable RIJ part      :    0.000 sec (  0.0%)
Separable Gradient (X)    :    0.000 sec (  0.0%)


---------------------------------------
MP2 TOTAL ENERGY:     -542.285789221 Eh
---------------------------------------


-------------------------------------------------------------------------------
                          DFT DISPERSION CORRECTION                            
                                                                               
                              DFTD3 V3.1  Rev 1                                
                          USING Becke-Johnson damping                          
-------------------------------------------------------------------------------
The B2PLYP functional is recognized
Active option DFTDOPT                   ...         4   

molecular C6(AA) [au] = 5322.958110 


            DFT-D V3
 parameters
 s6 scaling factor         :     0.6400 
 a1 scaling factor         :     0.3065 
 s8 scaling factor         :     0.9147 
 a2 scaling factor         :     5.0570 
 ad hoc parameters k1-k3   :    16.0000     1.3333    -4.0000 

 Edisp/kcal,au: -9.096082588426  -0.014495528744 
 E6   /kcal   :  -2.974721267 
 E8   /kcal   :  -6.121361321 
 % E8         :  67.296677019 

-------------------------   ----------------
Dispersion correction           -0.014495529
-------------------------   ----------------


-------------------------   --------------------
FINAL SINGLE POINT ENERGY      -542.300284749987
-------------------------   --------------------


                            ***************************************
                            *     ORCA property calculations      *
                            ***************************************


  WARNING: The energy has been calculated at the MP2 level but the densities
           used in the property calculations are still SCF densities
           MP2 response densities have not been calculated 
           use %mp2 Density relaxed end
           or  %mp2 Density unrelaxed end

                                    ---------------------
                                    Active property flags
                                    ---------------------
   (+) Dipole Moment


------------------------------------------------------------------------------
                       ORCA ELECTRIC PROPERTIES CALCULATION
------------------------------------------------------------------------------

Dipole Moment Calculation                       ... on
Quadrupole Moment Calculation                   ... off
Polarizability Calculation                      ... off
GBWName                                         ... Au04C2_H_F.gbw
Electron density file                           ... Au04C2_H_F.scfp
The origin for moment calculation is the CENTER OF MASS  = ( 0.000000,  0.000000  0.005925)

-------------
DIPOLE MOMENT
-------------
                                X             Y             Z
Electronic contribution:      0.00000      -0.00000       2.42050
Nuclear contribution   :      0.00000       0.00000      -2.84605
                        -----------------------------------------
Total Dipole Moment    :      0.00000      -0.00000      -0.42555
                        -----------------------------------------
Magnitude (a.u.)       :      0.42555
Magnitude (Debye)      :      1.08166



--------------------
Rotational spectrum 
--------------------
 
Rotational constants in cm-1:     0.011617     0.011195     0.011195 
Rotational constants in MHz :   348.279987   335.605170   335.605004 

 Dipole components along the rotational axes: 
x,y,z [a.u.] :    -0.425548    -0.000004     0.000000 
x,y,z [Debye]:    -1.081656    -0.000010     0.000000 

 

Timings for individual modules:

Sum of individual times         ...       17.815 sec (=   0.297 min)
GTO integral calculation        ...        2.221 sec (=   0.037 min)  12.5 %
SCF iterations                  ...       13.776 sec (=   0.230 min)  77.3 %
MP2 module                      ...        1.818 sec (=   0.030 min)  10.2 %
                             ****ORCA TERMINATED NORMALLY****
TOTAL RUN TIME: 0 days 0 hours 0 minutes 18 seconds 441 msec
