
                                 *****************
                                 * O   R   C   A *
                                 *****************

           --- An Ab Initio, DFT and Semiempirical electronic structure package ---

                  #######################################################
                  #                        -***-                        #
                  #          Department of theory and spectroscopy      #
                  #               Directorship: Frank Neese             #
                  #        Max Planck Institute fuer Kohlenforschung    #
                  #                Kaiser Wilhelm Platz 1               #
                  #                 D-45470 Muelheim/Ruhr               #
                  #                      Germany                        #
                  #                                                     #
                  #                  All rights reserved                #
                  #                        -***-                        #
                  #######################################################


                         Program Version 4.2.0 -  RELEASE  -


 With contributions from (in alphabetic order):
   Daniel Aravena         : Magnetic Suceptibility
   Michael Atanasov       : Ab Initio Ligand Field Theory (pilot matlab implementation)
   Alexander A. Auer      : GIAO ZORA, VPT2
   Ute Becker             : Parallelization
   Giovanni Bistoni       : ED, misc. LED, open-shell LED, HFLED
   Martin Brehm           : Molecular dynamics
   Dmytro Bykov           : SCF Hessian
   Vijay G. Chilkuri      : MRCI spin determinant printing, contributions to CSF-ICE
   Dipayan Datta          : RHF DLPNO-CCSD density
   Achintya Kumar Dutta   : EOM-CC, STEOM-CC
   Dmitry Ganyushin       : Spin-Orbit,Spin-Spin,Magnetic field MRCI
   Miquel Garcia          : C-PCM Hessian, Gaussian charge scheme
   Yang Guo               : DLPNO-NEVPT2, CIM, IAO-localization
   Andreas Hansen         : Spin unrestricted coupled pair/coupled cluster methods
   Benjamin Helmich-Paris : CASSCF linear response (MC-RPA)
   Lee Huntington         : MR-EOM, pCC
   Robert Izsak           : Overlap fitted RIJCOSX, COSX-SCS-MP3, EOM
   Christian Kollmar      : KDIIS, OOCD, Brueckner-CCSD(T), CCSD density
   Simone Kossmann        : Meta GGA functionals, TD-DFT gradient, OOMP2, MP2 Hessian
   Martin Krupicka        : AUTO-CI
   Lucas Lang             : DCDCAS
   Dagmar Lenk            : GEPOL surface, SMD
   Dimitrios Liakos       : Extrapolation schemes; Compound Job, initial MDCI parallelization
   Dimitrios Manganas     : Further ROCIS development; embedding schemes
   Dimitrios Pantazis     : SARC Basis sets
   Taras Petrenko         : DFT Hessian,TD-DFT gradient, ASA, ECA, R-Raman, ABS, FL, XAS/XES, NRVS
   Peter Pinski           : DLPNO-MP2, DLPNO-MP2 Gradient
   Christoph Reimann      : Effective Core Potentials
   Marius Retegan         : Local ZFS, SOC
   Christoph Riplinger    : Optimizer, TS searches, QM/MM, DLPNO-CCSD(T), (RO)-DLPNO pert. Triples
   Tobias Risthaus        : Range-separated hybrids, TD-DFT gradient, RPA, STAB
   Michael Roemelt        : Original ROCIS implementation
   Masaaki Saitow         : Open-shell DLPNO-CCSD energy and density
   Barbara Sandhoefer     : DKH picture change effects
   Avijit Sen             : IP-ROCIS
   Kantharuban Sivalingam : CASSCF convergence, NEVPT2, FIC-MRCI
   Bernardo de Souza      : ESD, SOC TD-DFT
   Georgi Stoychev        : AutoAux, RI-MP2 NMR
   Willem Van den Heuvel  : Paramagnetic NMR
   Boris Wezisla          : Elementary symmetry handling
   Frank Wennmohs         : Technical directorship


 We gratefully acknowledge several colleagues who have allowed us to
 interface, adapt or use parts of their codes:
   Stefan Grimme, W. Hujo, H. Kruse,             : VdW corrections, initial TS optimization,
                  C. Bannwarth                     DFT functionals, gCP, sTDA/sTD-DF
   Ed Valeev, F. Pavosevic, A. Kumar             : LibInt (2-el integral package), F12 methods
   Garnet Chan, S. Sharma, J. Yang, R. Olivares  : DMRG
   Ulf Ekstrom                                   : XCFun DFT Library
   Mihaly Kallay                                 : mrcc  (arbitrary order and MRCC methods)
   Andreas Klamt, Michael Diedenhofen            : otool_cosmo (COSMO solvation model)
   Jiri Pittner, Ondrej Demel                    : Mk-CCSD
   Frank Weinhold                                : gennbo (NPA and NBO analysis)
   Christopher J. Cramer and Donald G. Truhlar   : smd solvation model
   Lars Goerigk                                  : TD-DFT with DH, B97 family of functionals
   V. Asgeirsson, H. Jonsson                     : NEB implementation
   FAccTs GmbH                                   : IRC, NEB, NEB-TS, Multilevel, MM, QM/MM, CI optimization
   S Lehtola, MJT Oliveira, MAL Marques          : LibXC Library


 Your calculation uses the libint2 library for the computation of 2-el integrals
 For citations please refer to: http://libint.valeyev.net

 Your ORCA version has been built with support for libXC version: 4.2.3
 For citations please refer to: https://tddft.org/programs/libxc/

 This ORCA versions uses:
   CBLAS   interface :  Fast vector & matrix operations
   LAPACKE interface :  Fast linear algebra routines
   SCALAPACK package :  Parallel linear algebra routines


Your calculation utilizes the atom-pairwise dispersion correction
with the Becke-Johnson damping scheme (D3BJ)
Cite in your paper:
S.Grimme, S.Ehrlich, L.Goerigk, J Comput Chem, (2011), 32, 1456–1465 
S.Grimme, J.Antony, S.Ehrlich and H.Krieg, J.Chem.Phys., 132, (2010), 154104 
   

----- Orbital basis set information -----
Your calculation utilizes the basis: def2-TZVPPD
   F. Weigend and R. Ahlrichs, Phys. Chem. Chem. Phys. 7, 3297 (2005).
   D. Rappoport and F. Furche, J. Chem. Phys. 133 134105 (2010).

----- AuxC basis set information -----
Your calculation utilizes the auxiliary basis: def2-TZVPPD/C
   A. Hellweg, C. Hattig, S. Hofener and W. Klopper, Theor. Chem. Acc. 117, 587 (2007).

----- AuxJK basis set information -----
Your calculation utilizes the auxiliary basis: def2/JK
   H-Ba, Hf-Rn: F. Weigend, J. Comput. Chem. 29, 167 (2008).

cite the ECPs for Au [Def2-ECP] as follows:
Ce-Yb(ecp-28): M. Dolg, H. Stoll, H.Preuss, J. Chem. Phys., 1989, 90, 1730-1734.
Y-Cd(ecp-28), Hf-Hg(ecp-46): D. Andrae,U. Haeussermann, M. Dolg, H. Stoll, H. Preuss, Theor. Chim. Acta, 1990, 77, 123-141.
In-Sb(ecp-28), Tl-Bi(ecp-46): B. Metz, H. Stoll, M. Dolg, J. Chem. Phys., 2000, 113, 2563-2569.
Te-Xe(ecp-28), Po-Rn(ecp-46): K. A. Peterson, D. Figgen, E. Goll, H. Stoll, M. Dolg, J. Chem. Phys., 2003, 119, 11113-11123.
Rb(ecp-28), Cs(ecp-46): T. Leininger, A. Nicklass, W. Kuechle, H. Stoll, M. Dolg, A. Bergner, Chem. Phys. Lett., 1996, 255, 274-280.
Sr(ecp-28), Ba(ecp-46): M. Kaupp, P. V. Schleyer, H. Stoll and H. Preuss, J. Chem. Phys., 1991, 94, 1360-1366.
La(ecp-46): M. Dolg, H. Stoll, A. Savin, H. Preuss, Theor. Chim. Acta, 1989, 75, 173-194.
Lu(ecp-28): X. Cao, M. Dolg, J. Chem. Phys., 2001, 115, 7348-7355.

ECP parameters for Au [Def2-ECP] have been obtained from:
TURBOMOLE (7.0.2)

================================================================================
                                        WARNINGS
                       Please study these warnings very carefully!
================================================================================


WARNING: your system is open-shell and RHF/RKS was chosen
  ===> : WILL SWITCH to UHF/UKS


WARNING: No MP2 level density has been requested!
         To caclulate MP2 level properties use
         %mp2 Density relaxed end
         or
         %mp2 Density unrelaxed end
         Otherwise for double-hybrid DFT only the energy is correct!

WARNING: The frozen-core approximation is turned on by default for 
         the MP2 part of double-hybrid DFT.

INFO   : the flag for use of LIBINT has been found!

================================================================================
                                       INPUT FILE
================================================================================
NAME = Au04C2_H_E.in
|  1> #
|  2> # Au04C2_H_E ri-B2PLYP-D3BJ/Def2-TZVPPD
|  3> #
|  4> ! rijk ri-b2plyp d3bj def2-tzvppd def2/jk def2-tzvppd/c grid4 nofinalgrid
|  5> 
|  6> *xyz 2 2
|  7> Au       0.000000    1.337591    1.056475 
|  8> Au      -0.000000   -1.337591    1.056475 
|  9> Au      -1.306954    0.000000   -1.070288 
| 10> Au       1.306954   -0.000000   -1.070288 
| 11> H       -0.000000    0.000000    2.182427 
| 12> *
| 13> 
| 14> %maxcore 5000
| 15> 
| 16> %pal
| 17> nprocs = 24
| 18> end
| 19> 
| 20> 
| 21>                          ****END OF INPUT****
================================================================================

                       ****************************
                       * Single Point Calculation *
                       ****************************

---------------------------------
CARTESIAN COORDINATES (ANGSTROEM)
---------------------------------
  Au     0.000000    1.337591    1.056475
  Au    -0.000000   -1.337591    1.056475
  Au    -1.306954    0.000000   -1.070288
  Au     1.306954   -0.000000   -1.070288
  H     -0.000000    0.000000    2.182427

----------------------------
CARTESIAN COORDINATES (A.U.)
----------------------------
  NO LB      ZA    FRAG     MASS         X           Y           Z
   0 Au   19.0000*   0   196.966    0.000000    2.527681    1.996448
   1 Au   19.0000*   0   196.966   -0.000000   -2.527681    1.996448
   2 Au   19.0000*   0   196.966   -2.469785    0.000000   -2.022551
   3 Au   19.0000*   0   196.966    2.469785   -0.000000   -2.022551
   4 H     1.0000    0     1.008   -0.000000    0.000000    4.124189
* core charge reduced due to ECP

--------------------------------
INTERNAL COORDINATES (ANGSTROEM)
--------------------------------
 Au     0   0   0     0.000000000000     0.00000000     0.00000000
 Au     1   0   0     2.675182000000     0.00000000     0.00000000
 Au     1   2   0     2.832030949613    61.81577870     0.00000000
 Au     3   1   2     2.613908000000    62.51670281   286.18517030
 H      1   2   3     1.748404298092    40.08986778   148.42813812

---------------------------
INTERNAL COORDINATES (A.U.)
---------------------------
 Au     0   0   0     0.000000000000     0.00000000     0.00000000
 Au     1   0   0     5.055361338396     0.00000000     0.00000000
 Au     1   2   0     5.351762897558    61.81577870     0.00000000
 Au     3   1   2     4.939570259266    62.51670281   286.18517030
 H      1   2   3     3.304005294764    40.08986778   148.42813812

---------------------
BASIS SET INFORMATION
---------------------
There are 2 groups of distinct atoms

 Group   1 Type Au  : 8s8p6d2f1g contracted to 6s5p3d2f1g pattern {311111/41111/411/11/1}
 Group   2 Type H   : 5s3p1d contracted to 3s3p1d pattern {311/111/1}

Atom   0Au   basis set group =>   1
Atom   1Au   basis set group =>   1
Atom   2Au   basis set group =>   1
Atom   3Au   basis set group =>   1
Atom   4H    basis set group =>   2
---------------------------------
AUXILIARY/C BASIS SET INFORMATION
---------------------------------
There are 2 groups of distinct atoms

 Group   1 Type Au  : 9s9p8d5f4g3h1i contracted to 9s9p8d5f4g3h1i pattern {111111111/111111111/11111111/11111/1111/111/1}
 Group   2 Type H   : 5s4p3d1f contracted to 5s4p3d1f pattern {11111/1111/111/1}

Atom   0Au   basis set group =>   1
Atom   1Au   basis set group =>   1
Atom   2Au   basis set group =>   1
Atom   3Au   basis set group =>   1
Atom   4H    basis set group =>   2
----------------------------------
AUXILIARY/JK BASIS SET INFORMATION
----------------------------------
There are 2 groups of distinct atoms

 Group   1 Type Au  : 13s12p11d9f5g3h2i contracted to 13s11p10d8f4g3h2i pattern {1111111111111/21111111111/2111111111/21111111/2111/111/11}
 Group   2 Type H   : 4s2p2d contracted to 2s2p2d pattern {31/11/11}

Atom   0Au   basis set group =>   1
Atom   1Au   basis set group =>   1
Atom   2Au   basis set group =>   1
Atom   3Au   basis set group =>   1
Atom   4H    basis set group =>   2
-------------------------
ECP PARAMETER INFORMATION
-------------------------

 Group 1, Type Au ECP Def2-ECP (replacing 60 core electrons, lmax=3)

Atom   0Au   ECP group =>   1
Atom   1Au   ECP group =>   1
Atom   2Au   ECP group =>   1
Atom   3Au   ECP group =>   1



           ************************************************************
           *        Program running with 24 parallel MPI-processes    *
           *              working on a common directory               *
           ************************************************************
------------------------------------------------------------------------------
                           ORCA GTO INTEGRAL CALCULATION
                           -- RI-GTO INTEGRALS CHOSEN --
------------------------------------------------------------------------------

                         BASIS SET STATISTICS AND STARTUP INFO

Gaussian basis set:
 # of primitive gaussian shells          ...  109
 # of primitive gaussian functions       ...  359
 # of contracted shells                  ...   75
 # of contracted basis functions         ...  253
 Highest angular momentum                ...    4
 Maximum contraction depth               ...    4
Auxiliary gaussian basis set:
 # of primitive gaussian shells          ...  228
 # of primitive gaussian functions       ... 1104
 # of contracted shells                  ...  210
 # of contracted aux-basis functions     ... 1006
 Highest angular momentum                ...    6
 Maximum contraction depth               ...    3
Ratio of auxiliary to basis functions    ...  3.98
Integral package used                  ... LIBINT
 One Electron integrals                  
   ECP integrals                         ... done
 Ordering auxiliary basis shells         ... done
 Integral threshhold             Thresh  ...  1.000e-10
 Primitive cut-off               TCut    ...  1.000e-11
 Pre-screening matrix                    ... done
 Shell pair data                         ... 
 Ordering of the shell pairs             ... done (   0.000 sec) 2752 of 2850 pairs
 Determination of significant pairs      ... done (   0.000 sec)
 Creation of shell pair data             ... done (   0.000 sec)
 Storage of shell pair data              ... done (   0.009 sec)
 Shell pair data done in (   0.009 sec)
 Computing two index integrals           ... done
 Cholesky decomposition of the V-matrix  ... done


Timings:
 Total evaluation time                   ...   1.464 sec (  0.024 min)
 One electron matrix time                ...   0.959 sec (  0.016 min) = 65.5%
 Schwartz matrix evaluation time         ...   0.180 sec (  0.003 min) = 12.3%
 Two index repulsion integral time       ...   0.240 sec (  0.004 min) = 16.4%
 Cholesky decomposition of V             ...   0.045 sec (  0.001 min) =  3.1%
 Three index repulsion integral time     ...   0.000 sec (  0.000 min) =  0.0%



           ************************************************************
           *        Program running with 24 parallel MPI-processes    *
           *              working on a common directory               *
           ************************************************************
-------------------------------------------------------------------------------
                                 ORCA SCF
-------------------------------------------------------------------------------

------------
SCF SETTINGS
------------
Hamiltonian:
 Density Functional     Method          .... DFT(GTOs)
 Exchange Functional    Exchange        .... B88
   X-Alpha parameter    XAlpha          ....  0.666667
   Becke's b parameter  XBeta           ....  0.004200
 Correlation Functional Correlation     .... LYP
 LDA part of GGA corr.  LDAOpt          .... VWN-3
 Gradients option       PostSCFGGA      .... off
 Hybrid DFT is turned on
   Fraction HF Exchange ScalHFX         ....  0.530000
   Scaling of DF-GGA-X  ScalDFX         ....  0.470000
   Scaling of DF-GGA-C  ScalDFC         ....  0.730000
   Scaling of DF-LDA-C  ScalLDAC        ....  0.730000
   Perturbative correction              ....  0.270000
   Density functional embedding theory  .... OFF
 RI-approximation to the Coulomb term is turned on
   Number of auxiliary basis functions  .... 1006
   RI-JK (J+K treated both via RI)      .... on


General Settings:
 Integral files         IntName         .... Au04C2_H_E
 Hartree-Fock type      HFTyp           .... UHF
 Total Charge           Charge          ....    2
 Multiplicity           Mult            ....    2
 Number of Electrons    NEL             ....   75
 Basis Dimension        Dim             ....  253
 Nuclear Repulsion      ENuc            ....    431.5478390239 Eh

Convergence Acceleration:
 DIIS                   CNVDIIS         .... on
   Start iteration      DIISMaxIt       ....    12
   Startup error        DIISStart       ....  0.200000
   # of expansion vecs  DIISMaxEq       ....     5
   Bias factor          DIISBfac        ....   1.050
   Max. coefficient     DIISMaxC        ....  10.000
 Newton-Raphson         CNVNR           .... off
 SOSCF                  CNVSOSCF        .... off
 Level Shifting         CNVShift        .... on
   Level shift para.    LevelShift      ....    0.2500
   Turn off err/grad.   ShiftErr        ....    0.0010
 Zerner damping         CNVZerner       .... off
 Static damping         CNVDamp         .... on
   Fraction old density DampFac         ....    0.7000
   Max. Damping (<1)    DampMax         ....    0.9800
   Min. Damping (>=0)   DampMin         ....    0.0000
   Turn off err/grad.   DampErr         ....    0.1000
 Fernandez-Rico         CNVRico         .... off

SCF Procedure:
 Maximum # iterations   MaxIter         ....   125
 SCF integral mode      SCFMode         .... Direct
   Integral package                     .... LIBINT
 Reset frequency        DirectResetFreq ....    20
 Integral Threshold     Thresh          ....  1.000e-10 Eh
 Primitive CutOff       TCut            ....  1.000e-11 Eh

Convergence Tolerance:
 Convergence Check Mode ConvCheckMode   .... Total+1el-Energy
 Convergence forced     ConvForced      .... 0
 Energy Change          TolE            ....  1.000e-06 Eh
 1-El. energy change                    ....  1.000e-03 Eh
 DIIS Error             TolErr          ....  1.000e-06


Diagonalization of the overlap matrix:
Smallest eigenvalue                        ... 1.106e-03
Time for diagonalization                   ...    0.011 sec
Threshold for overlap eigenvalues          ... 1.000e-08
Number of eigenvalues below threshold      ... 0
Time for construction of square roots      ...    0.008 sec
Total time needed                          ...    0.019 sec

-------------------
DFT GRID GENERATION
-------------------

General Integration Accuracy     IntAcc      ...  4.670
Radial Grid Type                 RadialGrid  ... Gauss-Chebyshev
Angular Grid (max. acc.)         AngularGrid ... Lebedev-302
Angular grid pruning method      GridPruning ... 3 (G Style)
Weight generation scheme         WeightScheme... Becke
Basis function cutoff            BFCut       ...    1.0000e-10
Integration weight cutoff        WCut        ...    1.0000e-14
Grids for H and He will be reduced by one unit

# of grid points (after initial pruning)     ...  50002 (   0.0 sec)
# of grid points (after weights+screening)   ...  49058 (   0.0 sec)
nearest neighbour list constructed           ...    0.0 sec
Grid point re-assignment to atoms done       ...    0.0 sec
Grid point division into batches done        ...    0.4 sec
Reduced shell lists constructed in    0.5 sec

Total number of grid points                  ...    49058
Total number of batches                      ...      769
Average number of points per batch           ...       63
Average number of grid points per atom       ...     9812
Average number of shells per batch           ...    18.53 (24.71%)
Average number of basis functions per batch  ...    53.88 (21.30%)
Average number of large shells per batch     ...    13.18 (71.11%)
Average number of large basis fcns per batch ...    37.47 (69.54%)
Average number of aux-shells per batch       ...    18.53 ( 8.82%)
Average number of aux functions per batch    ...    53.88 ( 5.36%)
Maximum spatial batch extension              ...  31.96, 26.72, 24.85 au
Average spatial batch extension              ...   0.46,  0.39,  0.40 au

Time for grid setup =    0.488 sec

------------------------------
INITIAL GUESS: MODEL POTENTIAL
------------------------------
Loading Hartree-Fock densities                     ... done
  calling /sw/apps/orca/orca_4_2_0_linux_x86-64_openmpi314/orca Au04C2_H_E_atom79.inp > Au04C2_H_E_atom79.out in order to generate an atomic fitting density for atom 0 (Au with ECP) on-the-fly... 
    atom 0 (Au), assumed electronic state with S=2: 1s2 2s2 2p6 3s2 3p6 4s2 3d10 4p6 5s2 4d10 5p6 6s1 4f14 5d10           ... done
Calculating cut-offs                               ... done
Setting up the integral package                    ... done
Initializing the effective Hamiltonian             ... done
Starting the Coulomb interaction                   ... done (   0.0 sec)
Reading the grid                                   ... done
Mapping shells                                     ... done
Starting the XC term evaluation                    ... done (   0.0 sec)
  promolecular density results
     # of electrons  =    317.008725377
     EX              =  -1469.783400565
     EC              =     -6.423812571
     EX+EC           =  -1476.207213136
Transforming the Hamiltonian                       ... done (   0.0 sec)
Diagonalizing the Hamiltonian                      ... done (   0.0 sec)
Back transforming the eigenvectors                 ... done (   0.0 sec)
Now organizing SCF variables                       ... done
                      ------------------
                      INITIAL GUESS DONE (   1.6 sec)
                      ------------------
--------------
SCF ITERATIONS
--------------
ITER       Energy         Delta-E        Max-DP      RMS-DP      [F,P]     Damp
  0   -541.1570129851   0.000000000000 0.11670598  0.00127620  0.5505377 0.7000
  1   -541.2260904057  -0.069077420640 0.09248941  0.00104424  0.4006729 0.7000
  2   -541.3480164861  -0.121926080330 0.06553396  0.00074361  0.2795797 0.7000
                               ***Turning on DIIS***
  3   -541.4431162888  -0.095099802703 0.04725350  0.00053102  0.1940275 0.7000
  4   -541.4919710172  -0.048854728478 0.03436632  0.00039542  0.1342995 0.7000
  5   -541.5075923050  -0.015621287767 0.08023012  0.00098398  0.0929466 0.0000
  6   -541.5365994895  -0.029007184467 0.00321692  0.00009994  0.0099330 0.0000
  7   -541.5375315689  -0.000932079447 0.00121490  0.00002505  0.0041052 0.0000
  8   -541.5376407806  -0.000109211656 0.00083393  0.00002057  0.0004803 0.0000
  9   -541.5376608211  -0.000020040484 0.00061786  0.00001037  0.0002901 0.0000
 10   -541.5376656388  -0.000004817780 0.00030569  0.00000707  0.0002490 0.0000
 11   -541.5376680484  -0.000002409533 0.00022406  0.00000405  0.0000747 0.0000
                 **** Energy Check signals convergence ****

               *****************************************************
               *                     SUCCESS                       *
               *           SCF CONVERGED AFTER  12 CYCLES          *
               *****************************************************


----------------
TOTAL SCF ENERGY
----------------

Total Energy       :         -541.53766866 Eh          -14735.98913 eV

Components:
Nuclear Repulsion  :          431.54783902 Eh           11743.01370 eV
Electronic Energy  :         -973.08550769 Eh          -26479.00283 eV
One Electron Energy:        -1788.06569940 Eh          -48655.74129 eV
Two Electron Energy:          814.98019171 Eh           22176.73846 eV

Virial components:
Potential Energy   :         -725.81818889 Eh          -19750.51702 eV
Kinetic Energy     :          184.28052023 Eh            5014.52789 eV
Virial Ratio       :            3.93865932


DFT components:
N(Alpha)           :       37.999999919610 electrons
N(Beta)            :       36.999999251581 electrons
N(Total)           :       74.999999171190 electrons
E(X)               :      -22.831292621239 Eh       
E(C)               :       -2.006260644571 Eh       
E(XC)              :      -24.837553265811 Eh       
DFET-embed. en.    :        0.000000000000 Eh       

---------------
SCF CONVERGENCE
---------------

  Last Energy change         ...   -6.1491e-07  Tolerance :   1.0000e-06
  Last MAX-Density change    ...    1.4634e-04  Tolerance :   1.0000e-05
  Last RMS-Density change    ...    2.2080e-06  Tolerance :   1.0000e-06
  Last DIIS Error            ...    4.1961e-05  Tolerance :   1.0000e-06

             **** THE GBW FILE WAS UPDATED (Au04C2_H_E.gbw) ****
             **** DENSITY FILE WAS UPDATED (Au04C2_H_E.scfp) ****
             **** ENERGY FILE WAS UPDATED (Au04C2_H_E.en.tmp) ****
----------------------
UHF SPIN CONTAMINATION
----------------------

Warning: in a DFT calculation there is little theoretical justification to 
         calculate <S**2> as in Hartree-Fock theory. We will do it anyways
         but you should keep in mind that the values have only limited relevance

Expectation value of <S**2>     :     0.768712
Ideal value S*(S+1) for S=0.5   :     0.750000
Deviation                       :     0.018712

             **** THE GBW FILE WAS UPDATED (Au04C2_H_E.gbw) ****
             **** DENSITY FILE WAS UPDATED (Au04C2_H_E.scfp) ****
----------------
ORBITAL ENERGIES
----------------
                 SPIN UP ORBITALS
  NO   OCC          E(Eh)            E(eV) 
   0   1.0000      -4.791388      -130.3803 
   1   1.0000      -4.791081      -130.3719 
   2   1.0000      -4.758840      -129.4946 
   3   1.0000      -4.758417      -129.4831 
   4   1.0000      -2.920386       -79.4677 
   5   1.0000      -2.914701       -79.3131 
   6   1.0000      -2.910954       -79.2111 
   7   1.0000      -2.908711       -79.1501 
   8   1.0000      -2.903589       -79.0107 
   9   1.0000      -2.902948       -78.9932 
  10   1.0000      -2.884621       -78.4945 
  11   1.0000      -2.878351       -78.3239 
  12   1.0000      -2.877137       -78.2909 
  13   1.0000      -2.875141       -78.2366 
  14   1.0000      -2.874527       -78.2199 
  15   1.0000      -2.873752       -78.1988 
  16   1.0000      -0.923374       -25.1263 
  17   1.0000      -0.861722       -23.4486 
  18   1.0000      -0.821790       -22.3621 
  19   1.0000      -0.820678       -22.3318 
  20   1.0000      -0.815094       -22.1798 
  21   1.0000      -0.801351       -21.8059 
  22   1.0000      -0.796197       -21.6656 
  23   1.0000      -0.793673       -21.5969 
  24   1.0000      -0.779469       -21.2104 
  25   1.0000      -0.764578       -20.8052 
  26   1.0000      -0.762064       -20.7368 
  27   1.0000      -0.758451       -20.6385 
  28   1.0000      -0.755743       -20.5648 
  29   1.0000      -0.753404       -20.5012 
  30   1.0000      -0.740906       -20.1611 
  31   1.0000      -0.732369       -19.9288 
  32   1.0000      -0.727997       -19.8098 
  33   1.0000      -0.727985       -19.8095 
  34   1.0000      -0.726330       -19.7645 
  35   1.0000      -0.716219       -19.4893 
  36   1.0000      -0.703069       -19.1315 
  37   1.0000      -0.616940       -16.7878 
  38   0.0000      -0.443536       -12.0692 
  39   0.0000      -0.428761       -11.6672 
  40   0.0000      -0.369082       -10.0432 
  41   0.0000      -0.305743        -8.3197 
  42   0.0000      -0.304487        -8.2855 
  43   0.0000      -0.296898        -8.0790 
  44   0.0000      -0.279940        -7.6176 
  45   0.0000      -0.266038        -7.2393 
  46   0.0000      -0.178876        -4.8675 
  47   0.0000      -0.165273        -4.4973 
  48   0.0000      -0.164634        -4.4799 
  49   0.0000      -0.163497        -4.4490 
  50   0.0000      -0.159124        -4.3300 
  51   0.0000      -0.151843        -4.1319 
  52   0.0000      -0.143228        -3.8974 
  53   0.0000      -0.113741        -3.0950 
  54   0.0000      -0.088530        -2.4090 
  55   0.0000      -0.080760        -2.1976 
  56   0.0000      -0.072715        -1.9787 
  57   0.0000      -0.064590        -1.7576 
  58   0.0000      -0.062174        -1.6918 
  59   0.0000      -0.058461        -1.5908 
  60   0.0000      -0.053749        -1.4626 
  61   0.0000      -0.030276        -0.8239 
  62   0.0000       0.003670         0.0999 
  63   0.0000       0.005064         0.1378 
  64   0.0000       0.007763         0.2112 
  65   0.0000       0.020968         0.5706 
  66   0.0000       0.026031         0.7083 
  67   0.0000       0.037305         1.0151 
  68   0.0000       0.037816         1.0290 
  69   0.0000       0.055839         1.5195 
  70   0.0000       0.060258         1.6397 
  71   0.0000       0.061346         1.6693 
  72   0.0000       0.075743         2.0611 
  73   0.0000       0.084013         2.2861 
  74   0.0000       0.096485         2.6255 
  75   0.0000       0.103939         2.8283 
  76   0.0000       0.127568         3.4713 
  77   0.0000       0.156087         4.2474 
  78   0.0000       0.190418         5.1815 
  79   0.0000       0.196016         5.3339 
  80   0.0000       0.200867         5.4659 
  81   0.0000       0.213005         5.7962 
  82   0.0000       0.214344         5.8326 
  83   0.0000       0.216431         5.8894 
  84   0.0000       0.219958         5.9854 
  85   0.0000       0.252253         6.8642 
  86   0.0000       0.257914         7.0182 
  87   0.0000       0.265662         7.2290 
  88   0.0000       0.272064         7.4032 
  89   0.0000       0.278192         7.5700 
  90   0.0000       0.285309         7.7637 
  91   0.0000       0.294886         8.0242 
  92   0.0000       0.314188         8.5495 
  93   0.0000       0.504536        13.7291 
  94   0.0000       0.557014        15.1571 
  95   0.0000       0.623452        16.9650 
  96   0.0000       0.643397        17.5077 
  97   0.0000       0.651999        17.7418 
  98   0.0000       0.657207        17.8835 
  99   0.0000       0.662588        18.0299 
 100   0.0000       0.679360        18.4863 
 101   0.0000       0.721358        19.6291 
 102   0.0000       0.761486        20.7211 
 103   0.0000       0.773359        21.0442 
 104   0.0000       0.789644        21.4873 
 105   0.0000       0.791232        21.5305 
 106   0.0000       0.823611        22.4116 
 107   0.0000       0.854790        23.2600 
 108   0.0000       0.856269        23.3003 
 109   0.0000       0.875798        23.8317 
 110   0.0000       0.885387        24.0926 
 111   0.0000       0.902137        24.5484 
 112   0.0000       0.911160        24.7939 
 113   0.0000       0.912400        24.8277 
 114   0.0000       0.916178        24.9305 
 115   0.0000       0.918744        25.0003 
 116   0.0000       0.946640        25.7594 
 117   0.0000       0.965190        26.2642 
 118   0.0000       0.972866        26.4730 
 119   0.0000       0.983370        26.7588 
 120   0.0000       0.992952        27.0196 
 121   0.0000       1.003690        27.3118 
 122   0.0000       1.021151        27.7869 
 123   0.0000       1.051442        28.6112 
 124   0.0000       1.055905        28.7326 
 125   0.0000       1.056535        28.7498 
 126   0.0000       1.075297        29.2603 
 127   0.0000       1.093458        29.7545 
 128   0.0000       1.113062        30.2880 
 129   0.0000       1.127681        30.6858 
 130   0.0000       1.128091        30.6969 
 131   0.0000       1.170783        31.8586 
 132   0.0000       1.191812        32.4309 
 133   0.0000       1.196063        32.5465 
 134   0.0000       1.205572        32.8053 
 135   0.0000       1.208146        32.8753 
 136   0.0000       1.242534        33.8111 
 137   0.0000       1.255902        34.1748 
 138   0.0000       1.263212        34.3738 
 139   0.0000       1.279480        34.8164 
 140   0.0000       1.280539        34.8452 
 141   0.0000       1.288426        35.0598 
 142   0.0000       1.306635        35.5554 
 143   0.0000       1.310013        35.6473 
 144   0.0000       1.311874        35.6979 
 145   0.0000       1.371435        37.3187 
 146   0.0000       1.371881        37.3308 
 147   0.0000       1.378976        37.5238 
 148   0.0000       1.484911        40.4065 
 149   0.0000       1.488295        40.4986 
 150   0.0000       1.513078        41.1730 
 151   0.0000       1.597242        43.4632 
 152   0.0000       1.624046        44.1925 
 153   0.0000       1.642919        44.7061 
 154   0.0000       1.686766        45.8992 
 155   0.0000       1.746892        47.5354 
 156   0.0000       2.075727        56.4834 
 157   0.0000       2.469581        67.2007 
 158   0.0000       2.494864        67.8887 
 159   0.0000       2.518596        68.5345 
 160   0.0000       2.602296        70.8121 
 161   0.0000       2.964447        80.6667 
 162   0.0000       2.971179        80.8499 
 163   0.0000       2.987613        81.2971 
 164   0.0000       3.239864        88.1612 
 165   0.0000       3.247296        88.3634 
 166   0.0000       3.254246        88.5525 
 167   0.0000       3.261142        88.7402 
 168   0.0000       3.267832        88.9222 
 169   0.0000       3.341017        90.9137 
 170   0.0000       3.354822        91.2893 
 171   0.0000       3.370384        91.7128 
 172   0.0000       3.398307        92.4726 
 173   0.0000       3.406764        92.7028 
 174   0.0000       3.409020        92.7642 
 175   0.0000       3.459143        94.1281 
 176   0.0000       3.464552        94.2753 
 177   0.0000       3.464781        94.2815 
 178   0.0000       3.481987        94.7497 
 179   0.0000       3.511277        95.5467 
 180   0.0000       3.516826        95.6977 
 181   0.0000       3.519094        95.7594 
 182   0.0000       3.531990        96.1103 
 183   0.0000       3.580413        97.4280 
 184   0.0000       3.595299        97.8331 
 185   0.0000       3.597718        97.8989 
 186   0.0000       3.603422        98.0541 
 187   0.0000       3.610483        98.2462 
 188   0.0000       3.615681        98.3877 
 189   0.0000       3.647553        99.2550 
 190   0.0000       3.653957        99.4292 
 191   0.0000       3.725624       101.3794 
 192   0.0000       3.747948       101.9868 
 193   0.0000       3.748714       102.0077 
 194   0.0000       3.758094       102.2629 
 195   0.0000       3.891951       105.9054 
 196   0.0000       3.894488       105.9744 
 197   0.0000       3.895036       105.9893 
 198   0.0000       3.896143       106.0194 
 199   0.0000       3.903379       106.2163 
 200   0.0000       3.904092       106.2357 
 201   0.0000       3.908271       106.3495 
 202   0.0000       3.908632       106.3593 
 203   0.0000       3.913466       106.4908 
 204   0.0000       3.914270       106.5127 
 205   0.0000       3.917090       106.5894 
 206   0.0000       3.917279       106.5946 
 207   0.0000       3.920354       106.6783 
 208   0.0000       3.920751       106.6891 
 209   0.0000       3.921810       106.7179 
 210   0.0000       3.923985       106.7771 
 211   0.0000       3.924818       106.7997 
 212   0.0000       3.927268       106.8664 
 213   0.0000       3.927457       106.8715 
 214   0.0000       3.927759       106.8798 
 215   0.0000       3.930075       106.9428 
 216   0.0000       3.930078       106.9429 
 217   0.0000       3.934258       107.0566 
 218   0.0000       3.962199       107.8169 
 219   0.0000       3.974413       108.1493 
 220   0.0000       3.976303       108.2007 
 221   0.0000       3.976443       108.2045 
 222   0.0000       3.979485       108.2873 
 223   0.0000       3.987432       108.5035 
 224   0.0000       4.006390       109.0194 
 225   0.0000       4.078972       110.9945 
 226   0.0000       4.132731       112.4573 
 227   0.0000       4.155063       113.0650 
 228   0.0000       4.180271       113.7509 
 229   0.0000       4.230683       115.1227 
 230   0.0000       4.405869       119.8898 
 231   0.0000       4.930173       134.1568 
 232   0.0000       5.043875       137.2508 
 233   0.0000      27.141023       738.5448 
 234   0.0000      27.202318       740.2127 
 235   0.0000      27.366687       744.6854 
 236   0.0000      27.495275       748.1845 
 237   0.0000      27.971379       761.1399 
 238   0.0000      28.431358       773.6566 
 239   0.0000      28.575720       777.5849 
 240   0.0000      29.130368       792.6776 
 241   0.0000      29.447852       801.3168 
 242   0.0000      29.484406       802.3115 
 243   0.0000      30.050213       817.7079 
 244   0.0000      30.670275       834.5806 
 245   0.0000      43.793749      1191.6885 
 246   0.0000      44.179505      1202.1855 
 247   0.0000      44.206661      1202.9244 
 248   0.0000      44.210346      1203.0247 
 249   0.0000     202.332364      5505.7435 
 250   0.0000     202.498452      5510.2630 
 251   0.0000     202.505924      5510.4664 
 252   0.0000     202.514135      5510.6898 

                 SPIN DOWN ORBITALS
  NO   OCC          E(Eh)            E(eV) 
   0   1.0000      -4.785302      -130.2147 
   1   1.0000      -4.785031      -130.2073 
   2   1.0000      -4.757283      -129.4523 
   3   1.0000      -4.756872      -129.4411 
   4   1.0000      -2.909368       -79.1679 
   5   1.0000      -2.902604       -78.9839 
   6   1.0000      -2.902361       -78.9772 
   7   1.0000      -2.901430       -78.9519 
   8   1.0000      -2.901011       -78.9405 
   9   1.0000      -2.900413       -78.9243 
  10   1.0000      -2.883636       -78.4677 
  11   1.0000      -2.876642       -78.2774 
  12   1.0000      -2.874997       -78.2327 
  13   1.0000      -2.874726       -78.2253 
  14   1.0000      -2.874209       -78.2112 
  15   1.0000      -2.873011       -78.1786 
  16   1.0000      -0.891335       -24.2545 
  17   1.0000      -0.853478       -23.2243 
  18   1.0000      -0.817480       -22.2448 
  19   1.0000      -0.816833       -22.2272 
  20   1.0000      -0.809499       -22.0276 
  21   1.0000      -0.797187       -21.6926 
  22   1.0000      -0.792332       -21.5605 
  23   1.0000      -0.789734       -21.4897 
  24   1.0000      -0.769409       -20.9367 
  25   1.0000      -0.756521       -20.5860 
  26   1.0000      -0.755887       -20.5687 
  27   1.0000      -0.755243       -20.5512 
  28   1.0000      -0.747763       -20.3477 
  29   1.0000      -0.746937       -20.3252 
  30   1.0000      -0.736846       -20.0506 
  31   1.0000      -0.727282       -19.7903 
  32   1.0000      -0.726573       -19.7710 
  33   1.0000      -0.720978       -19.6188 
  34   1.0000      -0.712337       -19.3837 
  35   1.0000      -0.710924       -19.3452 
  36   1.0000      -0.697504       -18.9800 
  37   0.0000      -0.477743       -13.0001 
  38   0.0000      -0.438115       -11.9217 
  39   0.0000      -0.422788       -11.5046 
  40   0.0000      -0.345666        -9.4061 
  41   0.0000      -0.298513        -8.1229 
  42   0.0000      -0.292467        -7.9584 
  43   0.0000      -0.290253        -7.8982 
  44   0.0000      -0.275062        -7.4848 
  45   0.0000      -0.263661        -7.1746 
  46   0.0000      -0.173875        -4.7314 
  47   0.0000      -0.165589        -4.5059 
  48   0.0000      -0.162007        -4.4084 
  49   0.0000      -0.161638        -4.3984 
  50   0.0000      -0.157688        -4.2909 
  51   0.0000      -0.150168        -4.0863 
  52   0.0000      -0.132968        -3.6182 
  53   0.0000      -0.110717        -3.0128 
  54   0.0000      -0.086863        -2.3637 
  55   0.0000      -0.077394        -2.1060 
  56   0.0000      -0.070896        -1.9292 
  57   0.0000      -0.061757        -1.6805 
  58   0.0000      -0.060244        -1.6393 
  59   0.0000      -0.057261        -1.5581 
  60   0.0000      -0.050141        -1.3644 
  61   0.0000      -0.029186        -0.7942 
  62   0.0000       0.005295         0.1441 
  63   0.0000       0.007640         0.2079 
  64   0.0000       0.010726         0.2919 
  65   0.0000       0.022508         0.6125 
  66   0.0000       0.028236         0.7683 
  67   0.0000       0.039651         1.0790 
  68   0.0000       0.042422         1.1544 
  69   0.0000       0.057996         1.5781 
  70   0.0000       0.063253         1.7212 
  71   0.0000       0.067809         1.8452 
  72   0.0000       0.077109         2.0982 
  73   0.0000       0.094414         2.5691 
  74   0.0000       0.098411         2.6779 
  75   0.0000       0.105957         2.8832 
  76   0.0000       0.128134         3.4867 
  77   0.0000       0.157101         4.2749 
  78   0.0000       0.193501         5.2654 
  79   0.0000       0.197907         5.3853 
  80   0.0000       0.201849         5.4926 
  81   0.0000       0.214844         5.8462 
  82   0.0000       0.215098         5.8531 
  83   0.0000       0.219916         5.9842 
  84   0.0000       0.226417         6.1611 
  85   0.0000       0.256308         6.9745 
  86   0.0000       0.259589         7.0638 
  87   0.0000       0.267323         7.2742 
  88   0.0000       0.273335         7.4378 
  89   0.0000       0.282334         7.6827 
  90   0.0000       0.287137         7.8134 
  91   0.0000       0.297849         8.1049 
  92   0.0000       0.319328         8.6894 
  93   0.0000       0.516173        14.0458 
  94   0.0000       0.564367        15.3572 
  95   0.0000       0.629065        17.1177 
  96   0.0000       0.647778        17.6269 
  97   0.0000       0.654647        17.8139 
  98   0.0000       0.665454        18.1079 
  99   0.0000       0.665884        18.1196 
 100   0.0000       0.681727        18.5507 
 101   0.0000       0.723976        19.7004 
 102   0.0000       0.764901        20.8140 
 103   0.0000       0.780455        21.2373 
 104   0.0000       0.793850        21.6018 
 105   0.0000       0.794067        21.6077 
 106   0.0000       0.828595        22.5472 
 107   0.0000       0.857354        23.3298 
 108   0.0000       0.857430        23.3319 
 109   0.0000       0.883094        24.0302 
 110   0.0000       0.888976        24.1903 
 111   0.0000       0.905794        24.6479 
 112   0.0000       0.914635        24.8885 
 113   0.0000       0.914688        24.8899 
 114   0.0000       0.919006        25.0074 
 115   0.0000       0.924664        25.1614 
 116   0.0000       0.951528        25.8924 
 117   0.0000       0.972938        26.4750 
 118   0.0000       0.977810        26.6076 
 119   0.0000       0.987159        26.8620 
 120   0.0000       0.994994        27.0752 
 121   0.0000       1.006698        27.3936 
 122   0.0000       1.028073        27.9753 
 123   0.0000       1.052682        28.6449 
 124   0.0000       1.060361        28.8539 
 125   0.0000       1.061479        28.8843 
 126   0.0000       1.081899        29.4400 
 127   0.0000       1.096677        29.8421 
 128   0.0000       1.114706        30.3327 
 129   0.0000       1.131988        30.8030 
 130   0.0000       1.134762        30.8785 
 131   0.0000       1.175173        31.9781 
 132   0.0000       1.197636        32.5893 
 133   0.0000       1.198204        32.6048 
 134   0.0000       1.211303        32.9612 
 135   0.0000       1.211698        32.9720 
 136   0.0000       1.246200        33.9108 
 137   0.0000       1.259531        34.2736 
 138   0.0000       1.268236        34.5105 
 139   0.0000       1.283036        34.9132 
 140   0.0000       1.284688        34.9581 
 141   0.0000       1.290013        35.1030 
 142   0.0000       1.312724        35.7210 
 143   0.0000       1.313501        35.7422 
 144   0.0000       1.313679        35.7470 
 145   0.0000       1.375159        37.4200 
 146   0.0000       1.375164        37.4201 
 147   0.0000       1.381891        37.6032 
 148   0.0000       1.487102        40.4661 
 149   0.0000       1.491179        40.5770 
 150   0.0000       1.516091        41.2549 
 151   0.0000       1.599263        43.5182 
 152   0.0000       1.638345        44.5816 
 153   0.0000       1.649820        44.8939 
 154   0.0000       1.691087        46.0168 
 155   0.0000       1.750440        47.6319 
 156   0.0000       2.079206        56.5781 
 157   0.0000       2.474734        67.3409 
 158   0.0000       2.497136        67.9505 
 159   0.0000       2.521288        68.6077 
 160   0.0000       2.634263        71.6819 
 161   0.0000       2.981362        81.1270 
 162   0.0000       2.987023        81.2810 
 163   0.0000       3.001950        81.6872 
 164   0.0000       3.248503        88.3963 
 165   0.0000       3.255863        88.5965 
 166   0.0000       3.260105        88.7120 
 167   0.0000       3.262438        88.7755 
 168   0.0000       3.277286        89.1795 
 169   0.0000       3.342228        90.9466 
 170   0.0000       3.357558        91.3638 
 171   0.0000       3.374849        91.8343 
 172   0.0000       3.400480        92.5318 
 173   0.0000       3.407890        92.7334 
 174   0.0000       3.410553        92.8059 
 175   0.0000       3.463203        94.2385 
 176   0.0000       3.468811        94.3912 
 177   0.0000       3.472300        94.4861 
 178   0.0000       3.485033        94.8326 
 179   0.0000       3.514980        95.6475 
 180   0.0000       3.519363        95.7667 
 181   0.0000       3.521812        95.8334 
 182   0.0000       3.534390        96.1756 
 183   0.0000       3.583769        97.5193 
 184   0.0000       3.605823        98.1194 
 185   0.0000       3.608042        98.1798 
 186   0.0000       3.611328        98.2692 
 187   0.0000       3.611694        98.2792 
 188   0.0000       3.636980        98.9673 
 189   0.0000       3.649689        99.3131 
 190   0.0000       3.655452        99.4699 
 191   0.0000       3.730704       101.5176 
 192   0.0000       3.751695       102.0888 
 193   0.0000       3.753089       102.1267 
 194   0.0000       3.760339       102.3240 
 195   0.0000       3.893723       105.9536 
 196   0.0000       3.895704       106.0075 
 197   0.0000       3.898504       106.0837 
 198   0.0000       3.898888       106.0941 
 199   0.0000       3.907459       106.3274 
 200   0.0000       3.907982       106.3416 
 201   0.0000       3.909853       106.3925 
 202   0.0000       3.911404       106.4347 
 203   0.0000       3.914965       106.5316 
 204   0.0000       3.916887       106.5839 
 205   0.0000       3.918250       106.6210 
 206   0.0000       3.918986       106.6410 
 207   0.0000       3.922610       106.7396 
 208   0.0000       3.923033       106.7511 
 209   0.0000       3.926274       106.8393 
 210   0.0000       3.926959       106.8580 
 211   0.0000       3.927559       106.8743 
 212   0.0000       3.927918       106.8841 
 213   0.0000       3.928710       106.9056 
 214   0.0000       3.930425       106.9523 
 215   0.0000       3.931877       106.9918 
 216   0.0000       3.932906       107.0198 
 217   0.0000       3.936428       107.1157 
 218   0.0000       3.964558       107.8811 
 219   0.0000       3.976090       108.1949 
 220   0.0000       3.977686       108.2383 
 221   0.0000       3.982920       108.3808 
 222   0.0000       3.990469       108.5862 
 223   0.0000       3.992330       108.6368 
 224   0.0000       4.009298       109.0986 
 225   0.0000       4.085500       111.1721 
 226   0.0000       4.150245       112.9339 
 227   0.0000       4.162929       113.2790 
 228   0.0000       4.181218       113.7767 
 229   0.0000       4.240316       115.3849 
 230   0.0000       4.419155       120.2513 
 231   0.0000       4.943779       134.5271 
 232   0.0000       5.056472       137.5936 
 233   0.0000      27.140732       738.5369 
 234   0.0000      27.202396       740.2148 
 235   0.0000      27.366980       744.6934 
 236   0.0000      27.495577       748.1927 
 237   0.0000      27.971467       761.1423 
 238   0.0000      28.432448       773.6862 
 239   0.0000      28.576309       777.6009 
 240   0.0000      29.130690       792.6864 
 241   0.0000      29.448348       801.3303 
 242   0.0000      29.483721       802.2928 
 243   0.0000      30.049519       817.6890 
 244   0.0000      30.668225       834.5248 
 245   0.0000      43.793269      1191.6754 
 246   0.0000      44.178990      1202.1714 
 247   0.0000      44.206388      1202.9170 
 248   0.0000      44.209521      1203.0022 
 249   0.0000     202.321455      5505.4467 
 250   0.0000     202.488385      5509.9891 
 251   0.0000     202.489205      5510.0114 
 252   0.0000     202.511555      5510.6196 

                    ********************************
                    * MULLIKEN POPULATION ANALYSIS *
                    ********************************

--------------------------------------------
MULLIKEN ATOMIC CHARGES AND SPIN POPULATIONS
--------------------------------------------
   0 Au:    0.503832    0.124322
   1 Au:    0.503827    0.124321
   2 Au:    0.442032    0.232553
   3 Au:    0.442036    0.232553
   4 H :    0.108273    0.286252
Sum of atomic charges         :    2.0000000
Sum of atomic spin populations:    1.0000000

-----------------------------------------------------
MULLIKEN REDUCED ORBITAL CHARGES AND SPIN POPULATIONS
-----------------------------------------------------
CHARGE
  0 Aus       :     2.554177  s :     2.554177
      pz      :     2.102600  p :     6.220340
      px      :     2.019289
      py      :     2.098451
      dz2     :     1.970331  d :     9.709693
      dxz     :     1.970028
      dyz     :     1.844377
      dx2y2   :     1.943692
      dxy     :     1.981265
      f0      :     0.001314  f :     0.011743
      f+1     :     0.001016
      f-1     :     0.002007
      f+2     :     0.003006
      f-2     :     0.001170
      f+3     :     0.001324
      f-3     :     0.001906
      g0      :     0.000019  g :     0.000216
      g+1     :     0.000008
      g-1     :     0.000017
      g+2     :     0.000042
      g-2     :     0.000015
      g+3     :     0.000014
      g-3     :     0.000048
      g+4     :     0.000030
      g-4     :     0.000022
  1 Aus       :     2.554180  s :     2.554180
      pz      :     2.102600  p :     6.220341
      px      :     2.019289
      py      :     2.098453
      dz2     :     1.970331  d :     9.709693
      dxz     :     1.970028
      dyz     :     1.844377
      dx2y2   :     1.943692
      dxy     :     1.981265
      f0      :     0.001314  f :     0.011743
      f+1     :     0.001016
      f-1     :     0.002007
      f+2     :     0.003006
      f-2     :     0.001170
      f+3     :     0.001324
      f-3     :     0.001906
      g0      :     0.000019  g :     0.000216
      g+1     :     0.000008
      g-1     :     0.000017
      g+2     :     0.000042
      g-2     :     0.000015
      g+3     :     0.000014
      g-3     :     0.000048
      g+4     :     0.000030
      g-4     :     0.000022
  2 Aus       :     2.605144  s :     2.605144
      pz      :     2.039179  p :     6.119200
      px      :     2.065043
      py      :     2.014978
      dz2     :     1.962001  d :     9.824217
      dxz     :     1.977191
      dyz     :     1.957532
      dx2y2   :     1.950428
      dxy     :     1.977066
      f0      :     0.001105  f :     0.009269
      f+1     :     0.001686
      f-1     :     0.000933
      f+2     :     0.001419
      f-2     :     0.001108
      f+3     :     0.001515
      f-3     :     0.001503
      g0      :     0.000011  g :     0.000138
      g+1     :     0.000020
      g-1     :     0.000007
      g+2     :     0.000018
      g-2     :     0.000016
      g+3     :     0.000016
      g-3     :     0.000010
      g+4     :     0.000021
      g-4     :     0.000020
  3 Aus       :     2.605141  s :     2.605141
      pz      :     2.039179  p :     6.119198
      px      :     2.065042
      py      :     2.014978
      dz2     :     1.962001  d :     9.824217
      dxz     :     1.977191
      dyz     :     1.957532
      dx2y2   :     1.950428
      dxy     :     1.977066
      f0      :     0.001105  f :     0.009269
      f+1     :     0.001686
      f-1     :     0.000933
      f+2     :     0.001419
      f-2     :     0.001108
      f+3     :     0.001515
      f-3     :     0.001503
      g0      :     0.000011  g :     0.000138
      g+1     :     0.000020
      g-1     :     0.000007
      g+2     :     0.000018
      g-2     :     0.000016
      g+3     :     0.000016
      g-3     :     0.000010
      g+4     :     0.000021
      g-4     :     0.000020
  4 H s       :     0.865417  s :     0.865417
      pz      :    -0.007090  p :     0.022062
      px      :     0.007220
      py      :     0.021932
      dz2     :     0.000809  d :     0.004248
      dxz     :     0.000606
      dyz     :     0.001473
      dx2y2   :     0.000737
      dxy     :     0.000624

SPIN
  0 Aus       :    -0.025740  s :    -0.025740
      pz      :     0.061646  p :     0.058929
      px      :    -0.000418
      py      :    -0.002299
      dz2     :    -0.001589  d :     0.090861
      dxz     :     0.000905
      dyz     :     0.078153
      dx2y2   :     0.012728
      dxy     :     0.000665
      f0      :    -0.000023  f :     0.000259
      f+1     :    -0.000000
      f-1     :     0.000027
      f+2     :     0.000252
      f-2     :    -0.000038
      f+3     :    -0.000026
      f-3     :     0.000068
      g0      :     0.000001  g :     0.000013
      g+1     :    -0.000000
      g-1     :    -0.000000
      g+2     :     0.000007
      g-2     :    -0.000000
      g+3     :     0.000001
      g-3     :     0.000003
      g+4     :     0.000000
      g-4     :     0.000000
  1 Aus       :    -0.025740  s :    -0.025740
      pz      :     0.061646  p :     0.058928
      px      :    -0.000418
      py      :    -0.002300
      dz2     :    -0.001589  d :     0.090861
      dxz     :     0.000905
      dyz     :     0.078153
      dx2y2   :     0.012728
      dxy     :     0.000665
      f0      :    -0.000023  f :     0.000259
      f+1     :    -0.000000
      f-1     :     0.000027
      f+2     :     0.000252
      f-2     :    -0.000038
      f+3     :    -0.000026
      f-3     :     0.000068
      g0      :     0.000001  g :     0.000013
      g+1     :    -0.000000
      g-1     :    -0.000000
      g+2     :     0.000007
      g-2     :    -0.000000
      g+3     :     0.000001
      g-3     :     0.000003
      g+4     :     0.000000
      g-4     :     0.000000
  2 Aus       :     0.213277  s :     0.213277
      pz      :    -0.005825  p :     0.012295
      px      :     0.017235
      py      :     0.000885
      dz2     :     0.009252  d :     0.006882
      dxz     :     0.004291
      dyz     :     0.001100
      dx2y2   :    -0.006737
      dxy     :    -0.001024
      f0      :     0.000018  f :     0.000100
      f+1     :     0.000064
      f-1     :    -0.000035
      f+2     :     0.000029
      f-2     :    -0.000032
      f+3     :     0.000020
      f-3     :     0.000035
      g0      :    -0.000000  g :    -0.000000
      g+1     :     0.000000
      g-1     :     0.000000
      g+2     :    -0.000000
      g-2     :     0.000000
      g+3     :     0.000000
      g-3     :    -0.000000
      g+4     :    -0.000000
      g-4     :    -0.000000
  3 Aus       :     0.213276  s :     0.213276
      pz      :    -0.005825  p :     0.012295
      px      :     0.017235
      py      :     0.000885
      dz2     :     0.009252  d :     0.006882
      dxz     :     0.004291
      dyz     :     0.001100
      dx2y2   :    -0.006737
      dxy     :    -0.001024
      f0      :     0.000018  f :     0.000100
      f+1     :     0.000064
      f-1     :    -0.000035
      f+2     :     0.000029
      f-2     :    -0.000032
      f+3     :     0.000020
      f-3     :     0.000035
      g0      :    -0.000000  g :    -0.000000
      g+1     :     0.000000
      g-1     :     0.000000
      g+2     :    -0.000000
      g-2     :     0.000000
      g+3     :     0.000000
      g-3     :    -0.000000
      g+4     :    -0.000000
      g-4     :    -0.000000
  4 H s       :     0.283157  s :     0.283157
      pz      :     0.001156  p :     0.002983
      px      :     0.001604
      py      :     0.000223
      dz2     :     0.000043  d :     0.000112
      dxz     :     0.000001
      dyz     :     0.000001
      dx2y2   :     0.000033
      dxy     :     0.000033


                     *******************************
                     * LOEWDIN POPULATION ANALYSIS *
                     *******************************

-------------------------------------------
LOEWDIN ATOMIC CHARGES AND SPIN POPULATIONS
-------------------------------------------
   0 Au:    0.575571    0.251314
   1 Au:    0.575571    0.251314
   2 Au:    0.483555    0.161765
   3 Au:    0.483556    0.161765
   4 H :   -0.118252    0.173842

----------------------------------------------------
LOEWDIN REDUCED ORBITAL CHARGES AND SPIN POPULATIONS
----------------------------------------------------
CHARGE
  0 Aus       :     2.315782  s :     2.315782
      pz      :     2.201249  p :     6.355030
      px      :     2.028152
      py      :     2.125630
      dz2     :     1.960595  d :     9.732022
      dxz     :     1.973686
      dyz     :     1.870006
      dx2y2   :     1.956111
      dxy     :     1.971624
      f0      :     0.002085  f :     0.021299
      f+1     :     0.001798
      f-1     :     0.003664
      f+2     :     0.005644
      f-2     :     0.002324
      f+3     :     0.001817
      f-3     :     0.003968
      g0      :     0.000030  g :     0.000296
      g+1     :     0.000011
      g-1     :     0.000021
      g+2     :     0.000061
      g-2     :     0.000026
      g+3     :     0.000014
      g-3     :     0.000069
      g+4     :     0.000042
      g-4     :     0.000023
  1 Aus       :     2.315783  s :     2.315783
      pz      :     2.201249  p :     6.355030
      px      :     2.028152
      py      :     2.125630
      dz2     :     1.960595  d :     9.732022
      dxz     :     1.973686
      dyz     :     1.870006
      dx2y2   :     1.956111
      dxy     :     1.971624
      f0      :     0.002085  f :     0.021299
      f+1     :     0.001798
      f-1     :     0.003664
      f+2     :     0.005644
      f-2     :     0.002324
      f+3     :     0.001817
      f-3     :     0.003968
      g0      :     0.000030  g :     0.000296
      g+1     :     0.000011
      g-1     :     0.000021
      g+2     :     0.000061
      g-2     :     0.000026
      g+3     :     0.000014
      g-3     :     0.000069
      g+4     :     0.000042
      g-4     :     0.000023
  2 Aus       :     2.399925  s :     2.399925
      pz      :     2.087741  p :     6.220729
      px      :     2.105806
      py      :     2.027182
      dz2     :     1.974603  d :     9.879176
      dxz     :     1.985047
      dyz     :     1.970480
      dx2y2   :     1.970426
      dxy     :     1.978620
      f0      :     0.001550  f :     0.016409
      f+1     :     0.003604
      f-1     :     0.001668
      f+2     :     0.001988
      f-2     :     0.002189
      f+3     :     0.003059
      f-3     :     0.002352
      g0      :     0.000018  g :     0.000205
      g+1     :     0.000027
      g-1     :     0.000010
      g+2     :     0.000026
      g-2     :     0.000026
      g+3     :     0.000022
      g-3     :     0.000014
      g+4     :     0.000035
      g-4     :     0.000028
  3 Aus       :     2.399925  s :     2.399925
      pz      :     2.087741  p :     6.220729
      px      :     2.105806
      py      :     2.027182
      dz2     :     1.974603  d :     9.879176
      dxz     :     1.985047
      dyz     :     1.970480
      dx2y2   :     1.970426
      dxy     :     1.978620
      f0      :     0.001550  f :     0.016409
      f+1     :     0.003604
      f-1     :     0.001668
      f+2     :     0.001988
      f-2     :     0.002189
      f+3     :     0.003059
      f-3     :     0.002352
      g0      :     0.000018  g :     0.000205
      g+1     :     0.000027
      g-1     :     0.000010
      g+2     :     0.000026
      g-2     :     0.000026
      g+3     :     0.000022
      g-3     :     0.000014
      g+4     :     0.000035
      g-4     :     0.000028
  4 H s       :     0.787739  s :     0.787739
      pz      :     0.125940  p :     0.301571
      px      :     0.048221
      py      :     0.127410
      dz2     :     0.004902  d :     0.028942
      dxz     :     0.002961
      dyz     :     0.012524
      dx2y2   :     0.004625
      dxy     :     0.003931

SPIN
  0 Aus       :    -0.005986  s :    -0.005986
      pz      :     0.134242  p :     0.139679
      px      :     0.000932
      py      :     0.004504
      dz2     :    -0.000756  d :     0.115576
      dxz     :     0.001874
      dyz     :     0.097883
      dx2y2   :     0.015370
      dxy     :     0.001204
      f0      :     0.000155  f :     0.002003
      f+1     :     0.000051
      f-1     :     0.000265
      f+2     :     0.001035
      f-2     :     0.000058
      f+3     :    -0.000015
      f-3     :     0.000454
      g0      :     0.000006  g :     0.000041
      g+1     :    -0.000000
      g-1     :    -0.000000
      g+2     :     0.000020
      g-2     :     0.000001
      g+3     :     0.000001
      g-3     :     0.000011
      g+4     :     0.000003
      g-4     :     0.000000
  1 Aus       :    -0.005986  s :    -0.005986
      pz      :     0.134242  p :     0.139679
      px      :     0.000932
      py      :     0.004504
      dz2     :    -0.000756  d :     0.115576
      dxz     :     0.001874
      dyz     :     0.097883
      dx2y2   :     0.015370
      dxy     :     0.001204
      f0      :     0.000155  f :     0.002003
      f+1     :     0.000051
      f-1     :     0.000265
      f+2     :     0.001035
      f-2     :     0.000058
      f+3     :    -0.000015
      f-3     :     0.000454
      g0      :     0.000006  g :     0.000041
      g+1     :    -0.000000
      g-1     :    -0.000000
      g+2     :     0.000020
      g-2     :     0.000001
      g+3     :     0.000001
      g-3     :     0.000011
      g+4     :     0.000003
      g-4     :     0.000000
  2 Aus       :     0.130664  s :     0.130664
      pz      :     0.005230  p :     0.018261
      px      :     0.012700
      py      :     0.000331
      dz2     :     0.014267  d :     0.012648
      dxz     :     0.003458
      dyz     :     0.000695
      dx2y2   :    -0.004468
      dxy     :    -0.001303
      f0      :     0.000026  f :     0.000192
      f+1     :     0.000254
      f-1     :    -0.000051
      f+2     :     0.000025
      f-2     :    -0.000063
      f+3     :    -0.000034
      f-3     :     0.000035
      g0      :    -0.000000  g :    -0.000000
      g+1     :     0.000001
      g-1     :     0.000000
      g+2     :    -0.000000
      g-2     :    -0.000000
      g+3     :    -0.000000
      g-3     :    -0.000000
      g+4     :    -0.000000
      g-4     :     0.000000
  3 Aus       :     0.130664  s :     0.130664
      pz      :     0.005230  p :     0.018261
      px      :     0.012700
      py      :     0.000331
      dz2     :     0.014267  d :     0.012648
      dxz     :     0.003458
      dyz     :     0.000695
      dx2y2   :    -0.004468
      dxy     :    -0.001303
      f0      :     0.000026  f :     0.000192
      f+1     :     0.000254
      f-1     :    -0.000051
      f+2     :     0.000025
      f-2     :    -0.000063
      f+3     :    -0.000034
      f-3     :     0.000035
      g0      :    -0.000000  g :    -0.000000
      g+1     :     0.000001
      g-1     :     0.000000
      g+2     :    -0.000000
      g-2     :    -0.000000
      g+3     :    -0.000000
      g-3     :    -0.000000
      g+4     :    -0.000000
      g-4     :     0.000000
  4 H s       :     0.175663  s :     0.175663
      pz      :    -0.000536  p :    -0.001456
      px      :     0.001195
      py      :    -0.002115
      dz2     :     0.000194  d :    -0.000366
      dxz     :    -0.000026
      dyz     :    -0.000555
      dx2y2   :     0.000003
      dxy     :     0.000018


                      *****************************
                      * MAYER POPULATION ANALYSIS *
                      *****************************

  NA   - Mulliken gross atomic population
  ZA   - Total nuclear charge
  QA   - Mulliken gross atomic charge
  VA   - Mayer's total valence
  BVA  - Mayer's bonded valence
  FA   - Mayer's free valence

  ATOM       NA         ZA         QA         VA         BVA        FA
  0 Au    18.4962    19.0000     0.5038     1.6157     1.5577     0.0579
  1 Au    18.4962    19.0000     0.5038     1.6157     1.5577     0.0579
  2 Au    18.5580    19.0000     0.4420     1.2844     1.2071     0.0773
  3 Au    18.5580    19.0000     0.4420     1.2844     1.2071     0.0773
  4 H      0.8917     1.0000     0.1083     1.0319     0.9526     0.0793

  Mayer bond orders larger than 0.100000
B(  0-Au,  1-Au) :   0.4960 B(  0-Au,  2-Au) :   0.3019 B(  0-Au,  3-Au) :   0.3019 
B(  0-Au,  4-H ) :   0.4579 B(  1-Au,  2-Au) :   0.3019 B(  1-Au,  3-Au) :   0.3019 
B(  1-Au,  4-H ) :   0.4579 B(  2-Au,  3-Au) :   0.5850 

-------
TIMINGS
-------

Total SCF time: 0 days 0 hours 0 min 11 sec 

Total time                  ....      11.657 sec
Sum of individual times     ....      11.454 sec  ( 98.3%)

Fock matrix formation       ....       9.510 sec  ( 81.6%)
  XC integration            ....       0.993 sec  ( 10.4% of F)
    Basis function eval.    ....       0.107 sec  ( 10.8% of XC)
    Density eval.           ....       0.172 sec  ( 17.3% of XC)
    XC-Functional eval.     ....       0.026 sec  (  2.6% of XC)
    XC-Potential eval.      ....       0.279 sec  ( 28.1% of XC)
Diagonalization             ....       0.250 sec  (  2.1%)
Density matrix formation    ....       0.025 sec  (  0.2%)
Population analysis         ....       0.022 sec  (  0.2%)
Initial guess               ....       1.072 sec  (  9.2%)
Orbital Transformation      ....       0.000 sec  (  0.0%)
Orbital Orthonormalization  ....       0.000 sec  (  0.0%)
DIIS solution               ....       0.086 sec  (  0.7%)
Grid generation             ....       0.488 sec  (  4.2%)


           ************************************************************
           *        Program running with 24 parallel MPI-processes    *
           *              working on a common directory               *
           ************************************************************

------------------------------------------------------------------------------
                                ORCA  MP2 
------------------------------------------------------------------------------

Freezing NCore=0 chemical core electrons

-------------
RI-MP2 ENERGY
-------------
Dimension of the basis                    ...  253
Memory devoted to MP2                     ... 5000 MB   
Data format for buffers                   ... DOUBLE
Compression type for matrix containers    ... UNCOMPRESSED
Overall scaling of the MP2 energy         ...   2.700e-01
Calculating two index integrals           ... done (    0.019 sec)
Cholesky decomposition of V**-1           ... done (    0.032 sec)

-----------------
RI-TRANSFORMATION (AUX index driven)
-----------------

Dimension of the orbital-basis         ... 253
Dimension of the aux-basis             ... 811
Transformation of internal/external MOs...    0-  37 to   38- 252
Number Format for Storage              ... Double (8 Byte)
Integral mode                          ... Direct

First Phase: integral generation and transformation of MO indices
  Aux angular momentum 0               ... done (    0.003 sec)
  Aux angular momentum 1               ... done (    0.006 sec)
  Aux angular momentum 2               ... done (    0.010 sec)
  Aux angular momentum 3               ... done (    0.008 sec)
  Aux angular momentum 4               ... done (    0.012 sec)
  Aux angular momentum 5               ... done (    0.017 sec)
  Aux angular momentum 6               ... done (    0.024 sec)
Closing buffer VIA ( 0.05 GB; CompressionRatio= 1.00)
  Phase 1 completed in     0.152 sec
Second Phase: sorting and transformation of aux index

IA-Transformation
Memory available                       ... 4989 MB 
Max. # MO pairs treated in a batch     ... 2    
# of internal orbitals                 ... 38
# batches for internal orbitals        ... 1
Closing buffer IAV ( 0.00 GB; CompressionRatio= 1.00)
(ia|v) transformation done in     0.033 sec

  Phase 2 completed in     0.080 sec
RI-Integral transformation completed in     0.233 sec

-----------------
RI-TRANSFORMATION (AUX index driven)
-----------------

Dimension of the orbital-basis         ... 253
Dimension of the aux-basis             ... 811
Transformation of internal/external MOs...    0-  36 to   37- 252
Number Format for Storage              ... Double (8 Byte)
Integral mode                          ... Direct

First Phase: integral generation and transformation of MO indices
  Aux angular momentum 0               ... done (    0.003 sec)
  Aux angular momentum 1               ... done (    0.006 sec)
  Aux angular momentum 2               ... done (    0.010 sec)
  Aux angular momentum 3               ... done (    0.008 sec)
  Aux angular momentum 4               ... done (    0.012 sec)
  Aux angular momentum 5               ... done (    0.017 sec)
  Aux angular momentum 6               ... done (    0.024 sec)
Closing buffer VIA ( 0.05 GB; CompressionRatio= 1.00)
  Phase 1 completed in     0.156 sec
Second Phase: sorting and transformation of aux index

IA-Transformation
Memory available                       ... 4989 MB 
Max. # MO pairs treated in a batch     ... 2    
# of internal orbitals                 ... 37
# batches for internal orbitals        ... 1
Closing buffer IAV ( 0.00 GB; CompressionRatio= 1.00)
(ia|v) transformation done in     0.030 sec

  Phase 2 completed in     0.076 sec
RI-Integral transformation completed in     0.233 sec
Opening buffers                              ... done

Starting loop over batches of integrals:

Operator 0  - window                       ... (  0- 37)x( 38-252)
Operator 0  - Memory available             ...  5000 MB
Operator 0  - Memory needed per MO         ...   1.3 MB
Operator 0  - Number of orbitals per batch ... 2
Operator 0  - Number of batches            ... 1

OPERATOR  0   PASS   0:  MOs     0 ...    1 +    2 ...    3 +    4 ...    5 +    6 ...    7
                            +    8 ...    9 +   10 ...   11 +   12 ...   13 +   14 ...   15
                            +   16 ...   17 +   18 ...   19 +   20 ...   21 +   22 ...   23
                            +   24 ...   25 +   26 ...   27 +   28 ...   29 +   30 ...   31
                            +   32 ...   33 +   34 ...   35 +   36 ...   37
  Reading integrals       ... ok

Operator 1  - window                       ... (  0- 36)x( 37-252)
Operator 1  - Memory available             ...  5000 MB
Operator 1  - Memory needed per MO         ...   1.3 MB
Operator 1  - Number of orbitals per batch ... 2
Operator 1  - Number of batches            ... 1

OPERATOR  1   PASS   0:  MOs     0 ...    1 +    2 ...    3 +    4 ...    5 +    6 ...    7
                            +    8 ...    9 +   10 ...   11 +   12 ...   13 +   14 ...   15
                            +   16 ...   17 +   18 ...   19 +   20 ...   21 +   22 ...   23
                            +   24 ...   25 +   26 ...   27 +   28 ...   29 +   30 ...   31
                            +   32 ...   33 +   34 ...   35 +   36 ...   36
  Reading integrals       ... ok
Time spent in pair loops =     0.488 sec

Correlation energy components}
 E2 and T2 for alpha/alpha pairs :     -0.132902752 Eh      0.000000000
 E2 and T2 for beta/beta   pairs :     -0.130187803 Eh      0.000000000
 E2 and T2 for alpha/beta  pairs :     -0.503663866 Eh      0.000000000


-----------------------------------------------
 RI-MP2 CORRELATION ENERGY:     -0.766754421 Eh
-----------------------------------------------


-------
TIMINGS
-------

Total time                :    1.144 sec
Integral trafo            :    0.477 sec ( 41.7%)
I/O of integrals          :    0.004 sec (  0.3%)
K(i,j) Operators          :    0.252 sec ( 22.1%)
T(i,j) pair energies      :    0.013 sec (  1.2%)
V-calculation             :    0.019 sec (  1.7%)
V**(-1/2)                 :    0.032 sec (  2.8%)
Gamma(ia|P)               :    0.000 sec (  0.0%)
Gamma-Trafo               :    0.000 sec (  0.0%)
D(virtual)                :    0.000 sec (  0.0%)
D(internal)               :    0.000 sec (  0.0%)
W(virtual)                :    0.000 sec (  0.0%)
W(internal)               :    0.000 sec (  0.0%)
L(virtual)                :    0.000 sec (  0.0%)
L(internal)               :    0.000 sec (  0.0%)
G(D)                      :    0.000 sec (  0.0%)
G(Z)                      :    0.000 sec (  0.0%)
Z-Vector Solution         :    0.000 sec (  0.0%)
Z-Vector Solution         :    0.000 sec (  0.0%)
3-Index Derivative 
+ Separable RIJ part      :    0.000 sec (  0.0%)
2-Index Derivative 
+ Separable RIJ part      :    0.000 sec (  0.0%)
Separable Gradient (X)    :    0.000 sec (  0.0%)


---------------------------------------
MP2 TOTAL ENERGY:     -542.304423084 Eh
---------------------------------------


-------------------------------------------------------------------------------
                          DFT DISPERSION CORRECTION                            
                                                                               
                              DFTD3 V3.1  Rev 1                                
                          USING Becke-Johnson damping                          
-------------------------------------------------------------------------------
The B2PLYP functional is recognized
Active option DFTDOPT                   ...         4   

molecular C6(AA) [au] = 5322.948011 


            DFT-D V3
 parameters
 s6 scaling factor         :     0.6400 
 a1 scaling factor         :     0.3065 
 s8 scaling factor         :     0.9147 
 a2 scaling factor         :     5.0570 
 ad hoc parameters k1-k3   :    16.0000     1.3333    -4.0000 

 Edisp/kcal,au: -8.955739469074  -0.014271877771 
 E6   /kcal   :  -2.909500131 
 E8   /kcal   :  -6.046239338 
 % E8         :  67.512452310 

-------------------------   ----------------
Dispersion correction           -0.014271878
-------------------------   ----------------


-------------------------   --------------------
FINAL SINGLE POINT ENERGY      -542.318694961881
-------------------------   --------------------


                            ***************************************
                            *     ORCA property calculations      *
                            ***************************************


  WARNING: The energy has been calculated at the MP2 level but the densities
           used in the property calculations are still SCF densities
           MP2 response densities have not been calculated 
           use %mp2 Density relaxed end
           or  %mp2 Density unrelaxed end

                                    ---------------------
                                    Active property flags
                                    ---------------------
   (+) Dipole Moment


------------------------------------------------------------------------------
                       ORCA ELECTRIC PROPERTIES CALCULATION
------------------------------------------------------------------------------

Dipole Moment Calculation                       ... on
Quadrupole Moment Calculation                   ... off
Polarizability Calculation                      ... off
GBWName                                         ... Au04C2_H_E.gbw
Electron density file                           ... Au04C2_H_E.scfp
The origin for moment calculation is the CENTER OF MASS  = ( 0.000000,  0.000000 -0.007765)

-------------
DIPOLE MOMENT
-------------
                                X             Y             Z
Electronic contribution:      0.00000       0.00000      -3.53606
Nuclear contribution   :      0.00000       0.00000       3.73018
                        -----------------------------------------
Total Dipole Moment    :      0.00000       0.00000       0.19413
                        -----------------------------------------
Magnitude (a.u.)       :      0.19413
Magnitude (Debye)      :      0.49343



--------------------
Rotational spectrum 
--------------------
 
Rotational constants in cm-1:     0.012236     0.010747     0.010533 
Rotational constants in MHz :   366.830155   322.181581   315.756842 

 Dipole components along the rotational axes: 
x,y,z [a.u.] :     0.194127     0.000000     0.000000 
x,y,z [Debye]:     0.493431     0.000000     0.000000 

 

Timings for individual modules:

Sum of individual times         ...       15.450 sec (=   0.257 min)
GTO integral calculation        ...        1.815 sec (=   0.030 min)  11.7 %
SCF iterations                  ...       11.994 sec (=   0.200 min)  77.6 %
MP2 module                      ...        1.640 sec (=   0.027 min)  10.6 %
                             ****ORCA TERMINATED NORMALLY****
TOTAL RUN TIME: 0 days 0 hours 0 minutes 15 seconds 931 msec
