
                                 *****************
                                 * O   R   C   A *
                                 *****************

           --- An Ab Initio, DFT and Semiempirical electronic structure package ---

                  #######################################################
                  #                        -***-                        #
                  #          Department of theory and spectroscopy      #
                  #               Directorship: Frank Neese             #
                  #        Max Planck Institute fuer Kohlenforschung    #
                  #                Kaiser Wilhelm Platz 1               #
                  #                 D-45470 Muelheim/Ruhr               #
                  #                      Germany                        #
                  #                                                     #
                  #                  All rights reserved                #
                  #                        -***-                        #
                  #######################################################


                         Program Version 4.2.0 -  RELEASE  -


 With contributions from (in alphabetic order):
   Daniel Aravena         : Magnetic Suceptibility
   Michael Atanasov       : Ab Initio Ligand Field Theory (pilot matlab implementation)
   Alexander A. Auer      : GIAO ZORA, VPT2
   Ute Becker             : Parallelization
   Giovanni Bistoni       : ED, misc. LED, open-shell LED, HFLED
   Martin Brehm           : Molecular dynamics
   Dmytro Bykov           : SCF Hessian
   Vijay G. Chilkuri      : MRCI spin determinant printing, contributions to CSF-ICE
   Dipayan Datta          : RHF DLPNO-CCSD density
   Achintya Kumar Dutta   : EOM-CC, STEOM-CC
   Dmitry Ganyushin       : Spin-Orbit,Spin-Spin,Magnetic field MRCI
   Miquel Garcia          : C-PCM Hessian, Gaussian charge scheme
   Yang Guo               : DLPNO-NEVPT2, CIM, IAO-localization
   Andreas Hansen         : Spin unrestricted coupled pair/coupled cluster methods
   Benjamin Helmich-Paris : CASSCF linear response (MC-RPA)
   Lee Huntington         : MR-EOM, pCC
   Robert Izsak           : Overlap fitted RIJCOSX, COSX-SCS-MP3, EOM
   Christian Kollmar      : KDIIS, OOCD, Brueckner-CCSD(T), CCSD density
   Simone Kossmann        : Meta GGA functionals, TD-DFT gradient, OOMP2, MP2 Hessian
   Martin Krupicka        : AUTO-CI
   Lucas Lang             : DCDCAS
   Dagmar Lenk            : GEPOL surface, SMD
   Dimitrios Liakos       : Extrapolation schemes; Compound Job, initial MDCI parallelization
   Dimitrios Manganas     : Further ROCIS development; embedding schemes
   Dimitrios Pantazis     : SARC Basis sets
   Taras Petrenko         : DFT Hessian,TD-DFT gradient, ASA, ECA, R-Raman, ABS, FL, XAS/XES, NRVS
   Peter Pinski           : DLPNO-MP2, DLPNO-MP2 Gradient
   Christoph Reimann      : Effective Core Potentials
   Marius Retegan         : Local ZFS, SOC
   Christoph Riplinger    : Optimizer, TS searches, QM/MM, DLPNO-CCSD(T), (RO)-DLPNO pert. Triples
   Tobias Risthaus        : Range-separated hybrids, TD-DFT gradient, RPA, STAB
   Michael Roemelt        : Original ROCIS implementation
   Masaaki Saitow         : Open-shell DLPNO-CCSD energy and density
   Barbara Sandhoefer     : DKH picture change effects
   Avijit Sen             : IP-ROCIS
   Kantharuban Sivalingam : CASSCF convergence, NEVPT2, FIC-MRCI
   Bernardo de Souza      : ESD, SOC TD-DFT
   Georgi Stoychev        : AutoAux, RI-MP2 NMR
   Willem Van den Heuvel  : Paramagnetic NMR
   Boris Wezisla          : Elementary symmetry handling
   Frank Wennmohs         : Technical directorship


 We gratefully acknowledge several colleagues who have allowed us to
 interface, adapt or use parts of their codes:
   Stefan Grimme, W. Hujo, H. Kruse,             : VdW corrections, initial TS optimization,
                  C. Bannwarth                     DFT functionals, gCP, sTDA/sTD-DF
   Ed Valeev, F. Pavosevic, A. Kumar             : LibInt (2-el integral package), F12 methods
   Garnet Chan, S. Sharma, J. Yang, R. Olivares  : DMRG
   Ulf Ekstrom                                   : XCFun DFT Library
   Mihaly Kallay                                 : mrcc  (arbitrary order and MRCC methods)
   Andreas Klamt, Michael Diedenhofen            : otool_cosmo (COSMO solvation model)
   Jiri Pittner, Ondrej Demel                    : Mk-CCSD
   Frank Weinhold                                : gennbo (NPA and NBO analysis)
   Christopher J. Cramer and Donald G. Truhlar   : smd solvation model
   Lars Goerigk                                  : TD-DFT with DH, B97 family of functionals
   V. Asgeirsson, H. Jonsson                     : NEB implementation
   FAccTs GmbH                                   : IRC, NEB, NEB-TS, Multilevel, MM, QM/MM, CI optimization
   S Lehtola, MJT Oliveira, MAL Marques          : LibXC Library


 Your calculation uses the libint2 library for the computation of 2-el integrals
 For citations please refer to: http://libint.valeyev.net

 Your ORCA version has been built with support for libXC version: 4.2.3
 For citations please refer to: https://tddft.org/programs/libxc/

 This ORCA versions uses:
   CBLAS   interface :  Fast vector & matrix operations
   LAPACKE interface :  Fast linear algebra routines
   SCALAPACK package :  Parallel linear algebra routines


Your calculation utilizes the atom-pairwise dispersion correction
with the Becke-Johnson damping scheme (D3BJ)
Cite in your paper:
S.Grimme, S.Ehrlich, L.Goerigk, J Comput Chem, (2011), 32, 1456–1465 
S.Grimme, J.Antony, S.Ehrlich and H.Krieg, J.Chem.Phys., 132, (2010), 154104 
   

----- Orbital basis set information -----
Your calculation utilizes the basis: def2-TZVPPD
   F. Weigend and R. Ahlrichs, Phys. Chem. Chem. Phys. 7, 3297 (2005).
   D. Rappoport and F. Furche, J. Chem. Phys. 133 134105 (2010).

----- AuxC basis set information -----
Your calculation utilizes the auxiliary basis: def2-TZVPPD/C
   A. Hellweg, C. Hattig, S. Hofener and W. Klopper, Theor. Chem. Acc. 117, 587 (2007).

----- AuxJK basis set information -----
Your calculation utilizes the auxiliary basis: def2/JK
   H-Ba, Hf-Rn: F. Weigend, J. Comput. Chem. 29, 167 (2008).

cite the ECPs for Au [Def2-ECP] as follows:
Ce-Yb(ecp-28): M. Dolg, H. Stoll, H.Preuss, J. Chem. Phys., 1989, 90, 1730-1734.
Y-Cd(ecp-28), Hf-Hg(ecp-46): D. Andrae,U. Haeussermann, M. Dolg, H. Stoll, H. Preuss, Theor. Chim. Acta, 1990, 77, 123-141.
In-Sb(ecp-28), Tl-Bi(ecp-46): B. Metz, H. Stoll, M. Dolg, J. Chem. Phys., 2000, 113, 2563-2569.
Te-Xe(ecp-28), Po-Rn(ecp-46): K. A. Peterson, D. Figgen, E. Goll, H. Stoll, M. Dolg, J. Chem. Phys., 2003, 119, 11113-11123.
Rb(ecp-28), Cs(ecp-46): T. Leininger, A. Nicklass, W. Kuechle, H. Stoll, M. Dolg, A. Bergner, Chem. Phys. Lett., 1996, 255, 274-280.
Sr(ecp-28), Ba(ecp-46): M. Kaupp, P. V. Schleyer, H. Stoll and H. Preuss, J. Chem. Phys., 1991, 94, 1360-1366.
La(ecp-46): M. Dolg, H. Stoll, A. Savin, H. Preuss, Theor. Chim. Acta, 1989, 75, 173-194.
Lu(ecp-28): X. Cao, M. Dolg, J. Chem. Phys., 2001, 115, 7348-7355.

ECP parameters for Au [Def2-ECP] have been obtained from:
TURBOMOLE (7.0.2)

================================================================================
                                        WARNINGS
                       Please study these warnings very carefully!
================================================================================


WARNING: No MP2 level density has been requested!
         To caclulate MP2 level properties use
         %mp2 Density relaxed end
         or
         %mp2 Density unrelaxed end
         Otherwise for double-hybrid DFT only the energy is correct!

WARNING: The frozen-core approximation is turned on by default for 
         the MP2 part of double-hybrid DFT.

INFO   : the flag for use of LIBINT has been found!

================================================================================
                                       INPUT FILE
================================================================================
NAME = Au04C2.in
|  1> #
|  2> # Au04C2 ri-B2PLYP-D3BJ/Def2-TZVPPD
|  3> #
|  4> ! rijk ri-b2plyp d3bj def2-tzvppd def2/jk def2-tzvppd/c grid4 nofinalgrid
|  5> 
|  6> *xyz 2 1
|  7> Au      -0.000000   -0.000044    1.659420 
|  8> Au      -1.354966    0.782292   -0.553161 
|  9> Au       1.354966    0.782292   -0.553161 
| 10> Au       0.000000   -1.564540   -0.553099 
| 11> *
| 12> 
| 13> %maxcore 5000
| 14> 
| 15> %pal
| 16> nprocs = 24
| 17> end
| 18> 
| 19> 
| 20>                          ****END OF INPUT****
================================================================================

                       ****************************
                       * Single Point Calculation *
                       ****************************

---------------------------------
CARTESIAN COORDINATES (ANGSTROEM)
---------------------------------
  Au    -0.000000   -0.000044    1.659420
  Au    -1.354966    0.782292   -0.553161
  Au     1.354966    0.782292   -0.553161
  Au     0.000000   -1.564540   -0.553099

----------------------------
CARTESIAN COORDINATES (A.U.)
----------------------------
  NO LB      ZA    FRAG     MASS         X           Y           Z
   0 Au   19.0000*   0   196.966   -0.000000   -0.000083    3.135849
   1 Au   19.0000*   0   196.966   -2.560515    1.478318   -1.045323
   2 Au   19.0000*   0   196.966    2.560515    1.478318   -1.045323
   3 Au   19.0000*   0   196.966    0.000000   -2.956552   -1.045206
* core charge reduced due to ECP

--------------------------------
INTERNAL COORDINATES (ANGSTROEM)
--------------------------------
 Au     0   0   0     0.000000000000     0.00000000     0.00000000
 Au     1   0   0     2.709888772554     0.00000000     0.00000000
 Au     1   2   0     2.709888772554    60.00105536     0.00000000
 Au     1   2   3     2.709776385493    60.00162481   289.47032483

---------------------------
INTERNAL COORDINATES (A.U.)
---------------------------
 Au     0   0   0     0.000000000000     0.00000000     0.00000000
 Au     1   0   0     5.120947633515     0.00000000     0.00000000
 Au     1   2   0     5.120947633515    60.00105536     0.00000000
 Au     1   2   3     5.120735252749    60.00162481   289.47032483

---------------------
BASIS SET INFORMATION
---------------------
There are 1 groups of distinct atoms

 Group   1 Type Au  : 8s8p6d2f1g contracted to 6s5p3d2f1g pattern {311111/41111/411/11/1}

Atom   0Au   basis set group =>   1
Atom   1Au   basis set group =>   1
Atom   2Au   basis set group =>   1
Atom   3Au   basis set group =>   1
---------------------------------
AUXILIARY/C BASIS SET INFORMATION
---------------------------------
There are 1 groups of distinct atoms

 Group   1 Type Au  : 9s9p8d5f4g3h1i contracted to 9s9p8d5f4g3h1i pattern {111111111/111111111/11111111/11111/1111/111/1}

Atom   0Au   basis set group =>   1
Atom   1Au   basis set group =>   1
Atom   2Au   basis set group =>   1
Atom   3Au   basis set group =>   1
----------------------------------
AUXILIARY/JK BASIS SET INFORMATION
----------------------------------
There are 1 groups of distinct atoms

 Group   1 Type Au  : 13s12p11d9f5g3h2i contracted to 13s11p10d8f4g3h2i pattern {1111111111111/21111111111/2111111111/21111111/2111/111/11}

Atom   0Au   basis set group =>   1
Atom   1Au   basis set group =>   1
Atom   2Au   basis set group =>   1
Atom   3Au   basis set group =>   1
-------------------------
ECP PARAMETER INFORMATION
-------------------------

 Group 1, Type Au ECP Def2-ECP (replacing 60 core electrons, lmax=3)

Atom   0Au   ECP group =>   1
Atom   1Au   ECP group =>   1
Atom   2Au   ECP group =>   1
Atom   3Au   ECP group =>   1



           ************************************************************
           *        Program running with 24 parallel MPI-processes    *
           *              working on a common directory               *
           ************************************************************
------------------------------------------------------------------------------
                           ORCA GTO INTEGRAL CALCULATION
                           -- RI-GTO INTEGRALS CHOSEN --
------------------------------------------------------------------------------

                         BASIS SET STATISTICS AND STARTUP INFO

Gaussian basis set:
 # of primitive gaussian shells          ...  100
 # of primitive gaussian functions       ...  340
 # of contracted shells                  ...   68
 # of contracted basis functions         ...  236
 Highest angular momentum                ...    4
 Maximum contraction depth               ...    4
Auxiliary gaussian basis set:
 # of primitive gaussian shells          ...  220
 # of primitive gaussian functions       ... 1084
 # of contracted shells                  ...  204
 # of contracted aux-basis functions     ...  988
 Highest angular momentum                ...    6
 Maximum contraction depth               ...    2
Ratio of auxiliary to basis functions    ...  4.19
Integral package used                  ... LIBINT
 One Electron integrals                  
   ECP integrals                         ... done
 Ordering auxiliary basis shells         ... done
 Integral threshhold             Thresh  ...  1.000e-10
 Primitive cut-off               TCut    ...  1.000e-11
 Pre-screening matrix                    ... done
 Shell pair data                         ... 
 Ordering of the shell pairs             ... done (   0.000 sec) 2262 of 2346 pairs
 Determination of significant pairs      ... done (   0.000 sec)
 Creation of shell pair data             ... done (   0.000 sec)
 Storage of shell pair data              ... done (   0.004 sec)
 Shell pair data done in (   0.004 sec)
 Computing two index integrals           ... done
 Cholesky decomposition of the V-matrix  ... done


Timings:
 Total evaluation time                   ...   1.378 sec (  0.023 min)
 One electron matrix time                ...   0.904 sec (  0.015 min) = 65.6%
 Schwartz matrix evaluation time         ...   0.184 sec (  0.003 min) = 13.3%
 Two index repulsion integral time       ...   0.240 sec (  0.004 min) = 17.4%
 Cholesky decomposition of V             ...   0.016 sec (  0.000 min) =  1.2%
 Three index repulsion integral time     ...   0.000 sec (  0.000 min) =  0.0%



           ************************************************************
           *        Program running with 24 parallel MPI-processes    *
           *              working on a common directory               *
           ************************************************************
-------------------------------------------------------------------------------
                                 ORCA SCF
-------------------------------------------------------------------------------

------------
SCF SETTINGS
------------
Hamiltonian:
 Density Functional     Method          .... DFT(GTOs)
 Exchange Functional    Exchange        .... B88
   X-Alpha parameter    XAlpha          ....  0.666667
   Becke's b parameter  XBeta           ....  0.004200
 Correlation Functional Correlation     .... LYP
 LDA part of GGA corr.  LDAOpt          .... VWN-3
 Gradients option       PostSCFGGA      .... off
 Hybrid DFT is turned on
   Fraction HF Exchange ScalHFX         ....  0.530000
   Scaling of DF-GGA-X  ScalDFX         ....  0.470000
   Scaling of DF-GGA-C  ScalDFC         ....  0.730000
   Scaling of DF-LDA-C  ScalLDAC        ....  0.730000
   Perturbative correction              ....  0.270000
   Density functional embedding theory  .... OFF
 RI-approximation to the Coulomb term is turned on
   Number of auxiliary basis functions  .... 988
   RI-JK (J+K treated both via RI)      .... on


General Settings:
 Integral files         IntName         .... Au04C2
 Hartree-Fock type      HFTyp           .... RHF
 Total Charge           Charge          ....    2
 Multiplicity           Mult            ....    1
 Number of Electrons    NEL             ....   74
 Basis Dimension        Dim             ....  236
 Nuclear Repulsion      ENuc            ....    422.9698503131 Eh

Convergence Acceleration:
 DIIS                   CNVDIIS         .... on
   Start iteration      DIISMaxIt       ....    12
   Startup error        DIISStart       ....  0.200000
   # of expansion vecs  DIISMaxEq       ....     5
   Bias factor          DIISBfac        ....   1.050
   Max. coefficient     DIISMaxC        ....  10.000
 Newton-Raphson         CNVNR           .... off
 SOSCF                  CNVSOSCF        .... off
 Level Shifting         CNVShift        .... on
   Level shift para.    LevelShift      ....    0.2500
   Turn off err/grad.   ShiftErr        ....    0.0010
 Zerner damping         CNVZerner       .... off
 Static damping         CNVDamp         .... on
   Fraction old density DampFac         ....    0.7000
   Max. Damping (<1)    DampMax         ....    0.9800
   Min. Damping (>=0)   DampMin         ....    0.0000
   Turn off err/grad.   DampErr         ....    0.1000
 Fernandez-Rico         CNVRico         .... off

SCF Procedure:
 Maximum # iterations   MaxIter         ....   125
 SCF integral mode      SCFMode         .... Direct
   Integral package                     .... LIBINT
 Reset frequency        DirectResetFreq ....    20
 Integral Threshold     Thresh          ....  1.000e-10 Eh
 Primitive CutOff       TCut            ....  1.000e-11 Eh

Convergence Tolerance:
 Convergence Check Mode ConvCheckMode   .... Total+1el-Energy
 Convergence forced     ConvForced      .... 0
 Energy Change          TolE            ....  1.000e-06 Eh
 1-El. energy change                    ....  1.000e-03 Eh
 DIIS Error             TolErr          ....  1.000e-06


Diagonalization of the overlap matrix:
Smallest eigenvalue                        ... 1.132e-03
Time for diagonalization                   ...    0.009 sec
Threshold for overlap eigenvalues          ... 1.000e-08
Number of eigenvalues below threshold      ... 0
Time for construction of square roots      ...    0.007 sec
Total time needed                          ...    0.016 sec

-------------------
DFT GRID GENERATION
-------------------

General Integration Accuracy     IntAcc      ...  4.670
Radial Grid Type                 RadialGrid  ... Gauss-Chebyshev
Angular Grid (max. acc.)         AngularGrid ... Lebedev-302
Angular grid pruning method      GridPruning ... 3 (G Style)
Weight generation scheme         WeightScheme... Becke
Basis function cutoff            BFCut       ...    1.0000e-10
Integration weight cutoff        WCut        ...    1.0000e-14
Grids for H and He will be reduced by one unit

# of grid points (after initial pruning)     ...  46608 (   0.0 sec)
# of grid points (after weights+screening)   ...  46157 (   0.0 sec)
nearest neighbour list constructed           ...    0.0 sec
Grid point re-assignment to atoms done       ...    0.0 sec
Grid point division into batches done        ...    0.4 sec
Reduced shell lists constructed in    0.5 sec

Total number of grid points                  ...    46157
Total number of batches                      ...      724
Average number of points per batch           ...       63
Average number of grid points per atom       ...    11539
Average number of shells per batch           ...     9.50 (13.97%)
Average number of basis functions per batch  ...    26.25 (11.12%)
Average number of large shells per batch     ...     5.94 (62.50%)
Average number of large basis fcns per batch ...    14.94 (56.90%)
Average number of aux-shells per batch       ...     9.50 ( 4.66%)
Average number of aux functions per batch    ...    26.25 ( 2.66%)
Maximum spatial batch extension              ...  27.70, 27.52, 24.86 au
Average spatial batch extension              ...   0.57,  0.58,  0.53 au

Time for grid setup =    0.511 sec

------------------------------
INITIAL GUESS: MODEL POTENTIAL
------------------------------
Loading Hartree-Fock densities                     ... done
  calling /sw/apps/orca/orca_4_2_0_linux_x86-64_openmpi314/orca Au04C2_atom79.inp > Au04C2_atom79.out in order to generate an atomic fitting density for atom 0 (Au with ECP) on-the-fly... 
    atom 0 (Au), assumed electronic state with S=2: 1s2 2s2 2p6 3s2 3p6 4s2 3d10 4p6 5s2 4d10 5p6 6s1 4f14 5d10           ... done
Calculating cut-offs                               ... done
Setting up the integral package                    ... done
Initializing the effective Hamiltonian             ... done
Starting the Coulomb interaction                   ... done (   0.0 sec)
Reading the grid                                   ... done
Mapping shells                                     ... done
Starting the XC term evaluation                    ... done (   0.0 sec)
  promolecular density results
     # of electrons  =    316.009275119
     EX              =  -1469.468598901
     EC              =     -6.414804839
     EX+EC           =  -1475.883403740
Transforming the Hamiltonian                       ... done (   0.0 sec)
Diagonalizing the Hamiltonian                      ... done (   0.0 sec)
Back transforming the eigenvectors                 ... done (   0.0 sec)
Now organizing SCF variables                       ... done
                      ------------------
                      INITIAL GUESS DONE (   1.6 sec)
                      ------------------
--------------
SCF ITERATIONS
--------------
ITER       Energy         Delta-E        Max-DP      RMS-DP      [F,P]     Damp
  0   -540.6160780017   0.000000000000 0.21986503  0.00270064  0.5536231 0.7000
  1   -540.6623727620  -0.046294760306 0.17752119  0.00218988  0.4019741 0.7000
  2   -540.7906286933  -0.128255931260 0.12603994  0.00153961  0.2784892 0.7000
                               ***Turning on DIIS***
  3   -540.8979853157  -0.107356622497 0.08863033  0.00108530  0.1926573 0.7000
  4   -540.9546862165  -0.056700900791 0.06245706  0.00078289  0.1335419 0.7000
  5   -540.9753663793  -0.020680162761 0.14609289  0.00186032  0.0930068 0.0000
  6   -541.0011786835  -0.025812304244 0.00527748  0.00018849  0.0111429 0.0000
  7   -541.0019557536  -0.000777070015 0.00108120  0.00003456  0.0051288 0.0000
  8   -541.0020527866  -0.000097033039 0.00090495  0.00002564  0.0005121 0.0000
  9   -541.0020583738  -0.000005587178 0.00044096  0.00000899  0.0001358 0.0000
 10   -541.0020589604  -0.000000586607 0.00018427  0.00000373  0.0001334 0.0000
                 **** Energy Check signals convergence ****

               *****************************************************
               *                     SUCCESS                       *
               *           SCF CONVERGED AFTER  11 CYCLES          *
               *****************************************************


----------------
TOTAL SCF ENERGY
----------------

Total Energy       :         -541.00205915 Eh          -14721.41445 eV

Components:
Nuclear Repulsion  :          422.96985031 Eh           11509.59476 eV
Electronic Energy  :         -963.97190946 Eh          -26231.00922 eV
One Electron Energy:        -1771.32977816 Eh          -48200.33372 eV
Two Electron Energy:          807.35786869 Eh           21969.32451 eV

Virial components:
Potential Energy   :         -724.92382149 Eh          -19726.18004 eV
Kinetic Energy     :          183.92176234 Eh            5004.76559 eV
Virial Ratio       :            3.94147931


DFT components:
N(Alpha)           :       37.000014181333 electrons
N(Beta)            :       37.000014181333 electrons
N(Total)           :       74.000028362665 electrons
E(X)               :      -22.705221259949 Eh       
E(C)               :       -1.988828044220 Eh       
E(XC)              :      -24.694049304169 Eh       
DFET-embed. en.    :        0.000000000000 Eh       

---------------
SCF CONVERGENCE
---------------

  Last Energy change         ...   -1.9008e-07  Tolerance :   1.0000e-06
  Last MAX-Density change    ...    1.1619e-04  Tolerance :   1.0000e-05
  Last RMS-Density change    ...    1.6150e-06  Tolerance :   1.0000e-06
  Last DIIS Error            ...    2.6073e-05  Tolerance :   1.0000e-06

             **** THE GBW FILE WAS UPDATED (Au04C2.gbw) ****
             **** DENSITY FILE WAS UPDATED (Au04C2.scfp) ****
             **** ENERGY FILE WAS UPDATED (Au04C2.en.tmp) ****
             **** THE GBW FILE WAS UPDATED (Au04C2.gbw) ****
             **** DENSITY FILE WAS UPDATED (Au04C2.scfp) ****
----------------
ORBITAL ENERGIES
----------------

  NO   OCC          E(Eh)            E(eV) 
   0   2.0000      -4.764475      -129.6480 
   1   2.0000      -4.763983      -129.6346 
   2   2.0000      -4.763982      -129.6345 
   3   2.0000      -4.763980      -129.6345 
   4   2.0000      -2.893385       -78.7330 
   5   2.0000      -2.886763       -78.5528 
   6   2.0000      -2.886762       -78.5528 
   7   2.0000      -2.886760       -78.5527 
   8   2.0000      -2.883079       -78.4526 
   9   2.0000      -2.883077       -78.4525 
  10   2.0000      -2.880663       -78.3868 
  11   2.0000      -2.880659       -78.3867 
  12   2.0000      -2.880657       -78.3867 
  13   2.0000      -2.879722       -78.3612 
  14   2.0000      -2.879721       -78.3612 
  15   2.0000      -2.879718       -78.3611 
  16   2.0000      -0.860296       -23.4099 
  17   2.0000      -0.815300       -22.1855 
  18   2.0000      -0.815297       -22.1854 
  19   2.0000      -0.815293       -22.1853 
  20   2.0000      -0.799286       -21.7497 
  21   2.0000      -0.799282       -21.7496 
  22   2.0000      -0.775909       -21.1136 
  23   2.0000      -0.775906       -21.1135 
  24   2.0000      -0.775903       -21.1134 
  25   2.0000      -0.738985       -20.1088 
  26   2.0000      -0.738983       -20.1088 
  27   2.0000      -0.738982       -20.1087 
  28   2.0000      -0.737588       -20.0708 
  29   2.0000      -0.737585       -20.0707 
  30   2.0000      -0.737584       -20.0707 
  31   2.0000      -0.736369       -20.0376 
  32   2.0000      -0.736366       -20.0375 
  33   2.0000      -0.714360       -19.4387 
  34   2.0000      -0.701721       -19.0948 
  35   2.0000      -0.701720       -19.0948 
  36   2.0000      -0.701713       -19.0946 
  37   0.0000      -0.431490       -11.7414 
  38   0.0000      -0.431488       -11.7414 
  39   0.0000      -0.431484       -11.7413 
  40   0.0000      -0.296033        -8.0555 
  41   0.0000      -0.285533        -7.7697 
  42   0.0000      -0.285529        -7.7696 
  43   0.0000      -0.285528        -7.7696 
  44   0.0000      -0.267709        -7.2847 
  45   0.0000      -0.267706        -7.2846 
  46   0.0000      -0.161038        -4.3821 
  47   0.0000      -0.161038        -4.3821 
  48   0.0000      -0.161036        -4.3820 
  49   0.0000      -0.151429        -4.1206 
  50   0.0000      -0.151428        -4.1206 
  51   0.0000      -0.151425        -4.1205 
  52   0.0000      -0.087419        -2.3788 
  53   0.0000      -0.069165        -1.8821 
  54   0.0000      -0.065846        -1.7918 
  55   0.0000      -0.065845        -1.7917 
  56   0.0000      -0.065844        -1.7917 
  57   0.0000      -0.059306        -1.6138 
  58   0.0000      -0.059304        -1.6137 
  59   0.0000      -0.007987        -0.2173 
  60   0.0000      -0.007985        -0.2173 
  61   0.0000      -0.007982        -0.2172 
  62   0.0000       0.025523         0.6945 
  63   0.0000       0.025526         0.6946 
  64   0.0000       0.025529         0.6947 
  65   0.0000       0.036128         0.9831 
  66   0.0000       0.036130         0.9831 
  67   0.0000       0.036134         0.9833 
  68   0.0000       0.069443         1.8896 
  69   0.0000       0.069444         1.8897 
  70   0.0000       0.069450         1.8898 
  71   0.0000       0.111377         3.0307 
  72   0.0000       0.111377         3.0307 
  73   0.0000       0.124108         3.3771 
  74   0.0000       0.124110         3.3772 
  75   0.0000       0.124113         3.3773 
  76   0.0000       0.211246         5.7483 
  77   0.0000       0.211247         5.7483 
  78   0.0000       0.211248         5.7484 
  79   0.0000       0.218297         5.9402 
  80   0.0000       0.218298         5.9402 
  81   0.0000       0.227840         6.1999 
  82   0.0000       0.278996         7.5919 
  83   0.0000       0.279002         7.5920 
  84   0.0000       0.279004         7.5921 
  85   0.0000       0.282771         7.6946 
  86   0.0000       0.282773         7.6946 
  87   0.0000       0.282778         7.6948 
  88   0.0000       0.554088        15.0775 
  89   0.0000       0.636055        17.3079 
  90   0.0000       0.636070        17.3083 
  91   0.0000       0.636124        17.3098 
  92   0.0000       0.636138        17.3102 
  93   0.0000       0.636154        17.3106 
  94   0.0000       0.728012        19.8102 
  95   0.0000       0.728014        19.8103 
  96   0.0000       0.728032        19.8108 
  97   0.0000       0.729369        19.8471 
  98   0.0000       0.792654        21.5692 
  99   0.0000       0.792664        21.5695 
 100   0.0000       0.792666        21.5696 
 101   0.0000       0.847332        23.0571 
 102   0.0000       0.847334        23.0571 
 103   0.0000       0.847338        23.0572 
 104   0.0000       0.901885        24.5415 
 105   0.0000       0.901896        24.5419 
 106   0.0000       0.916846        24.9487 
 107   0.0000       0.916851        24.9488 
 108   0.0000       0.916860        24.9490 
 109   0.0000       0.920830        25.0571 
 110   0.0000       0.920832        25.0571 
 111   0.0000       0.920843        25.0574 
 112   0.0000       0.929291        25.2873 
 113   0.0000       1.031700        28.0740 
 114   0.0000       1.031702        28.0740 
 115   0.0000       1.031703        28.0741 
 116   0.0000       1.048197        28.5229 
 117   0.0000       1.048206        28.5231 
 118   0.0000       1.048218        28.5235 
 119   0.0000       1.099436        29.9172 
 120   0.0000       1.108341        30.1595 
 121   0.0000       1.108350        30.1597 
 122   0.0000       1.127294        30.6752 
 123   0.0000       1.127294        30.6752 
 124   0.0000       1.127312        30.6757 
 125   0.0000       1.182164        32.1683 
 126   0.0000       1.182166        32.1684 
 127   0.0000       1.182167        32.1684 
 128   0.0000       1.224816        33.3289 
 129   0.0000       1.224818        33.3290 
 130   0.0000       1.224826        33.3292 
 131   0.0000       1.241314        33.7779 
 132   0.0000       1.241315        33.7779 
 133   0.0000       1.293013        35.1847 
 134   0.0000       1.293015        35.1847 
 135   0.0000       1.293026        35.1850 
 136   0.0000       1.309429        35.6314 
 137   0.0000       1.309438        35.6316 
 138   0.0000       1.309438        35.6316 
 139   0.0000       1.361434        37.0465 
 140   0.0000       1.365960        37.1697 
 141   0.0000       1.365969        37.1699 
 142   0.0000       1.515755        41.2458 
 143   0.0000       1.515769        41.2462 
 144   0.0000       1.515789        41.2467 
 145   0.0000       1.729052        47.0499 
 146   0.0000       1.729070        47.0504 
 147   0.0000       1.729136        47.0522 
 148   0.0000       1.971466        53.6463 
 149   0.0000       2.553004        69.4708 
 150   0.0000       2.553014        69.4710 
 151   0.0000       2.553054        69.4721 
 152   0.0000       3.230357        87.9025 
 153   0.0000       3.250699        88.4560 
 154   0.0000       3.250755        88.4575 
 155   0.0000       3.250777        88.4581 
 156   0.0000       3.352990        91.2395 
 157   0.0000       3.353079        91.2419 
 158   0.0000       3.353153        91.2439 
 159   0.0000       3.386772        92.1588 
 160   0.0000       3.408044        92.7376 
 161   0.0000       3.408045        92.7376 
 162   0.0000       3.414989        92.9266 
 163   0.0000       3.415055        92.9284 
 164   0.0000       3.415126        92.9303 
 165   0.0000       3.460112        94.1544 
 166   0.0000       3.571481        97.1849 
 167   0.0000       3.571513        97.1858 
 168   0.0000       3.571570        97.1874 
 169   0.0000       3.579487        97.4028 
 170   0.0000       3.579505        97.4033 
 171   0.0000       3.579599        97.4058 
 172   0.0000       3.585845        97.5758 
 173   0.0000       3.585898        97.5773 
 174   0.0000       3.653969        99.4295 
 175   0.0000       3.654041        99.4315 
 176   0.0000       3.654067        99.4322 
 177   0.0000       3.761175       102.3468 
 178   0.0000       3.761286       102.3498 
 179   0.0000       3.761371       102.3521 
 180   0.0000       3.903986       106.2329 
 181   0.0000       3.904068       106.2351 
 182   0.0000       3.911016       106.4242 
 183   0.0000       3.911017       106.4242 
 184   0.0000       3.911186       106.4288 
 185   0.0000       3.912108       106.4539 
 186   0.0000       3.913651       106.4958 
 187   0.0000       3.913670       106.4964 
 188   0.0000       3.913685       106.4968 
 189   0.0000       3.914180       106.5102 
 190   0.0000       3.914302       106.5136 
 191   0.0000       3.914380       106.5157 
 192   0.0000       3.920723       106.6883 
 193   0.0000       3.920837       106.6914 
 194   0.0000       3.921188       106.7009 
 195   0.0000       3.921300       106.7040 
 196   0.0000       3.921363       106.7057 
 197   0.0000       3.923229       106.7565 
 198   0.0000       3.923323       106.7591 
 199   0.0000       3.923325       106.7591 
 200   0.0000       3.926321       106.8406 
 201   0.0000       3.926955       106.8579 
 202   0.0000       3.947639       107.4207 
 203   0.0000       3.947655       107.4212 
 204   0.0000       3.947744       107.4236 
 205   0.0000       3.948381       107.4409 
 206   0.0000       3.948398       107.4414 
 207   0.0000       3.953116       107.5697 
 208   0.0000       3.953163       107.5710 
 209   0.0000       3.953217       107.5725 
 210   0.0000       4.024039       109.4997 
 211   0.0000       4.024072       109.5006 
 212   0.0000       4.024085       109.5009 
 213   0.0000       4.123784       112.2139 
 214   0.0000       4.123802       112.2144 
 215   0.0000       4.123884       112.2166 
 216   0.0000      27.112123       737.7584 
 217   0.0000      27.112193       737.7603 
 218   0.0000      27.205816       740.3079 
 219   0.0000      27.205848       740.3088 
 220   0.0000      27.205866       740.3093 
 221   0.0000      28.349802       771.4373 
 222   0.0000      28.349884       771.4396 
 223   0.0000      28.350105       771.4456 
 224   0.0000      28.450281       774.1715 
 225   0.0000      29.251913       795.9850 
 226   0.0000      29.251978       795.9868 
 227   0.0000      29.252331       795.9964 
 228   0.0000      43.647710      1187.7146 
 229   0.0000      44.246085      1203.9972 
 230   0.0000      44.246108      1203.9978 
 231   0.0000      44.246144      1203.9988 
 232   0.0000     202.266699      5503.9567 
 233   0.0000     202.527778      5511.0610 
 234   0.0000     202.527785      5511.0612 
 235   0.0000     202.527798      5511.0615 

                    ********************************
                    * MULLIKEN POPULATION ANALYSIS *
                    ********************************

-----------------------
MULLIKEN ATOMIC CHARGES
-----------------------
   0 Au:    0.500021
   1 Au:    0.499999
   2 Au:    0.500001
   3 Au:    0.499979
Sum of atomic charges:    2.0000000

--------------------------------
MULLIKEN REDUCED ORBITAL CHARGES
--------------------------------
  0 Aus       :     2.535341  s :     2.535341
      pz      :     2.084759  p :     6.122632
      px      :     2.018938
      py      :     2.018935
      dz2     :     1.970621  d :     9.831333
      dxz     :     1.942300
      dyz     :     1.942282
      dx2y2   :     1.988065
      dxy     :     1.988065
      f0      :     0.001925  f :     0.010520
      f+1     :     0.002207
      f-1     :     0.002207
      f+2     :     0.001723
      f-2     :     0.001723
      f+3     :     0.000365
      f-3     :     0.000369
      g0      :     0.000020  g :     0.000154
      g+1     :     0.000027
      g-1     :     0.000027
      g+2     :     0.000027
      g-2     :     0.000027
      g+3     :     0.000012
      g-3     :     0.000012
      g+4     :     0.000002
      g-4     :     0.000002
  1 Aus       :     2.535334  s :     2.535334
      pz      :     2.026248  p :     6.122641
      px      :     2.062831
      py      :     2.033563
      dz2     :     1.959320  d :     9.831354
      dxz     :     1.970436
      dyz     :     1.985424
      dx2y2   :     1.947766
      dxy     :     1.968408
      f0      :     0.001316  f :     0.010518
      f+1     :     0.001758
      f-1     :     0.001090
      f+2     :     0.001315
      f-2     :     0.001126
      f+3     :     0.002129
      f-3     :     0.001784
      g0      :     0.000013  g :     0.000153
      g+1     :     0.000020
      g-1     :     0.000010
      g+2     :     0.000018
      g-2     :     0.000018
      g+3     :     0.000016
      g-3     :     0.000008
      g+4     :     0.000026
      g-4     :     0.000024
  2 Aus       :     2.535333  s :     2.535333
      pz      :     2.026248  p :     6.122641
      px      :     2.062830
      py      :     2.033563
      dz2     :     1.959320  d :     9.831354
      dxz     :     1.970436
      dyz     :     1.985424
      dx2y2   :     1.947766
      dxy     :     1.968408
      f0      :     0.001316  f :     0.010518
      f+1     :     0.001758
      f-1     :     0.001090
      f+2     :     0.001315
      f-2     :     0.001126
      f+3     :     0.002129
      f-3     :     0.001784
      g0      :     0.000013  g :     0.000153
      g+1     :     0.000020
      g-1     :     0.000010
      g+2     :     0.000018
      g-2     :     0.000018
      g+3     :     0.000016
      g-3     :     0.000008
      g+4     :     0.000026
      g-4     :     0.000024
  3 Aus       :     2.535361  s :     2.535361
      pz      :     2.026254  p :     6.122639
      px      :     2.018936
      py      :     2.077450
      dz2     :     1.959312  d :     9.831346
      dxz     :     1.992918
      dyz     :     1.962935
      dx2y2   :     1.978732
      dxy     :     1.937449
      f0      :     0.001317  f :     0.010520
      f+1     :     0.000756
      f-1     :     0.002092
      f+2     :     0.001032
      f-2     :     0.001410
      f+3     :     0.002129
      f-3     :     0.001784
      g0      :     0.000013  g :     0.000153
      g+1     :     0.000006
      g-1     :     0.000024
      g+2     :     0.000018
      g-2     :     0.000018
      g+3     :     0.000016
      g-3     :     0.000008
      g+4     :     0.000023
      g-4     :     0.000026


                     *******************************
                     * LOEWDIN POPULATION ANALYSIS *
                     *******************************

----------------------
LOEWDIN ATOMIC CHARGES
----------------------
   0 Au:    0.499998
   1 Au:    0.500007
   2 Au:    0.500007
   3 Au:    0.499989

-------------------------------
LOEWDIN REDUCED ORBITAL CHARGES
-------------------------------
  0 Aus       :     2.369789  s :     2.369789
      pz      :     2.158376  p :     6.227351
      px      :     2.034487
      py      :     2.034488
      dz2     :     1.984030  d :     9.884252
      dxz     :     1.960518
      dyz     :     1.960510
      dx2y2   :     1.989597
      dxy     :     1.989597
      f0      :     0.002588  f :     0.018383
      f+1     :     0.004470
      f-1     :     0.004471
      f+2     :     0.002859
      f-2     :     0.002859
      f+3     :     0.000585
      f-3     :     0.000553
      g0      :     0.000024  g :     0.000227
      g+1     :     0.000042
      g-1     :     0.000042
      g+2     :     0.000040
      g-2     :     0.000040
      g+3     :     0.000017
      g-3     :     0.000018
      g+4     :     0.000002
      g-4     :     0.000002
  1 Aus       :     2.369777  s :     2.369777
      pz      :     2.048250  p :     6.227344
      px      :     2.117078
      py      :     2.062016
      dz2     :     1.974067  d :     9.884266
      dxz     :     1.978298
      dyz     :     1.986825
      dx2y2   :     1.965780
      dxy     :     1.979296
      f0      :     0.001828  f :     0.018379
      f+1     :     0.003699
      f-1     :     0.002119
      f+2     :     0.001909
      f-2     :     0.001771
      f+3     :     0.004605
      f-3     :     0.002447
      g0      :     0.000021  g :     0.000227
      g+1     :     0.000027
      g-1     :     0.000015
      g+2     :     0.000029
      g-2     :     0.000030
      g+3     :     0.000021
      g-3     :     0.000010
      g+4     :     0.000041
      g-4     :     0.000034
  2 Aus       :     2.369777  s :     2.369777
      pz      :     2.048250  p :     6.227344
      px      :     2.117078
      py      :     2.062016
      dz2     :     1.974067  d :     9.884266
      dxz     :     1.978298
      dyz     :     1.986825
      dx2y2   :     1.965780
      dxy     :     1.979296
      f0      :     0.001828  f :     0.018379
      f+1     :     0.003699
      f-1     :     0.002119
      f+2     :     0.001909
      f-2     :     0.001771
      f+3     :     0.004605
      f-3     :     0.002447
      g0      :     0.000021  g :     0.000227
      g+1     :     0.000027
      g-1     :     0.000015
      g+2     :     0.000029
      g-2     :     0.000030
      g+3     :     0.000021
      g-3     :     0.000010
      g+4     :     0.000041
      g-4     :     0.000034
  3 Aus       :     2.369797  s :     2.369797
      pz      :     2.048254  p :     6.227351
      px      :     2.034486
      py      :     2.144611
      dz2     :     1.974061  d :     9.884254
      dxz     :     1.991089
      dyz     :     1.974025
      dx2y2   :     1.986052
      dxy     :     1.959027
      f0      :     0.001829  f :     0.018383
      f+1     :     0.001329
      f-1     :     0.004491
      f+2     :     0.001703
      f-2     :     0.001979
      f+3     :     0.004606
      f-3     :     0.002447
      g0      :     0.000021  g :     0.000227
      g+1     :     0.000008
      g-1     :     0.000033
      g+2     :     0.000030
      g-2     :     0.000028
      g+3     :     0.000021
      g-3     :     0.000010
      g+4     :     0.000031
      g-4     :     0.000044


                      *****************************
                      * MAYER POPULATION ANALYSIS *
                      *****************************

  NA   - Mulliken gross atomic population
  ZA   - Total nuclear charge
  QA   - Mulliken gross atomic charge
  VA   - Mayer's total valence
  BVA  - Mayer's bonded valence
  FA   - Mayer's free valence

  ATOM       NA         ZA         QA         VA         BVA        FA
  0 Au    18.5000    19.0000     0.5000     1.2133     1.2133    -0.0000
  1 Au    18.5000    19.0000     0.5000     1.2133     1.2133    -0.0000
  2 Au    18.5000    19.0000     0.5000     1.2133     1.2133     0.0000
  3 Au    18.5000    19.0000     0.5000     1.2133     1.2133     0.0000

  Mayer bond orders larger than 0.100000
B(  0-Au,  1-Au) :   0.4044 B(  0-Au,  2-Au) :   0.4044 B(  0-Au,  3-Au) :   0.4045 
B(  1-Au,  2-Au) :   0.4044 B(  1-Au,  3-Au) :   0.4044 B(  2-Au,  3-Au) :   0.4044 


-------
TIMINGS
-------

Total SCF time: 0 days 0 hours 0 min 7 sec 

Total time                  ....       7.189 sec
Sum of individual times     ....       7.042 sec  ( 98.0%)

Fock matrix formation       ....       5.278 sec  ( 73.4%)
  XC integration            ....       0.455 sec  (  8.6% of F)
    Basis function eval.    ....       0.089 sec  ( 19.6% of XC)
    Density eval.           ....       0.079 sec  ( 17.4% of XC)
    XC-Functional eval.     ....       0.019 sec  (  4.1% of XC)
    XC-Potential eval.      ....       0.122 sec  ( 26.7% of XC)
Diagonalization             ....       0.097 sec  (  1.3%)
Density matrix formation    ....       0.014 sec  (  0.2%)
Population analysis         ....       0.009 sec  (  0.1%)
Initial guess               ....       1.087 sec  ( 15.1%)
Orbital Transformation      ....       0.000 sec  (  0.0%)
Orbital Orthonormalization  ....       0.000 sec  (  0.0%)
DIIS solution               ....       0.046 sec  (  0.6%)
Grid generation             ....       0.511 sec  (  7.1%)


           ************************************************************
           *        Program running with 24 parallel MPI-processes    *
           *              working on a common directory               *
           ************************************************************

------------------------------------------------------------------------------
                                ORCA  MP2 
------------------------------------------------------------------------------

Freezing NCore=0 chemical core electrons

-------------
RI-MP2 ENERGY
-------------
Dimension of the basis                    ...  236
Memory devoted to MP2                     ... 5000 MB   
Data format for buffers                   ... DOUBLE
Compression type for matrix containers    ... UNCOMPRESSED
Overall scaling of the MP2 energy         ...   2.700e-01
Calculating two index integrals           ... done (    0.017 sec)
Cholesky decomposition of V**-1           ... done (    0.028 sec)

-----------------
RI-TRANSFORMATION (AUX index driven)
-----------------

Dimension of the orbital-basis         ... 236
Dimension of the aux-basis             ... 772
Transformation of internal/external MOs...    0-  36 to   37- 235
Number Format for Storage              ... Double (8 Byte)
Integral mode                          ... Direct

First Phase: integral generation and transformation of MO indices
  Aux angular momentum 0               ... done (    0.003 sec)
  Aux angular momentum 1               ... done (    0.005 sec)
  Aux angular momentum 2               ... done (    0.009 sec)
  Aux angular momentum 3               ... done (    0.007 sec)
  Aux angular momentum 4               ... done (    0.010 sec)
  Aux angular momentum 5               ... done (    0.015 sec)
  Aux angular momentum 6               ... done (    0.021 sec)
Closing buffer VIA ( 0.04 GB; CompressionRatio= 1.00)
  Phase 1 completed in     0.141 sec
Second Phase: sorting and transformation of aux index

IA-Transformation
Memory available                       ... 4992 MB 
Max. # MO pairs treated in a batch     ... 2    
# of internal orbitals                 ... 37
# batches for internal orbitals        ... 1
Closing buffer IAV ( 0.00 GB; CompressionRatio= 1.00)
(ia|v) transformation done in     0.029 sec

  Phase 2 completed in     0.068 sec
RI-Integral transformation completed in     0.210 sec
Opening buffers                              ... done

Starting loop over batches of integrals:

Operator 0  - window                       ... (  0- 36)x( 37-235)
Operator 0  - Memory available             ...  5000 MB
Operator 0  - Memory needed per MO         ...   1.2 MB
Operator 0  - Number of orbitals per batch ... 2
Operator 0  - Number of batches            ... 1

OPERATOR  0   PASS   0:  MOs     0 ...    1 +    2 ...    3 +    4 ...    5 +    6 ...    7
                            +    8 ...    9 +   10 ...   11 +   12 ...   13 +   14 ...   15
                            +   16 ...   17 +   18 ...   19 +   20 ...   21 +   22 ...   23
                            +   24 ...   25 +   26 ...   27 +   28 ...   29 +   30 ...   31
                            +   32 ...   33 +   34 ...   35 +   36 ...   36
  Reading integrals       ... ok
Time spent in pair loops =     0.014 sec

-----------------------------------------------
 RI-MP2 CORRELATION ENERGY:     -0.752263522 Eh
-----------------------------------------------


-------
TIMINGS
-------

Total time                :    0.391 sec
Integral trafo            :    0.215 sec ( 55.0%)
I/O of integrals          :    0.002 sec (  0.5%)
K(i,j) Operators          :    0.004 sec (  1.1%)
T(i,j) pair energies      :    0.000 sec (  0.1%)
V-calculation             :    0.017 sec (  4.2%)
V**(-1/2)                 :    0.028 sec (  7.1%)
Gamma(ia|P)               :    0.000 sec (  0.0%)
Gamma-Trafo               :    0.000 sec (  0.0%)
D(virtual)                :    0.000 sec (  0.0%)
D(internal)               :    0.000 sec (  0.0%)
W(virtual)                :    0.000 sec (  0.0%)
W(internal)               :    0.000 sec (  0.0%)
L(virtual)                :    0.000 sec (  0.0%)
L(internal)               :    0.000 sec (  0.0%)
G(D)                      :    0.000 sec (  0.0%)
G(Z)                      :    0.000 sec (  0.0%)
Z-Vector Solution         :    0.000 sec (  0.0%)
Z-Vector Solution         :    0.000 sec (  0.0%)
3-Index Derivative 
+ Separable RIJ part      :    0.000 sec (  0.0%)
2-Index Derivative 
+ Separable RIJ part      :    0.000 sec (  0.0%)
Separable Gradient (X)    :    0.000 sec (  0.0%)


---------------------------------------
MP2 TOTAL ENERGY:     -541.754322673 Eh
---------------------------------------


-------------------------------------------------------------------------------
                          DFT DISPERSION CORRECTION                            
                                                                               
                              DFTD3 V3.1  Rev 1                                
                          USING Becke-Johnson damping                          
-------------------------------------------------------------------------------
The B2PLYP functional is recognized
Active option DFTDOPT                   ...         4   

molecular C6(AA) [au] = 5074.497630 


            DFT-D V3
 parameters
 s6 scaling factor         :     0.6400 
 a1 scaling factor         :     0.3065 
 s8 scaling factor         :     0.9147 
 a2 scaling factor         :     5.0570 
 ad hoc parameters k1-k3   :    16.0000     1.3333    -4.0000 

 Edisp/kcal,au: -8.256486351528  -0.013157547116 
 E6   /kcal   :  -2.567555628 
 E8   /kcal   :  -5.688930723 
 % E8         :  68.902563163 

-------------------------   ----------------
Dispersion correction           -0.013157547
-------------------------   ----------------


-------------------------   --------------------
FINAL SINGLE POINT ENERGY      -541.767480219687
-------------------------   --------------------


                            ***************************************
                            *     ORCA property calculations      *
                            ***************************************


  WARNING: The energy has been calculated at the MP2 level but the densities
           used in the property calculations are still SCF densities
           MP2 response densities have not been calculated 
           use %mp2 Density relaxed end
           or  %mp2 Density unrelaxed end

                                    ---------------------
                                    Active property flags
                                    ---------------------
   (+) Dipole Moment


------------------------------------------------------------------------------
                       ORCA ELECTRIC PROPERTIES CALCULATION
------------------------------------------------------------------------------

Dipole Moment Calculation                       ... on
Quadrupole Moment Calculation                   ... off
Polarizability Calculation                      ... off
GBWName                                         ... Au04C2.gbw
Electron density file                           ... Au04C2.scfp
The origin for moment calculation is the CENTER OF MASS  = ( 0.000000,  0.000000 -0.000000)

-------------
DIPOLE MOMENT
-------------
                                X             Y             Z
Electronic contribution:      0.00000       0.00004      -0.00001
Nuclear contribution   :      0.00000       0.00000       0.00000
                        -----------------------------------------
Total Dipole Moment    :      0.00000       0.00004      -0.00001
                        -----------------------------------------
Magnitude (a.u.)       :      0.00005
Magnitude (Debye)      :      0.00012



--------------------
Rotational spectrum 
--------------------
 
Rotational constants in cm-1:     0.011655     0.011655     0.011654 
Rotational constants in MHz :   349.408482   349.408217   349.388110 

 Dipole components along the rotational axes: 
x,y,z [a.u.] :    -0.000044     0.000000     0.000013 
x,y,z [Debye]:    -0.000113     0.000000     0.000032 

 

Timings for individual modules:

Sum of individual times         ...       10.114 sec (=   0.169 min)
GTO integral calculation        ...        1.730 sec (=   0.029 min)  17.1 %
SCF iterations                  ...        7.524 sec (=   0.125 min)  74.4 %
MP2 module                      ...        0.859 sec (=   0.014 min)   8.5 %
                             ****ORCA TERMINATED NORMALLY****
TOTAL RUN TIME: 0 days 0 hours 0 minutes 10 seconds 614 msec
