
                                 *****************
                                 * O   R   C   A *
                                 *****************

           --- An Ab Initio, DFT and Semiempirical electronic structure package ---

                  #######################################################
                  #                        -***-                        #
                  #          Department of theory and spectroscopy      #
                  #               Directorship: Frank Neese             #
                  #        Max Planck Institute fuer Kohlenforschung    #
                  #                Kaiser Wilhelm Platz 1               #
                  #                 D-45470 Muelheim/Ruhr               #
                  #                      Germany                        #
                  #                                                     #
                  #                  All rights reserved                #
                  #                        -***-                        #
                  #######################################################


                         Program Version 4.2.0 -  RELEASE  -


 With contributions from (in alphabetic order):
   Daniel Aravena         : Magnetic Suceptibility
   Michael Atanasov       : Ab Initio Ligand Field Theory (pilot matlab implementation)
   Alexander A. Auer      : GIAO ZORA, VPT2
   Ute Becker             : Parallelization
   Giovanni Bistoni       : ED, misc. LED, open-shell LED, HFLED
   Martin Brehm           : Molecular dynamics
   Dmytro Bykov           : SCF Hessian
   Vijay G. Chilkuri      : MRCI spin determinant printing, contributions to CSF-ICE
   Dipayan Datta          : RHF DLPNO-CCSD density
   Achintya Kumar Dutta   : EOM-CC, STEOM-CC
   Dmitry Ganyushin       : Spin-Orbit,Spin-Spin,Magnetic field MRCI
   Miquel Garcia          : C-PCM Hessian, Gaussian charge scheme
   Yang Guo               : DLPNO-NEVPT2, CIM, IAO-localization
   Andreas Hansen         : Spin unrestricted coupled pair/coupled cluster methods
   Benjamin Helmich-Paris : CASSCF linear response (MC-RPA)
   Lee Huntington         : MR-EOM, pCC
   Robert Izsak           : Overlap fitted RIJCOSX, COSX-SCS-MP3, EOM
   Christian Kollmar      : KDIIS, OOCD, Brueckner-CCSD(T), CCSD density
   Simone Kossmann        : Meta GGA functionals, TD-DFT gradient, OOMP2, MP2 Hessian
   Martin Krupicka        : AUTO-CI
   Lucas Lang             : DCDCAS
   Dagmar Lenk            : GEPOL surface, SMD
   Dimitrios Liakos       : Extrapolation schemes; Compound Job, initial MDCI parallelization
   Dimitrios Manganas     : Further ROCIS development; embedding schemes
   Dimitrios Pantazis     : SARC Basis sets
   Taras Petrenko         : DFT Hessian,TD-DFT gradient, ASA, ECA, R-Raman, ABS, FL, XAS/XES, NRVS
   Peter Pinski           : DLPNO-MP2, DLPNO-MP2 Gradient
   Christoph Reimann      : Effective Core Potentials
   Marius Retegan         : Local ZFS, SOC
   Christoph Riplinger    : Optimizer, TS searches, QM/MM, DLPNO-CCSD(T), (RO)-DLPNO pert. Triples
   Tobias Risthaus        : Range-separated hybrids, TD-DFT gradient, RPA, STAB
   Michael Roemelt        : Original ROCIS implementation
   Masaaki Saitow         : Open-shell DLPNO-CCSD energy and density
   Barbara Sandhoefer     : DKH picture change effects
   Avijit Sen             : IP-ROCIS
   Kantharuban Sivalingam : CASSCF convergence, NEVPT2, FIC-MRCI
   Bernardo de Souza      : ESD, SOC TD-DFT
   Georgi Stoychev        : AutoAux, RI-MP2 NMR
   Willem Van den Heuvel  : Paramagnetic NMR
   Boris Wezisla          : Elementary symmetry handling
   Frank Wennmohs         : Technical directorship


 We gratefully acknowledge several colleagues who have allowed us to
 interface, adapt or use parts of their codes:
   Stefan Grimme, W. Hujo, H. Kruse,             : VdW corrections, initial TS optimization,
                  C. Bannwarth                     DFT functionals, gCP, sTDA/sTD-DF
   Ed Valeev, F. Pavosevic, A. Kumar             : LibInt (2-el integral package), F12 methods
   Garnet Chan, S. Sharma, J. Yang, R. Olivares  : DMRG
   Ulf Ekstrom                                   : XCFun DFT Library
   Mihaly Kallay                                 : mrcc  (arbitrary order and MRCC methods)
   Andreas Klamt, Michael Diedenhofen            : otool_cosmo (COSMO solvation model)
   Jiri Pittner, Ondrej Demel                    : Mk-CCSD
   Frank Weinhold                                : gennbo (NPA and NBO analysis)
   Christopher J. Cramer and Donald G. Truhlar   : smd solvation model
   Lars Goerigk                                  : TD-DFT with DH, B97 family of functionals
   V. Asgeirsson, H. Jonsson                     : NEB implementation
   FAccTs GmbH                                   : IRC, NEB, NEB-TS, Multilevel, MM, QM/MM, CI optimization
   S Lehtola, MJT Oliveira, MAL Marques          : LibXC Library


 Your calculation uses the libint2 library for the computation of 2-el integrals
 For citations please refer to: http://libint.valeyev.net

 Your ORCA version has been built with support for libXC version: 4.2.3
 For citations please refer to: https://tddft.org/programs/libxc/

 This ORCA versions uses:
   CBLAS   interface :  Fast vector & matrix operations
   LAPACKE interface :  Fast linear algebra routines
   SCALAPACK package :  Parallel linear algebra routines


Your calculation utilizes the atom-pairwise dispersion correction
with the Becke-Johnson damping scheme (D3BJ)
Cite in your paper:
S.Grimme, S.Ehrlich, L.Goerigk, J Comput Chem, (2011), 32, 1456–1465 
S.Grimme, J.Antony, S.Ehrlich and H.Krieg, J.Chem.Phys., 132, (2010), 154104 
   

----- Orbital basis set information -----
Your calculation utilizes the basis: def2-TZVPPD
   F. Weigend and R. Ahlrichs, Phys. Chem. Chem. Phys. 7, 3297 (2005).
   D. Rappoport and F. Furche, J. Chem. Phys. 133 134105 (2010).

----- AuxC basis set information -----
Your calculation utilizes the auxiliary basis: def2-TZVPPD/C
   A. Hellweg, C. Hattig, S. Hofener and W. Klopper, Theor. Chem. Acc. 117, 587 (2007).

----- AuxJK basis set information -----
Your calculation utilizes the auxiliary basis: def2/JK
   H-Ba, Hf-Rn: F. Weigend, J. Comput. Chem. 29, 167 (2008).

================================================================================
                                        WARNINGS
                       Please study these warnings very carefully!
================================================================================


WARNING: your system is open-shell and RHF/RKS was chosen
  ===> : WILL SWITCH to UHF/UKS


WARNING: No MP2 level density has been requested!
         To caclulate MP2 level properties use
         %mp2 Density relaxed end
         or
         %mp2 Density unrelaxed end
         Otherwise for double-hybrid DFT only the energy is correct!

WARNING: The frozen-core approximation is turned on by default for 
         the MP2 part of double-hybrid DFT.

INFO   : the flag for use of LIBINT has been found!

================================================================================
                                       INPUT FILE
================================================================================
NAME = Cu03N0_LIN.in
|  1> #
|  2> # Cu03N0_LIN ri-B2PLYP-D3BJ/Def2-TZVPPD
|  3> #
|  4> ! rijk ri-b2plyp d3bj def2-tzvppd def2/jk def2-tzvppd/c grid4 nofinalgrid
|  5> 
|  6> *xyz 0 2
|  7> Cu       0.000000    0.000000    0.000000 
|  8> Cu       0.000000    0.000000    2.291099 
|  9> Cu       0.000000    0.000000   -2.291099 
| 10> *
| 11> 
| 12> %maxcore 5000
| 13> 
| 14> %pal
| 15> nprocs = 24
| 16> end
| 17> 
| 18> 
| 19>                          ****END OF INPUT****
================================================================================

                       ****************************
                       * Single Point Calculation *
                       ****************************

---------------------------------
CARTESIAN COORDINATES (ANGSTROEM)
---------------------------------
  Cu     0.000000    0.000000    0.000000
  Cu     0.000000    0.000000    2.291099
  Cu     0.000000    0.000000   -2.291099

----------------------------
CARTESIAN COORDINATES (A.U.)
----------------------------
  NO LB      ZA    FRAG     MASS         X           Y           Z
   0 Cu   29.0000    0    63.550    0.000000    0.000000    0.000000
   1 Cu   29.0000    0    63.550    0.000000    0.000000    4.329550
   2 Cu   29.0000    0    63.550    0.000000    0.000000   -4.329550

--------------------------------
INTERNAL COORDINATES (ANGSTROEM)
--------------------------------
 Cu     0   0   0     0.000000000000     0.00000000     0.00000000
 Cu     1   0   0     2.291099000000     0.00000000     0.00000000
 Cu     1   2   0     2.291099000000   180.00000000     0.00000000

---------------------------
INTERNAL COORDINATES (A.U.)
---------------------------
 Cu     0   0   0     0.000000000000     0.00000000     0.00000000
 Cu     1   0   0     4.329549655701     0.00000000     0.00000000
 Cu     1   2   0     4.329549655701   180.00000000     0.00000000

---------------------
BASIS SET INFORMATION
---------------------
There are 1 groups of distinct atoms

 Group   1 Type Cu  : 17s13p7d2f1g contracted to 6s6p4d2f1g pattern {842111/631111/4111/11/1}

Atom   0Cu   basis set group =>   1
Atom   1Cu   basis set group =>   1
Atom   2Cu   basis set group =>   1
---------------------------------
AUXILIARY/C BASIS SET INFORMATION
---------------------------------
There are 1 groups of distinct atoms

 Group   1 Type Cu  : 10s10p9d7f5g3h1i contracted to 10s10p9d7f5g3h1i pattern {1111111111/1111111111/111111111/1111111/11111/111/1}

Atom   0Cu   basis set group =>   1
Atom   1Cu   basis set group =>   1
Atom   2Cu   basis set group =>   1
----------------------------------
AUXILIARY/JK BASIS SET INFORMATION
----------------------------------
There are 1 groups of distinct atoms

 Group   1 Type Cu  : 19s14p12d10f7g3h1i contracted to 16s13p11d9f5g3h1i pattern {4111111111111111/2111111111111/21111111111/211111111/31111/111/1}

Atom   0Cu   basis set group =>   1
Atom   1Cu   basis set group =>   1
Atom   2Cu   basis set group =>   1


           ************************************************************
           *        Program running with 24 parallel MPI-processes    *
           *              working on a common directory               *
           ************************************************************
------------------------------------------------------------------------------
                           ORCA GTO INTEGRAL CALCULATION
                           -- RI-GTO INTEGRALS CHOSEN --
------------------------------------------------------------------------------

                         BASIS SET STATISTICS AND STARTUP INFO

Gaussian basis set:
 # of primitive gaussian shells          ...  120
 # of primitive gaussian functions       ...  342
 # of contracted shells                  ...   57
 # of contracted basis functions         ...  201
 Highest angular momentum                ...    4
 Maximum contraction depth               ...    8
Auxiliary gaussian basis set:
 # of primitive gaussian shells          ...  198
 # of primitive gaussian functions       ...  900
 # of contracted shells                  ...  174
 # of contracted aux-basis functions     ...  792
 Highest angular momentum                ...    6
 Maximum contraction depth               ...    4
Ratio of auxiliary to basis functions    ...  3.94
Integral package used                  ... LIBINT
 One Electron integrals                  ... done
 Ordering auxiliary basis shells         ... done
 Integral threshhold             Thresh  ...  1.000e-10
 Primitive cut-off               TCut    ...  1.000e-11
 Pre-screening matrix                    ... done
 Shell pair data                         ... 
 Ordering of the shell pairs             ... done (   0.000 sec) 1434 of 1653 pairs
 Determination of significant pairs      ... done (   0.000 sec)
 Creation of shell pair data             ... done (   0.000 sec)
 Storage of shell pair data              ... done (   0.040 sec)
 Shell pair data done in (   0.041 sec)
 Computing two index integrals           ... done
 Cholesky decomposition of the V-matrix  ... done


Timings:
 Total evaluation time                   ...   0.471 sec (  0.008 min)
 One electron matrix time                ...   0.033 sec (  0.001 min) =  7.1%
 Schwartz matrix evaluation time         ...   0.211 sec (  0.004 min) = 44.8%
 Two index repulsion integral time       ...   0.135 sec (  0.002 min) = 28.8%
 Cholesky decomposition of V             ...   0.010 sec (  0.000 min) =  2.1%
 Three index repulsion integral time     ...   0.000 sec (  0.000 min) =  0.0%



           ************************************************************
           *        Program running with 24 parallel MPI-processes    *
           *              working on a common directory               *
           ************************************************************
-------------------------------------------------------------------------------
                                 ORCA SCF
-------------------------------------------------------------------------------

------------
SCF SETTINGS
------------
Hamiltonian:
 Density Functional     Method          .... DFT(GTOs)
 Exchange Functional    Exchange        .... B88
   X-Alpha parameter    XAlpha          ....  0.666667
   Becke's b parameter  XBeta           ....  0.004200
 Correlation Functional Correlation     .... LYP
 LDA part of GGA corr.  LDAOpt          .... VWN-3
 Gradients option       PostSCFGGA      .... off
 Hybrid DFT is turned on
   Fraction HF Exchange ScalHFX         ....  0.530000
   Scaling of DF-GGA-X  ScalDFX         ....  0.470000
   Scaling of DF-GGA-C  ScalDFC         ....  0.730000
   Scaling of DF-LDA-C  ScalLDAC        ....  0.730000
   Perturbative correction              ....  0.270000
   Density functional embedding theory  .... OFF
 RI-approximation to the Coulomb term is turned on
   Number of auxiliary basis functions  .... 792
   RI-JK (J+K treated both via RI)      .... on


General Settings:
 Integral files         IntName         .... Cu03N0_LIN
 Hartree-Fock type      HFTyp           .... UHF
 Total Charge           Charge          ....    0
 Multiplicity           Mult            ....    2
 Number of Electrons    NEL             ....   87
 Basis Dimension        Dim             ....  201
 Nuclear Repulsion      ENuc            ....    485.6163266846 Eh

Convergence Acceleration:
 DIIS                   CNVDIIS         .... on
   Start iteration      DIISMaxIt       ....    12
   Startup error        DIISStart       ....  0.200000
   # of expansion vecs  DIISMaxEq       ....     5
   Bias factor          DIISBfac        ....   1.050
   Max. coefficient     DIISMaxC        ....  10.000
 Newton-Raphson         CNVNR           .... off
 SOSCF                  CNVSOSCF        .... off
 Level Shifting         CNVShift        .... on
   Level shift para.    LevelShift      ....    0.2500
   Turn off err/grad.   ShiftErr        ....    0.0010
 Zerner damping         CNVZerner       .... off
 Static damping         CNVDamp         .... on
   Fraction old density DampFac         ....    0.7000
   Max. Damping (<1)    DampMax         ....    0.9800
   Min. Damping (>=0)   DampMin         ....    0.0000
   Turn off err/grad.   DampErr         ....    0.1000
 Fernandez-Rico         CNVRico         .... off

SCF Procedure:
 Maximum # iterations   MaxIter         ....   125
 SCF integral mode      SCFMode         .... Direct
   Integral package                     .... LIBINT
 Reset frequency        DirectResetFreq ....    20
 Integral Threshold     Thresh          ....  1.000e-10 Eh
 Primitive CutOff       TCut            ....  1.000e-11 Eh

Convergence Tolerance:
 Convergence Check Mode ConvCheckMode   .... Total+1el-Energy
 Convergence forced     ConvForced      .... 0
 Energy Change          TolE            ....  1.000e-06 Eh
 1-El. energy change                    ....  1.000e-03 Eh
 DIIS Error             TolErr          ....  1.000e-06


Diagonalization of the overlap matrix:
Smallest eigenvalue                        ... 3.321e-04
Time for diagonalization                   ...    0.006 sec
Threshold for overlap eigenvalues          ... 1.000e-08
Number of eigenvalues below threshold      ... 0
Time for construction of square roots      ...    0.005 sec
Total time needed                          ...    0.011 sec

-------------------
DFT GRID GENERATION
-------------------

General Integration Accuracy     IntAcc      ...  4.670
Radial Grid Type                 RadialGrid  ... Gauss-Chebyshev
Angular Grid (max. acc.)         AngularGrid ... Lebedev-302
Angular grid pruning method      GridPruning ... 3 (G Style)
Weight generation scheme         WeightScheme... Becke
Basis function cutoff            BFCut       ...    1.0000e-10
Integration weight cutoff        WCut        ...    1.0000e-14
Grids for H and He will be reduced by one unit

# of grid points (after initial pruning)     ...  28668 (   0.0 sec)
# of grid points (after weights+screening)   ...  28508 (   0.0 sec)
nearest neighbour list constructed           ...    0.0 sec
Grid point re-assignment to atoms done       ...    0.0 sec
Grid point division into batches done        ...    0.2 sec
Reduced shell lists constructed in    0.3 sec

Total number of grid points                  ...    28508
Total number of batches                      ...      447
Average number of points per batch           ...       63
Average number of grid points per atom       ...     9503
Average number of shells per batch           ...    18.10 (31.75%)
Average number of basis functions per batch  ...    52.30 (26.02%)
Average number of large shells per batch     ...    15.95 (88.12%)
Average number of large basis fcns per batch ...    46.25 (88.43%)
Average number of aux-shells per batch       ...    18.10 (10.40%)
Average number of aux functions per batch    ...    52.30 ( 6.60%)
Maximum spatial batch extension              ...  26.18, 26.18,  4.32 au
Average spatial batch extension              ...   0.42,  0.42,  0.18 au

Time for grid setup =    0.367 sec

------------------------------
INITIAL GUESS: MODEL POTENTIAL
------------------------------
Loading Hartree-Fock densities                     ... done
Calculating cut-offs                               ... done
Setting up the integral package                    ... done
Initializing the effective Hamiltonian             ... done
Starting the Coulomb interaction                   ... done (   0.0 sec)
Reading the grid                                   ... done
Mapping shells                                     ... done
Starting the XC term evaluation                    ... done (   0.0 sec)
  promolecular density results
     # of electrons  =     87.000073666
     EX              =   -197.386593093
     EC              =     -1.568709362
     EX+EC           =   -198.955302455
Transforming the Hamiltonian                       ... done (   0.0 sec)
Diagonalizing the Hamiltonian                      ... done (   0.0 sec)
Back transforming the eigenvectors                 ... done (   0.0 sec)
Now organizing SCF variables                       ... done
                      ------------------
                      INITIAL GUESS DONE (   0.5 sec)
                      ------------------
--------------
SCF ITERATIONS
--------------
ITER       Energy         Delta-E        Max-DP      RMS-DP      [F,P]     Damp
  0  -4920.1440826216   0.000000000000 0.07792979  0.00097514  0.1280126 0.7000
  1  -4919.8694878735   0.274594748023 0.07580419  0.00087292  0.0650606 0.7000
                               ***Turning on DIIS***
  2  -4920.0283738911  -0.158886017535 0.19069718  0.00208272  0.0389697 0.0000
  3  -4920.2185174407  -0.190143549668 0.02803031  0.00035785  0.0345855 0.0000
  4  -4920.2247836072  -0.006266166482 0.01071970  0.00015407  0.0228192 0.0000
  5  -4920.2261288431  -0.001345235837 0.00622112  0.00010329  0.0088549 0.0000
  6  -4920.2266681157  -0.000539272668 0.00523214  0.00008080  0.0030433 0.0000
  7  -4920.2268114388  -0.000143323039 0.00343021  0.00005315  0.0018521 0.0000
  8  -4920.2268681373  -0.000056698554 0.00329775  0.00003968  0.0015203 0.0000
  9  -4920.2268993745  -0.000031237135 0.00460940  0.00005504  0.0005940 0.0000
 10  -4920.2269264613  -0.000027086798 0.00211188  0.00001785  0.0001944 0.0000
 11  -4920.2269304114  -0.000003950184 0.00075920  0.00000613  0.0001214 0.0000
 12  -4920.2269309403  -0.000000528816 0.00048513  0.00000409  0.0001257 0.0000
 13  -4920.2269311482  -0.000000207913 0.00020345  0.00000203  0.0000269 0.0000
                 **** Energy Check signals convergence ****

               *****************************************************
               *                     SUCCESS                       *
               *           SCF CONVERGED AFTER  14 CYCLES          *
               *****************************************************


----------------
TOTAL SCF ENERGY
----------------

Total Energy       :        -4920.22693119 Eh         -133886.18144 eV

Components:
Nuclear Repulsion  :          485.61632668 Eh           13214.29205 eV
Electronic Energy  :        -5405.84325787 Eh         -147100.47349 eV
One Electron Energy:        -7837.13038319 Eh         -213259.15961 eV
Two Electron Energy:         2431.28712531 Eh           66158.68612 eV

Virial components:
Potential Energy   :        -9835.44028622 Eh         -267635.93654 eV
Kinetic Energy     :         4915.21335503 Eh          133749.75510 eV
Virial Ratio       :            2.00102001


DFT components:
N(Alpha)           :       44.000000530696 electrons
N(Beta)            :       43.000000276016 electrons
N(Total)           :       87.000000806712 electrons
E(X)               :      -93.037141221783 Eh       
E(C)               :       -3.030417094833 Eh       
E(XC)              :      -96.067558316616 Eh       
DFET-embed. en.    :        0.000000000000 Eh       

---------------
SCF CONVERGENCE
---------------

  Last Energy change         ...   -4.0530e-08  Tolerance :   1.0000e-06
  Last MAX-Density change    ...    7.3497e-05  Tolerance :   1.0000e-05
  Last RMS-Density change    ...    6.8526e-07  Tolerance :   1.0000e-06
  Last DIIS Error            ...    3.6149e-05  Tolerance :   1.0000e-06

             **** THE GBW FILE WAS UPDATED (Cu03N0_LIN.gbw) ****
             **** DENSITY FILE WAS UPDATED (Cu03N0_LIN.scfp) ****
             **** ENERGY FILE WAS UPDATED (Cu03N0_LIN.en.tmp) ****
----------------------
UHF SPIN CONTAMINATION
----------------------

Warning: in a DFT calculation there is little theoretical justification to 
         calculate <S**2> as in Hartree-Fock theory. We will do it anyways
         but you should keep in mind that the values have only limited relevance

Expectation value of <S**2>     :     0.781176
Ideal value S*(S+1) for S=0.5   :     0.750000
Deviation                       :     0.031176

             **** THE GBW FILE WAS UPDATED (Cu03N0_LIN.gbw) ****
             **** DENSITY FILE WAS UPDATED (Cu03N0_LIN.scfp) ****
----------------
ORBITAL ENERGIES
----------------
                 SPIN UP ORBITALS
  NO   OCC          E(Eh)            E(eV) 
   0   1.0000    -325.421180     -8855.1605 
   1   1.0000    -325.421176     -8855.1604 
   2   1.0000    -325.407050     -8854.7760 
   3   1.0000     -39.629528     -1078.3743 
   4   1.0000     -39.629513     -1078.3739 
   5   1.0000     -39.618349     -1078.0701 
   6   1.0000     -34.665070      -943.2845 
   7   1.0000     -34.665068      -943.2845 
   8   1.0000     -34.664531      -943.2698 
   9   1.0000     -34.664531      -943.2698 
  10   1.0000     -34.664529      -943.2698 
  11   1.0000     -34.664529      -943.2698 
  12   1.0000     -34.654209      -942.9890 
  13   1.0000     -34.653437      -942.9680 
  14   1.0000     -34.653437      -942.9680 
  15   1.0000      -4.579877      -124.6248 
  16   1.0000      -4.579868      -124.6245 
  17   1.0000      -4.566390      -124.2578 
  18   1.0000      -2.999727       -81.6267 
  19   1.0000      -2.998824       -81.6021 
  20   1.0000      -2.995695       -81.5170 
  21   1.0000      -2.995695       -81.5170 
  22   1.0000      -2.995694       -81.5170 
  23   1.0000      -2.995694       -81.5170 
  24   1.0000      -2.986640       -81.2706 
  25   1.0000      -2.982277       -81.1519 
  26   1.0000      -2.982277       -81.1519 
  27   1.0000      -0.391563       -10.6550 
  28   1.0000      -0.372738       -10.1427 
  29   1.0000      -0.372738       -10.1427 
  30   1.0000      -0.356948        -9.7130 
  31   1.0000      -0.356948        -9.7130 
  32   1.0000      -0.356808        -9.7093 
  33   1.0000      -0.354784        -9.6542 
  34   1.0000      -0.354779        -9.6540 
  35   1.0000      -0.353379        -9.6159 
  36   1.0000      -0.353374        -9.6158 
  37   1.0000      -0.337178        -9.1751 
  38   1.0000      -0.337172        -9.1749 
  39   1.0000      -0.323463        -8.8019 
  40   1.0000      -0.323463        -8.8019 
  41   1.0000      -0.317783        -8.6473 
  42   1.0000      -0.255029        -6.9397 
  43   1.0000      -0.206779        -5.6267 
  44   0.0000      -0.029184        -0.7941 
  45   0.0000      -0.005979        -0.1627 
  46   0.0000      -0.005979        -0.1627 
  47   0.0000       0.021096         0.5740 
  48   0.0000       0.030088         0.8187 
  49   0.0000       0.030088         0.8187 
  50   0.0000       0.077233         2.1016 
  51   0.0000       0.088616         2.4114 
  52   0.0000       0.090325         2.4579 
  53   0.0000       0.090325         2.4579 
  54   0.0000       0.111112         3.0235 
  55   0.0000       0.148213         4.0331 
  56   0.0000       0.148213         4.0331 
  57   0.0000       0.152400         4.1470 
  58   0.0000       0.170872         4.6497 
  59   0.0000       0.170872         4.6497 
  60   0.0000       0.191986         5.2242 
  61   0.0000       0.191986         5.2242 
  62   0.0000       0.209048         5.6885 
  63   0.0000       0.226867         6.1734 
  64   0.0000       0.226867         6.1734 
  65   0.0000       0.240159         6.5351 
  66   0.0000       0.240160         6.5351 
  67   0.0000       0.252744         6.8775 
  68   0.0000       0.261751         7.1226 
  69   0.0000       0.261751         7.1226 
  70   0.0000       0.275331         7.4921 
  71   0.0000       0.316196         8.6041 
  72   0.0000       0.316196         8.6041 
  73   0.0000       0.322274         8.7695 
  74   0.0000       0.375902        10.2288 
  75   0.0000       0.375902        10.2288 
  76   0.0000       0.411082        11.1861 
  77   0.0000       0.498848        13.5743 
  78   0.0000       0.498848        13.5743 
  79   0.0000       0.544936        14.8285 
  80   0.0000       0.615754        16.7555 
  81   0.0000       0.685555        18.6549 
  82   0.0000       0.727966        19.8090 
  83   0.0000       0.727966        19.8090 
  84   0.0000       0.756073        20.5738 
  85   0.0000       0.756073        20.5738 
  86   0.0000       0.820720        22.3329 
  87   0.0000       0.820720        22.3329 
  88   0.0000       0.839267        22.8376 
  89   0.0000       0.940668        25.5969 
  90   0.0000       0.940671        25.5970 
  91   0.0000       0.977561        26.6008 
  92   0.0000       0.979190        26.6451 
  93   0.0000       0.979190        26.6451 
  94   0.0000       0.982841        26.7445 
  95   0.0000       0.982843        26.7445 
  96   0.0000       1.047482        28.5034 
  97   0.0000       1.047482        28.5034 
  98   0.0000       1.054205        28.6864 
  99   0.0000       1.059491        28.8302 
 100   0.0000       1.059495        28.8303 
 101   0.0000       1.266315        34.4582 
 102   0.0000       1.266315        34.4582 
 103   0.0000       1.304675        35.5020 
 104   0.0000       1.598620        43.5007 
 105   0.0000       3.161072        86.0171 
 106   0.0000       3.161072        86.0171 
 107   0.0000       3.175008        86.3963 
 108   0.0000       3.245298        88.3091 
 109   0.0000       3.261117        88.7395 
 110   0.0000       3.261117        88.7395 
 111   0.0000       3.282817        89.3300 
 112   0.0000       3.282817        89.3300 
 113   0.0000       3.333830        90.7181 
 114   0.0000       3.408343        92.7457 
 115   0.0000       3.560467        96.8852 
 116   0.0000       3.563692        96.9730 
 117   0.0000       3.584195        97.5309 
 118   0.0000       3.584195        97.5309 
 119   0.0000       3.590349        97.6984 
 120   0.0000       3.590349        97.6984 
 121   0.0000       3.595032        97.8258 
 122   0.0000       3.595039        97.8260 
 123   0.0000       3.596901        97.8766 
 124   0.0000       3.596908        97.8768 
 125   0.0000       3.599004        97.9339 
 126   0.0000       3.599004        97.9339 
 127   0.0000       3.599006        97.9339 
 128   0.0000       3.599006        97.9339 
 129   0.0000       3.616362        98.4062 
 130   0.0000       3.616374        98.4065 
 131   0.0000       3.620278        98.5128 
 132   0.0000       3.620278        98.5128 
 133   0.0000       3.644890        99.1825 
 134   0.0000       3.644890        99.1825 
 135   0.0000       3.659856        99.5897 
 136   0.0000       3.802175       103.4624 
 137   0.0000       3.878813       105.5479 
 138   0.0000       3.878852       105.5489 
 139   0.0000       3.902117       106.1820 
 140   0.0000       3.902151       106.1829 
 141   0.0000       3.947657       107.4212 
 142   0.0000       3.947657       107.4212 
 143   0.0000       3.952105       107.5423 
 144   0.0000       3.952148       107.5434 
 145   0.0000       3.981540       108.3432 
 146   0.0000       4.000292       108.8535 
 147   0.0000       4.000292       108.8535 
 148   0.0000       4.100258       111.5737 
 149   0.0000       4.100258       111.5737 
 150   0.0000       4.237167       115.2992 
 151   0.0000       4.302165       117.0679 
 152   0.0000       4.662311       126.8679 
 153   0.0000      13.309269       362.1636 
 154   0.0000      13.309269       362.1636 
 155   0.0000      13.309759       362.1770 
 156   0.0000      13.309817       362.1785 
 157   0.0000      13.310043       362.1847 
 158   0.0000      13.310043       362.1847 
 159   0.0000      13.310185       362.1886 
 160   0.0000      13.310243       362.1901 
 161   0.0000      13.310335       362.1926 
 162   0.0000      13.310758       362.2041 
 163   0.0000      13.311200       362.2162 
 164   0.0000      13.311200       362.2162 
 165   0.0000      13.311208       362.2164 
 166   0.0000      13.311208       362.2164 
 167   0.0000      13.312520       362.2521 
 168   0.0000      13.312520       362.2521 
 169   0.0000      13.312631       362.2551 
 170   0.0000      13.312631       362.2551 
 171   0.0000      13.323004       362.5374 
 172   0.0000      13.323004       362.5374 
 173   0.0000      13.323184       362.5423 
 174   0.0000      13.323860       362.5607 
 175   0.0000      13.325368       362.6017 
 176   0.0000      13.325368       362.6017 
 177   0.0000      13.326501       362.6325 
 178   0.0000      13.327122       362.6494 
 179   0.0000      13.327273       362.6535 
 180   0.0000      13.514099       367.7373 
 181   0.0000      13.514099       367.7373 
 182   0.0000      13.515240       367.7684 
 183   0.0000      13.515348       367.7713 
 184   0.0000      13.516361       367.7989 
 185   0.0000      13.516469       367.8018 
 186   0.0000      13.516961       367.8152 
 187   0.0000      13.516961       367.8152 
 188   0.0000      13.516961       367.8152 
 189   0.0000      13.516961       367.8152 
 190   0.0000      13.520604       367.9143 
 191   0.0000      13.528456       368.1280 
 192   0.0000      13.528604       368.1320 
 193   0.0000      13.529110       368.1458 
 194   0.0000      13.529110       368.1458 
 195   0.0000      13.531048       368.1985 
 196   0.0000      13.531048       368.1985 
 197   0.0000      13.545970       368.6046 
 198   0.0000      13.545970       368.6046 
 199   0.0000      13.610098       370.3496 
 200   0.0000      13.648527       371.3953 

                 SPIN DOWN ORBITALS
  NO   OCC          E(Eh)            E(eV) 
   0   1.0000    -325.420146     -8855.1324 
   1   1.0000    -325.420143     -8855.1323 
   2   1.0000    -325.407106     -8854.7775 
   3   1.0000     -39.629543     -1078.3747 
   4   1.0000     -39.629527     -1078.3743 
   5   1.0000     -39.618925     -1078.0858 
   6   1.0000     -34.665882      -943.3066 
   7   1.0000     -34.665880      -943.3065 
   8   1.0000     -34.665135      -943.2863 
   9   1.0000     -34.665135      -943.2863 
  10   1.0000     -34.665133      -943.2862 
  11   1.0000     -34.665133      -943.2862 
  12   1.0000     -34.654302      -942.9915 
  13   1.0000     -34.653697      -942.9750 
  14   1.0000     -34.653697      -942.9750 
  15   1.0000      -4.578797      -124.5954 
  16   1.0000      -4.578791      -124.5952 
  17   1.0000      -4.567602      -124.2908 
  18   1.0000      -3.000384       -81.6446 
  19   1.0000      -2.999582       -81.6228 
  20   1.0000      -2.997015       -81.5529 
  21   1.0000      -2.997015       -81.5529 
  22   1.0000      -2.997005       -81.5527 
  23   1.0000      -2.997005       -81.5527 
  24   1.0000      -2.986601       -81.2695 
  25   1.0000      -2.983354       -81.1812 
  26   1.0000      -2.983354       -81.1812 
  27   1.0000      -0.389485       -10.5984 
  28   1.0000      -0.371938       -10.1209 
  29   1.0000      -0.371938       -10.1209 
  30   1.0000      -0.357381        -9.7248 
  31   1.0000      -0.356345        -9.6966 
  32   1.0000      -0.356345        -9.6966 
  33   1.0000      -0.354501        -9.6465 
  34   1.0000      -0.354497        -9.6463 
  35   1.0000      -0.353095        -9.6082 
  36   1.0000      -0.353091        -9.6081 
  37   1.0000      -0.338048        -9.1987 
  38   1.0000      -0.338041        -9.1986 
  39   1.0000      -0.325134        -8.8474 
  40   1.0000      -0.325134        -8.8474 
  41   1.0000      -0.316939        -8.6243 
  42   1.0000      -0.225485        -6.1358 
  43   0.0000      -0.084879        -2.3097 
  44   0.0000      -0.012490        -0.3399 
  45   0.0000       0.000733         0.0200 
  46   0.0000       0.000733         0.0200 
  47   0.0000       0.030876         0.8402 
  48   0.0000       0.040566         1.1039 
  49   0.0000       0.040566         1.1039 
  50   0.0000       0.081524         2.2184 
  51   0.0000       0.089009         2.4221 
  52   0.0000       0.089009         2.4221 
  53   0.0000       0.098172         2.6714 
  54   0.0000       0.116250         3.1633 
  55   0.0000       0.155752         4.2382 
  56   0.0000       0.155752         4.2382 
  57   0.0000       0.158917         4.3244 
  58   0.0000       0.183829         5.0022 
  59   0.0000       0.183829         5.0022 
  60   0.0000       0.193959         5.2779 
  61   0.0000       0.193959         5.2779 
  62   0.0000       0.212929         5.7941 
  63   0.0000       0.231548         6.3007 
  64   0.0000       0.231548         6.3007 
  65   0.0000       0.243385         6.6228 
  66   0.0000       0.243385         6.6228 
  67   0.0000       0.258191         7.0257 
  68   0.0000       0.265232         7.2173 
  69   0.0000       0.265232         7.2173 
  70   0.0000       0.282959         7.6997 
  71   0.0000       0.316106         8.6017 
  72   0.0000       0.316106         8.6017 
  73   0.0000       0.325576         8.8594 
  74   0.0000       0.379227        10.3193 
  75   0.0000       0.379227        10.3193 
  76   0.0000       0.415672        11.3110 
  77   0.0000       0.502101        13.6629 
  78   0.0000       0.502101        13.6629 
  79   0.0000       0.547383        14.8950 
  80   0.0000       0.622503        16.9392 
  81   0.0000       0.692383        18.8407 
  82   0.0000       0.733473        19.9588 
  83   0.0000       0.733473        19.9588 
  84   0.0000       0.765855        20.8400 
  85   0.0000       0.765855        20.8400 
  86   0.0000       0.823732        22.4149 
  87   0.0000       0.823732        22.4149 
  88   0.0000       0.846130        23.0244 
  89   0.0000       0.946020        25.7425 
  90   0.0000       0.946024        25.7426 
  91   0.0000       0.984087        26.7784 
  92   0.0000       0.985899        26.8277 
  93   0.0000       0.985899        26.8277 
  94   0.0000       0.993007        27.0211 
  95   0.0000       0.993011        27.0212 
  96   0.0000       1.056010        28.7355 
  97   0.0000       1.056010        28.7355 
  98   0.0000       1.061440        28.8832 
  99   0.0000       1.061444        28.8834 
 100   0.0000       1.061869        28.8949 
 101   0.0000       1.270422        34.5699 
 102   0.0000       1.270422        34.5699 
 103   0.0000       1.311613        35.6908 
 104   0.0000       1.603191        43.6251 
 105   0.0000       3.163980        86.0963 
 106   0.0000       3.163980        86.0963 
 107   0.0000       3.180970        86.5586 
 108   0.0000       3.247576        88.3710 
 109   0.0000       3.265433        88.8569 
 110   0.0000       3.265433        88.8569 
 111   0.0000       3.283258        89.3420 
 112   0.0000       3.283258        89.3420 
 113   0.0000       3.337331        90.8134 
 114   0.0000       3.411482        92.8311 
 115   0.0000       3.565122        97.0119 
 116   0.0000       3.566394        97.0465 
 117   0.0000       3.585347        97.5623 
 118   0.0000       3.585347        97.5623 
 119   0.0000       3.593442        97.7825 
 120   0.0000       3.593442        97.7825 
 121   0.0000       3.598586        97.9225 
 122   0.0000       3.598595        97.9227 
 123   0.0000       3.600707        97.9802 
 124   0.0000       3.600716        97.9805 
 125   0.0000       3.603285        98.0504 
 126   0.0000       3.603285        98.0504 
 127   0.0000       3.603288        98.0505 
 128   0.0000       3.603288        98.0505 
 129   0.0000       3.615843        98.3921 
 130   0.0000       3.615856        98.3924 
 131   0.0000       3.619429        98.4897 
 132   0.0000       3.619429        98.4897 
 133   0.0000       3.646832        99.2353 
 134   0.0000       3.646832        99.2353 
 135   0.0000       3.661836        99.6436 
 136   0.0000       3.802842       103.4806 
 137   0.0000       3.880369       105.5902 
 138   0.0000       3.880411       105.5913 
 139   0.0000       3.904889       106.2574 
 140   0.0000       3.904928       106.2585 
 141   0.0000       3.950050       107.4863 
 142   0.0000       3.950050       107.4863 
 143   0.0000       3.952294       107.5474 
 144   0.0000       3.952338       107.5486 
 145   0.0000       3.983468       108.3957 
 146   0.0000       4.002551       108.9149 
 147   0.0000       4.002551       108.9149 
 148   0.0000       4.100123       111.5700 
 149   0.0000       4.100123       111.5700 
 150   0.0000       4.239098       115.3517 
 151   0.0000       4.304036       117.1188 
 152   0.0000       4.663453       126.8990 
 153   0.0000      13.308331       362.1381 
 154   0.0000      13.308331       362.1381 
 155   0.0000      13.308907       362.1538 
 156   0.0000      13.308963       362.1553 
 157   0.0000      13.309100       362.1590 
 158   0.0000      13.309100       362.1590 
 159   0.0000      13.309334       362.1654 
 160   0.0000      13.309344       362.1657 
 161   0.0000      13.309391       362.1669 
 162   0.0000      13.309767       362.1772 
 163   0.0000      13.310404       362.1945 
 164   0.0000      13.310404       362.1945 
 165   0.0000      13.310410       362.1947 
 166   0.0000      13.310410       362.1947 
 167   0.0000      13.311623       362.2277 
 168   0.0000      13.311623       362.2277 
 169   0.0000      13.311734       362.2307 
 170   0.0000      13.311734       362.2307 
 171   0.0000      13.322529       362.5244 
 172   0.0000      13.322529       362.5244 
 173   0.0000      13.322651       362.5278 
 174   0.0000      13.323328       362.5462 
 175   0.0000      13.324875       362.5883 
 176   0.0000      13.324875       362.5883 
 177   0.0000      13.326044       362.6201 
 178   0.0000      13.326965       362.6452 
 179   0.0000      13.327117       362.6493 
 180   0.0000      13.513299       367.7155 
 181   0.0000      13.513299       367.7155 
 182   0.0000      13.514391       367.7453 
 183   0.0000      13.514500       367.7482 
 184   0.0000      13.515510       367.7757 
 185   0.0000      13.515545       367.7767 
 186   0.0000      13.515545       367.7767 
 187   0.0000      13.515545       367.7767 
 188   0.0000      13.515545       367.7767 
 189   0.0000      13.515618       367.7787 
 190   0.0000      13.519899       367.8951 
 191   0.0000      13.527568       368.1038 
 192   0.0000      13.527716       368.1079 
 193   0.0000      13.528423       368.1271 
 194   0.0000      13.528423       368.1271 
 195   0.0000      13.530185       368.1750 
 196   0.0000      13.530185       368.1750 
 197   0.0000      13.545454       368.5905 
 198   0.0000      13.545454       368.5905 
 199   0.0000      13.609186       370.3248 
 200   0.0000      13.648086       371.3833 

                    ********************************
                    * MULLIKEN POPULATION ANALYSIS *
                    ********************************

--------------------------------------------
MULLIKEN ATOMIC CHARGES AND SPIN POPULATIONS
--------------------------------------------
   0 Cu:   -0.292663   -0.225617
   1 Cu:    0.146336    0.612815
   2 Cu:    0.146327    0.612802
Sum of atomic charges         :   -0.0000000
Sum of atomic spin populations:    1.0000000

-----------------------------------------------------
MULLIKEN REDUCED ORBITAL CHARGES AND SPIN POPULATIONS
-----------------------------------------------------
CHARGE
  0 Cus       :     7.276986  s :     7.276986
      pz      :     4.044107  p :    12.062169
      px      :     4.009031
      py      :     4.009031
      dz2     :     1.985245  d :     9.953270
      dxz     :     1.984189
      dyz     :     1.984189
      dx2y2   :     1.999824
      dxy     :     1.999824
      f0      :     0.000107  f :     0.000237
      f+1     :     0.000058
      f-1     :     0.000058
      f+2     :     0.000007
      f-2     :     0.000007
      f+3     :     0.000000
      f-3     :     0.000000
      g0      :     0.000000  g :     0.000001
      g+1     :     0.000000
      g-1     :     0.000000
      g+2     :     0.000000
      g-2     :     0.000000
      g+3     :     0.000000
      g-3     :     0.000000
      g+4     :     0.000000
      g-4     :     0.000000
  1 Cus       :     6.876725  s :     6.876725
      pz      :     3.990063  p :    12.003932
      px      :     4.006934
      py      :     4.006934
      dz2     :     1.979932  d :     9.972873
      dxz     :     1.996392
      dyz     :     1.996392
      dx2y2   :     2.000078
      dxy     :     2.000078
      f0      :     0.000052  f :     0.000134
      f+1     :     0.000034
      f-1     :     0.000034
      f+2     :     0.000007
      f-2     :     0.000007
      f+3     :     0.000000
      f-3     :     0.000000
      g0      :     0.000000  g :     0.000001
      g+1     :     0.000000
      g-1     :     0.000000
      g+2     :     0.000000
      g-2     :     0.000000
      g+3     :     0.000000
      g-3     :     0.000000
      g+4     :     0.000000
      g-4     :     0.000000
  2 Cus       :     6.876735  s :     6.876735
      pz      :     3.990063  p :    12.003931
      px      :     4.006934
      py      :     4.006934
      dz2     :     1.979932  d :     9.972873
      dxz     :     1.996392
      dyz     :     1.996392
      dx2y2   :     2.000078
      dxy     :     2.000078
      f0      :     0.000052  f :     0.000134
      f+1     :     0.000034
      f-1     :     0.000034
      f+2     :     0.000007
      f-2     :     0.000007
      f+3     :     0.000000
      f-3     :     0.000000
      g0      :     0.000000  g :     0.000001
      g+1     :     0.000000
      g-1     :     0.000000
      g+2     :     0.000000
      g-2     :     0.000000
      g+3     :     0.000000
      g-3     :     0.000000
      g+4     :     0.000000
      g-4     :     0.000000

SPIN
  0 Cus       :    -0.274468  s :    -0.274468
      pz      :     0.054552  p :     0.054044
      px      :    -0.000254
      py      :    -0.000254
      dz2     :    -0.000456  d :    -0.005209
      dxz     :    -0.002284
      dyz     :    -0.002284
      dx2y2   :    -0.000092
      dxy     :    -0.000092
      f0      :     0.000012  f :     0.000016
      f+1     :     0.000002
      f-1     :     0.000002
      f+2     :     0.000000
      f-2     :     0.000000
      f+3     :    -0.000000
      f-3     :    -0.000000
      g0      :     0.000000  g :     0.000000
      g+1     :     0.000000
      g-1     :     0.000000
      g+2     :    -0.000000
      g-2     :    -0.000000
      g+3     :    -0.000000
      g-3     :    -0.000000
      g+4     :     0.000000
      g-4     :     0.000000
  1 Cus       :     0.611047  s :     0.611047
      pz      :     0.002579  p :     0.004792
      px      :     0.001106
      py      :     0.001106
      dz2     :    -0.003440  d :    -0.003026
      dxz     :     0.000161
      dyz     :     0.000161
      dx2y2   :     0.000046
      dxy     :     0.000046
      f0      :     0.000001  f :     0.000003
      f+1     :     0.000001
      f-1     :     0.000001
      f+2     :    -0.000000
      f-2     :    -0.000000
      f+3     :    -0.000000
      f-3     :    -0.000000
      g0      :    -0.000000  g :    -0.000000
      g+1     :    -0.000000
      g-1     :    -0.000000
      g+2     :     0.000000
      g-2     :     0.000000
      g+3     :    -0.000000
      g-3     :    -0.000000
      g+4     :     0.000000
      g-4     :     0.000000
  2 Cus       :     0.611039  s :     0.611039
      pz      :     0.002574  p :     0.004786
      px      :     0.001106
      py      :     0.001106
      dz2     :    -0.003440  d :    -0.003026
      dxz     :     0.000161
      dyz     :     0.000161
      dx2y2   :     0.000046
      dxy     :     0.000046
      f0      :     0.000001  f :     0.000003
      f+1     :     0.000001
      f-1     :     0.000001
      f+2     :    -0.000000
      f-2     :    -0.000000
      f+3     :    -0.000000
      f-3     :    -0.000000
      g0      :    -0.000000  g :    -0.000000
      g+1     :    -0.000000
      g-1     :    -0.000000
      g+2     :     0.000000
      g-2     :     0.000000
      g+3     :    -0.000000
      g-3     :    -0.000000
      g+4     :     0.000000
      g-4     :     0.000000


                     *******************************
                     * LOEWDIN POPULATION ANALYSIS *
                     *******************************

-------------------------------------------
LOEWDIN ATOMIC CHARGES AND SPIN POPULATIONS
-------------------------------------------
   0 Cu:   -0.242992    0.386735
   1 Cu:    0.121496    0.306633
   2 Cu:    0.121496    0.306633

----------------------------------------------------
LOEWDIN REDUCED ORBITAL CHARGES AND SPIN POPULATIONS
----------------------------------------------------
CHARGE
  0 Cus       :     6.733351  s :     6.733351
      pz      :     4.453893  p :    12.473930
      px      :     4.010019
      py      :     4.010019
      dz2     :     2.064183  d :    10.035061
      dxz     :     1.985581
      dyz     :     1.985581
      dx2y2   :     1.999858
      dxy     :     1.999858
      f0      :     0.000354  f :     0.000648
      f+1     :     0.000137
      f-1     :     0.000137
      f+2     :     0.000010
      f-2     :     0.000010
      f+3     :     0.000000
      f-3     :     0.000000
      g0      :     0.000001  g :     0.000002
      g+1     :     0.000001
      g-1     :     0.000001
      g+2     :     0.000000
      g-2     :     0.000000
      g+3     :     0.000000
      g-3     :     0.000000
      g+4     :     0.000000
      g-4     :     0.000000
  1 Cus       :     6.716550  s :     6.716550
      pz      :     4.133231  p :    12.148330
      px      :     4.007549
      py      :     4.007549
      dz2     :     2.024175  d :    10.013293
      dxz     :     1.994502
      dyz     :     1.994502
      dx2y2   :     2.000057
      dxy     :     2.000057
      f0      :     0.000153  f :     0.000329
      f+1     :     0.000080
      f-1     :     0.000080
      f+2     :     0.000009
      f-2     :     0.000009
      f+3     :     0.000000
      f-3     :     0.000000
      g0      :     0.000000  g :     0.000001
      g+1     :     0.000000
      g-1     :     0.000000
      g+2     :     0.000000
      g-2     :     0.000000
      g+3     :     0.000000
      g-3     :     0.000000
      g+4     :     0.000000
      g-4     :     0.000000
  2 Cus       :     6.716550  s :     6.716550
      pz      :     4.133231  p :    12.148330
      px      :     4.007549
      py      :     4.007549
      dz2     :     2.024175  d :    10.013293
      dxz     :     1.994502
      dyz     :     1.994502
      dx2y2   :     2.000057
      dxy     :     2.000057
      f0      :     0.000153  f :     0.000329
      f+1     :     0.000080
      f-1     :     0.000080
      f+2     :     0.000009
      f-2     :     0.000009
      f+3     :     0.000000
      f-3     :     0.000000
      g0      :     0.000000  g :     0.000001
      g+1     :     0.000000
      g-1     :     0.000000
      g+2     :     0.000000
      g-2     :     0.000000
      g+3     :     0.000000
      g-3     :     0.000000
      g+4     :     0.000000
      g-4     :     0.000000

SPIN
  0 Cus       :    -0.054611  s :    -0.054611
      pz      :     0.419601  p :     0.420046
      px      :     0.000222
      py      :     0.000222
      dz2     :     0.024320  d :     0.021213
      dxz     :    -0.001631
      dyz     :    -0.001631
      dx2y2   :     0.000077
      dxy     :     0.000077
      f0      :     0.000076  f :     0.000087
      f+1     :     0.000005
      f-1     :     0.000005
      f+2     :     0.000000
      f-2     :     0.000000
      f+3     :    -0.000000
      f-3     :    -0.000000
      g0      :     0.000000  g :     0.000000
      g+1     :     0.000000
      g-1     :     0.000000
      g+2     :    -0.000000
      g-2     :    -0.000000
      g+3     :    -0.000000
      g-3     :    -0.000000
      g+4     :     0.000000
      g-4     :     0.000000
  1 Cus       :     0.326169  s :     0.326169
      pz      :    -0.017656  p :    -0.015804
      px      :     0.000926
      py      :     0.000926
      dz2     :    -0.003196  d :    -0.003724
      dxz     :    -0.000225
      dyz     :    -0.000225
      dx2y2   :    -0.000039
      dxy     :    -0.000039
      f0      :    -0.000009  f :    -0.000008
      f+1     :     0.000001
      f-1     :     0.000001
      f+2     :    -0.000000
      f-2     :    -0.000000
      f+3     :    -0.000000
      f-3     :    -0.000000
      g0      :    -0.000000  g :    -0.000000
      g+1     :    -0.000000
      g-1     :    -0.000000
      g+2     :     0.000000
      g-2     :     0.000000
      g+3     :    -0.000000
      g-3     :    -0.000000
      g+4     :     0.000000
      g-4     :     0.000000
  2 Cus       :     0.326169  s :     0.326169
      pz      :    -0.017656  p :    -0.015804
      px      :     0.000926
      py      :     0.000926
      dz2     :    -0.003196  d :    -0.003724
      dxz     :    -0.000225
      dyz     :    -0.000225
      dx2y2   :    -0.000039
      dxy     :    -0.000039
      f0      :    -0.000009  f :    -0.000008
      f+1     :     0.000001
      f-1     :     0.000001
      f+2     :    -0.000000
      f-2     :    -0.000000
      f+3     :    -0.000000
      f-3     :    -0.000000
      g0      :    -0.000000  g :    -0.000000
      g+1     :    -0.000000
      g-1     :    -0.000000
      g+2     :     0.000000
      g-2     :     0.000000
      g+3     :    -0.000000
      g-3     :    -0.000000
      g+4     :     0.000000
      g-4     :     0.000000


                      *****************************
                      * MAYER POPULATION ANALYSIS *
                      *****************************

  NA   - Mulliken gross atomic population
  ZA   - Total nuclear charge
  QA   - Mulliken gross atomic charge
  VA   - Mayer's total valence
  BVA  - Mayer's bonded valence
  FA   - Mayer's free valence

  ATOM       NA         ZA         QA         VA         BVA        FA
  0 Cu    29.2927    29.0000    -0.2927     1.0920     1.0150     0.0770
  1 Cu    28.8537    29.0000     0.1463     0.9600     0.5883     0.3717
  2 Cu    28.8537    29.0000     0.1463     0.9600     0.5883     0.3717

  Mayer bond orders larger than 0.100000
B(  0-Cu,  1-Cu) :   0.5075 B(  0-Cu,  2-Cu) :   0.5075 

-------
TIMINGS
-------

Total SCF time: 0 days 0 hours 0 min 8 sec 

Total time                  ....       8.977 sec
Sum of individual times     ....       8.775 sec  ( 97.7%)

Fock matrix formation       ....       8.025 sec  ( 89.4%)
  XC integration            ....       0.597 sec  (  7.4% of F)
    Basis function eval.    ....       0.049 sec  (  8.2% of XC)
    Density eval.           ....       0.056 sec  (  9.4% of XC)
    XC-Functional eval.     ....       0.017 sec  (  2.8% of XC)
    XC-Potential eval.      ....       0.111 sec  ( 18.7% of XC)
Diagonalization             ....       0.171 sec  (  1.9%)
Density matrix formation    ....       0.025 sec  (  0.3%)
Population analysis         ....       0.013 sec  (  0.1%)
Initial guess               ....       0.113 sec  (  1.3%)
Orbital Transformation      ....       0.000 sec  (  0.0%)
Orbital Orthonormalization  ....       0.000 sec  (  0.0%)
DIIS solution               ....       0.062 sec  (  0.7%)
Grid generation             ....       0.367 sec  (  4.1%)


           ************************************************************
           *        Program running with 24 parallel MPI-processes    *
           *              working on a common directory               *
           ************************************************************

------------------------------------------------------------------------------
                                ORCA  MP2 
------------------------------------------------------------------------------

Freezing NCore=30 chemical core electrons

-------------
RI-MP2 ENERGY
-------------
Dimension of the basis                    ...  201
Memory devoted to MP2                     ... 5000 MB   
Data format for buffers                   ... DOUBLE
Compression type for matrix containers    ... UNCOMPRESSED
Overall scaling of the MP2 energy         ...   2.700e-01
Calculating two index integrals           ... done (    0.015 sec)
Cholesky decomposition of V**-1           ... done (    0.025 sec)

-----------------
RI-TRANSFORMATION (AUX index driven)
-----------------

Dimension of the orbital-basis         ... 201
Dimension of the aux-basis             ... 675
Transformation of internal/external MOs...   15-  43 to   44- 200
Number Format for Storage              ... Double (8 Byte)
Integral mode                          ... Direct

First Phase: integral generation and transformation of MO indices
  Aux angular momentum 0               ... done (    0.002 sec)
  Aux angular momentum 1               ... done (    0.004 sec)
  Aux angular momentum 2               ... done (    0.006 sec)
  Aux angular momentum 3               ... done (    0.005 sec)
  Aux angular momentum 4               ... done (    0.007 sec)
  Aux angular momentum 5               ... done (    0.010 sec)
  Aux angular momentum 6               ... done (    0.016 sec)
Closing buffer VIA ( 0.02 GB; CompressionRatio= 1.00)
  Phase 1 completed in     0.146 sec
Second Phase: sorting and transformation of aux index

IA-Transformation
Memory available                       ... 4993 MB 
Max. # MO pairs treated in a batch     ... 2    
# of internal orbitals                 ... 29
# batches for internal orbitals        ... 1
Closing buffer IAV ( 0.00 GB; CompressionRatio= 1.00)
(ia|v) transformation done in     0.017 sec

  Phase 2 completed in     0.043 sec
RI-Integral transformation completed in     0.191 sec

-----------------
RI-TRANSFORMATION (AUX index driven)
-----------------

Dimension of the orbital-basis         ... 201
Dimension of the aux-basis             ... 675
Transformation of internal/external MOs...   15-  42 to   43- 200
Number Format for Storage              ... Double (8 Byte)
Integral mode                          ... Direct

First Phase: integral generation and transformation of MO indices
  Aux angular momentum 0               ... done (    0.002 sec)
  Aux angular momentum 1               ... done (    0.004 sec)
  Aux angular momentum 2               ... done (    0.006 sec)
  Aux angular momentum 3               ... done (    0.005 sec)
  Aux angular momentum 4               ... done (    0.007 sec)
  Aux angular momentum 5               ... done (    0.010 sec)
  Aux angular momentum 6               ... done (    0.016 sec)
Closing buffer VIA ( 0.02 GB; CompressionRatio= 1.00)
  Phase 1 completed in     0.132 sec
Second Phase: sorting and transformation of aux index

IA-Transformation
Memory available                       ... 4993 MB 
Max. # MO pairs treated in a batch     ... 2    
# of internal orbitals                 ... 28
# batches for internal orbitals        ... 1
Closing buffer IAV ( 0.00 GB; CompressionRatio= 1.00)
(ia|v) transformation done in     0.016 sec

  Phase 2 completed in     0.042 sec
RI-Integral transformation completed in     0.175 sec
Opening buffers                              ... done

Starting loop over batches of integrals:

Operator 0  - window                       ... ( 15- 43)x( 44-200)
Operator 0  - Memory available             ...  5000 MB
Operator 0  - Memory needed per MO         ...   0.8 MB
Operator 0  - Number of orbitals per batch ... 2
Operator 0  - Number of batches            ... 1

OPERATOR  0   PASS   0:  MOs    15 ...   16 +   17 ...   18 +   19 ...   20 +   21 ...   22
                            +   23 ...   24 +   25 ...   26 +   27 ...   28 +   29 ...   30
                            +   31 ...   32 +   33 ...   34 +   35 ...   36 +   37 ...   38
                            +   39 ...   40 +   41 ...   42 +   43 ...   43
  Reading integrals       ... ok

Operator 1  - window                       ... ( 15- 42)x( 43-200)
Operator 1  - Memory available             ...  5000 MB
Operator 1  - Memory needed per MO         ...   0.8 MB
Operator 1  - Number of orbitals per batch ... 2
Operator 1  - Number of batches            ... 1

OPERATOR  1   PASS   0:  MOs    15 ...   16 +   17 ...   18 +   19 ...   20 +   21 ...   22
                            +   23 ...   24 +   25 ...   26 +   27 ...   28 +   29 ...   30
                            +   31 ...   32 +   33 ...   34 +   35 ...   36 +   37 ...   38
                            +   39 ...   40 +   41 ...   42
  Reading integrals       ... ok
Time spent in pair loops =     0.138 sec
Deleting buffer (Ka|jb)[aa] ...done
Deleting buffer (Ka|jb)[ab] ...done
Deleting buffer (Ka|jb)[ba] ...done
Deleting buffer (Ka|jb)[bb] ...done

Correlation energy components}
 E2 and T2 for alpha/alpha pairs :     -0.145091045 Eh      0.000000000
 E2 and T2 for beta/beta   pairs :     -0.138809717 Eh      0.000000000
 E2 and T2 for alpha/beta  pairs :     -0.534785864 Eh      0.000000000


-----------------------------------------------
 RI-MP2 CORRELATION ENERGY:     -0.818686626 Eh
-----------------------------------------------


-------
TIMINGS
-------

Total time                :    0.627 sec
Integral trafo            :    0.402 sec ( 64.1%)
I/O of integrals          :    0.002 sec (  0.3%)
K(i,j) Operators          :    0.067 sec ( 10.6%)
T(i,j) pair energies      :    0.004 sec (  0.7%)
V-calculation             :    0.015 sec (  2.3%)
V**(-1/2)                 :    0.025 sec (  4.0%)
Gamma(ia|P)               :    0.000 sec (  0.0%)
Gamma-Trafo               :    0.000 sec (  0.0%)
D(virtual)                :    0.000 sec (  0.0%)
D(internal)               :    0.000 sec (  0.0%)
W(virtual)                :    0.000 sec (  0.0%)
W(internal)               :    0.000 sec (  0.0%)
L(virtual)                :    0.000 sec (  0.0%)
L(internal)               :    0.000 sec (  0.0%)
G(D)                      :    0.000 sec (  0.0%)
G(Z)                      :    0.000 sec (  0.0%)
Z-Vector Solution         :    0.000 sec (  0.0%)
Z-Vector Solution         :    0.000 sec (  0.0%)
3-Index Derivative 
+ Separable RIJ part      :    0.000 sec (  0.0%)
2-Index Derivative 
+ Separable RIJ part      :    0.000 sec (  0.0%)
Separable Gradient (X)    :    0.000 sec (  0.0%)


---------------------------------------
MP2 TOTAL ENERGY:    -4921.045617815 Eh
---------------------------------------


-------------------------------------------------------------------------------
                          DFT DISPERSION CORRECTION                            
                                                                               
                              DFTD3 V3.1  Rev 1                                
                          USING Becke-Johnson damping                          
-------------------------------------------------------------------------------
The B2PLYP functional is recognized
Active option DFTDOPT                   ...         4   

molecular C6(AA) [au] = 1595.875645 


            DFT-D V3
 parameters
 s6 scaling factor         :     0.6400 
 a1 scaling factor         :     0.3065 
 s8 scaling factor         :     0.9147 
 a2 scaling factor         :     5.0570 
 ad hoc parameters k1-k3   :    16.0000     1.3333    -4.0000 

 Edisp/kcal,au: -2.056418358473  -0.003277110903 
 E6   /kcal   :  -0.708192659 
 E8   /kcal   :  -1.348225700 
 % E8         :  65.561839310 

-------------------------   ----------------
Dispersion correction           -0.003277111
-------------------------   ----------------


-------------------------   --------------------
FINAL SINGLE POINT ENERGY     -4921.048894925457
-------------------------   --------------------


                            ***************************************
                            *     ORCA property calculations      *
                            ***************************************


  WARNING: The energy has been calculated at the MP2 level but the densities
           used in the property calculations are still SCF densities
           MP2 response densities have not been calculated 
           use %mp2 Density relaxed end
           or  %mp2 Density unrelaxed end

                                    ---------------------
                                    Active property flags
                                    ---------------------
   (+) Dipole Moment


------------------------------------------------------------------------------
                       ORCA ELECTRIC PROPERTIES CALCULATION
------------------------------------------------------------------------------

Dipole Moment Calculation                       ... on
Quadrupole Moment Calculation                   ... off
Polarizability Calculation                      ... off
GBWName                                         ... Cu03N0_LIN.gbw
Electron density file                           ... Cu03N0_LIN.scfp
The origin for moment calculation is the CENTER OF MASS  = ( 0.000000,  0.000000  0.000000)

-------------
DIPOLE MOMENT
-------------
                                X             Y             Z
Electronic contribution:      0.00000       0.00000      -0.00000
Nuclear contribution   :      0.00000       0.00000       0.00000
                        -----------------------------------------
Total Dipole Moment    :      0.00000       0.00000      -0.00000
                        -----------------------------------------
Magnitude (a.u.)       :      0.00000
Magnitude (Debye)      :      0.00000



--------------------
Rotational spectrum 
--------------------
 
Rotational constants in cm-1:     0.000000     0.025268     0.025268 
Rotational constants in MHz :     0.000000   757.502973   757.502973 

 Dipole components along the rotational axes: 
x,y,z [a.u.] :    -0.000000     0.000000     0.000000 
x,y,z [Debye]:    -0.000000     0.000000     0.000000 

 

Timings for individual modules:

Sum of individual times         ...       11.552 sec (=   0.193 min)
GTO integral calculation        ...        0.940 sec (=   0.016 min)   8.1 %
SCF iterations                  ...        9.400 sec (=   0.157 min)  81.4 %
MP2 module                      ...        1.212 sec (=   0.020 min)  10.5 %
                             ****ORCA TERMINATED NORMALLY****
TOTAL RUN TIME: 0 days 0 hours 0 minutes 12 seconds 200 msec
