
                                 *****************
                                 * O   R   C   A *
                                 *****************

           --- An Ab Initio, DFT and Semiempirical electronic structure package ---

                  #######################################################
                  #                        -***-                        #
                  #          Department of theory and spectroscopy      #
                  #               Directorship: Frank Neese             #
                  #        Max Planck Institute fuer Kohlenforschung    #
                  #                Kaiser Wilhelm Platz 1               #
                  #                 D-45470 Muelheim/Ruhr               #
                  #                      Germany                        #
                  #                                                     #
                  #                  All rights reserved                #
                  #                        -***-                        #
                  #######################################################


                         Program Version 4.2.0 -  RELEASE  -


 With contributions from (in alphabetic order):
   Daniel Aravena         : Magnetic Suceptibility
   Michael Atanasov       : Ab Initio Ligand Field Theory (pilot matlab implementation)
   Alexander A. Auer      : GIAO ZORA, VPT2
   Ute Becker             : Parallelization
   Giovanni Bistoni       : ED, misc. LED, open-shell LED, HFLED
   Martin Brehm           : Molecular dynamics
   Dmytro Bykov           : SCF Hessian
   Vijay G. Chilkuri      : MRCI spin determinant printing, contributions to CSF-ICE
   Dipayan Datta          : RHF DLPNO-CCSD density
   Achintya Kumar Dutta   : EOM-CC, STEOM-CC
   Dmitry Ganyushin       : Spin-Orbit,Spin-Spin,Magnetic field MRCI
   Miquel Garcia          : C-PCM Hessian, Gaussian charge scheme
   Yang Guo               : DLPNO-NEVPT2, CIM, IAO-localization
   Andreas Hansen         : Spin unrestricted coupled pair/coupled cluster methods
   Benjamin Helmich-Paris : CASSCF linear response (MC-RPA)
   Lee Huntington         : MR-EOM, pCC
   Robert Izsak           : Overlap fitted RIJCOSX, COSX-SCS-MP3, EOM
   Christian Kollmar      : KDIIS, OOCD, Brueckner-CCSD(T), CCSD density
   Simone Kossmann        : Meta GGA functionals, TD-DFT gradient, OOMP2, MP2 Hessian
   Martin Krupicka        : AUTO-CI
   Lucas Lang             : DCDCAS
   Dagmar Lenk            : GEPOL surface, SMD
   Dimitrios Liakos       : Extrapolation schemes; Compound Job, initial MDCI parallelization
   Dimitrios Manganas     : Further ROCIS development; embedding schemes
   Dimitrios Pantazis     : SARC Basis sets
   Taras Petrenko         : DFT Hessian,TD-DFT gradient, ASA, ECA, R-Raman, ABS, FL, XAS/XES, NRVS
   Peter Pinski           : DLPNO-MP2, DLPNO-MP2 Gradient
   Christoph Reimann      : Effective Core Potentials
   Marius Retegan         : Local ZFS, SOC
   Christoph Riplinger    : Optimizer, TS searches, QM/MM, DLPNO-CCSD(T), (RO)-DLPNO pert. Triples
   Tobias Risthaus        : Range-separated hybrids, TD-DFT gradient, RPA, STAB
   Michael Roemelt        : Original ROCIS implementation
   Masaaki Saitow         : Open-shell DLPNO-CCSD energy and density
   Barbara Sandhoefer     : DKH picture change effects
   Avijit Sen             : IP-ROCIS
   Kantharuban Sivalingam : CASSCF convergence, NEVPT2, FIC-MRCI
   Bernardo de Souza      : ESD, SOC TD-DFT
   Georgi Stoychev        : AutoAux, RI-MP2 NMR
   Willem Van den Heuvel  : Paramagnetic NMR
   Boris Wezisla          : Elementary symmetry handling
   Frank Wennmohs         : Technical directorship


 We gratefully acknowledge several colleagues who have allowed us to
 interface, adapt or use parts of their codes:
   Stefan Grimme, W. Hujo, H. Kruse,             : VdW corrections, initial TS optimization,
                  C. Bannwarth                     DFT functionals, gCP, sTDA/sTD-DF
   Ed Valeev, F. Pavosevic, A. Kumar             : LibInt (2-el integral package), F12 methods
   Garnet Chan, S. Sharma, J. Yang, R. Olivares  : DMRG
   Ulf Ekstrom                                   : XCFun DFT Library
   Mihaly Kallay                                 : mrcc  (arbitrary order and MRCC methods)
   Andreas Klamt, Michael Diedenhofen            : otool_cosmo (COSMO solvation model)
   Jiri Pittner, Ondrej Demel                    : Mk-CCSD
   Frank Weinhold                                : gennbo (NPA and NBO analysis)
   Christopher J. Cramer and Donald G. Truhlar   : smd solvation model
   Lars Goerigk                                  : TD-DFT with DH, B97 family of functionals
   V. Asgeirsson, H. Jonsson                     : NEB implementation
   FAccTs GmbH                                   : IRC, NEB, NEB-TS, Multilevel, MM, QM/MM, CI optimization
   S Lehtola, MJT Oliveira, MAL Marques          : LibXC Library


 Your calculation uses the libint2 library for the computation of 2-el integrals
 For citations please refer to: http://libint.valeyev.net

 Your ORCA version has been built with support for libXC version: 4.2.3
 For citations please refer to: https://tddft.org/programs/libxc/

 This ORCA versions uses:
   CBLAS   interface :  Fast vector & matrix operations
   LAPACKE interface :  Fast linear algebra routines
   SCALAPACK package :  Parallel linear algebra routines


Your calculation utilizes the atom-pairwise dispersion correction
with the Becke-Johnson damping scheme (D3BJ)
Cite in your paper:
S.Grimme, S.Ehrlich, L.Goerigk, J Comput Chem, (2011), 32, 1456–1465 
S.Grimme, J.Antony, S.Ehrlich and H.Krieg, J.Chem.Phys., 132, (2010), 154104 
   

----- Orbital basis set information -----
Your calculation utilizes the basis: def2-TZVPPD
   F. Weigend and R. Ahlrichs, Phys. Chem. Chem. Phys. 7, 3297 (2005).
   D. Rappoport and F. Furche, J. Chem. Phys. 133 134105 (2010).

----- AuxC basis set information -----
Your calculation utilizes the auxiliary basis: def2-TZVPPD/C
   A. Hellweg, C. Hattig, S. Hofener and W. Klopper, Theor. Chem. Acc. 117, 587 (2007).

----- AuxJK basis set information -----
Your calculation utilizes the auxiliary basis: def2/JK
   H-Ba, Hf-Rn: F. Weigend, J. Comput. Chem. 29, 167 (2008).

================================================================================
                                        WARNINGS
                       Please study these warnings very carefully!
================================================================================


WARNING: your system is open-shell and RHF/RKS was chosen
  ===> : WILL SWITCH to UHF/UKS


WARNING: No MP2 level density has been requested!
         To caclulate MP2 level properties use
         %mp2 Density relaxed end
         or
         %mp2 Density unrelaxed end
         Otherwise for double-hybrid DFT only the energy is correct!

WARNING: The frozen-core approximation is turned on by default for 
         the MP2 part of double-hybrid DFT.

INFO   : the flag for use of LIBINT has been found!

================================================================================
                                       INPUT FILE
================================================================================
NAME = Cu03N0_D3H.in
|  1> #
|  2> # Cu03N0_D3H ri-B2PLYP-D3BJ/Def2-TZVPPD
|  3> #
|  4> ! rijk ri-b2plyp d3bj def2-tzvppd def2/jk def2-tzvppd/c grid4 nofinalgrid
|  5> 
|  6> *xyz 0 2
|  7> Cu       0.000000    1.346828   -0.000000 
|  8> Cu       1.166387   -0.673414   -0.000000 
|  9> Cu      -1.166387   -0.673414   -0.000000 
| 10> *
| 11> 
| 12> %maxcore 5000
| 13> 
| 14> %pal
| 15> nprocs = 24
| 16> end
| 17> 
| 18> 
| 19>                          ****END OF INPUT****
================================================================================

                       ****************************
                       * Single Point Calculation *
                       ****************************

---------------------------------
CARTESIAN COORDINATES (ANGSTROEM)
---------------------------------
  Cu     0.000000    1.346828   -0.000000
  Cu     1.166387   -0.673414   -0.000000
  Cu    -1.166387   -0.673414   -0.000000

----------------------------
CARTESIAN COORDINATES (A.U.)
----------------------------
  NO LB      ZA    FRAG     MASS         X           Y           Z
   0 Cu   29.0000    0    63.550    0.000000    2.545136   -0.000000
   1 Cu   29.0000    0    63.550    2.204152   -1.272568   -0.000000
   2 Cu   29.0000    0    63.550   -2.204152   -1.272568   -0.000000

--------------------------------
INTERNAL COORDINATES (ANGSTROEM)
--------------------------------
 Cu     0   0   0     0.000000000000     0.00000000     0.00000000
 Cu     1   0   0     2.332774393792     0.00000000     0.00000000
 Cu     2   1   0     2.332774000000    60.00000558     0.00000000

---------------------------
INTERNAL COORDINATES (A.U.)
---------------------------
 Cu     0   0   0     0.000000000000     0.00000000     0.00000000
 Cu     1   0   0     4.408304736492     0.00000000     0.00000000
 Cu     2   1   0     4.408303992332    60.00000558     0.00000000

---------------------
BASIS SET INFORMATION
---------------------
There are 1 groups of distinct atoms

 Group   1 Type Cu  : 17s13p7d2f1g contracted to 6s6p4d2f1g pattern {842111/631111/4111/11/1}

Atom   0Cu   basis set group =>   1
Atom   1Cu   basis set group =>   1
Atom   2Cu   basis set group =>   1
---------------------------------
AUXILIARY/C BASIS SET INFORMATION
---------------------------------
There are 1 groups of distinct atoms

 Group   1 Type Cu  : 10s10p9d7f5g3h1i contracted to 10s10p9d7f5g3h1i pattern {1111111111/1111111111/111111111/1111111/11111/111/1}

Atom   0Cu   basis set group =>   1
Atom   1Cu   basis set group =>   1
Atom   2Cu   basis set group =>   1
----------------------------------
AUXILIARY/JK BASIS SET INFORMATION
----------------------------------
There are 1 groups of distinct atoms

 Group   1 Type Cu  : 19s14p12d10f7g3h1i contracted to 16s13p11d9f5g3h1i pattern {4111111111111111/2111111111111/21111111111/211111111/31111/111/1}

Atom   0Cu   basis set group =>   1
Atom   1Cu   basis set group =>   1
Atom   2Cu   basis set group =>   1


           ************************************************************
           *        Program running with 24 parallel MPI-processes    *
           *              working on a common directory               *
           ************************************************************
------------------------------------------------------------------------------
                           ORCA GTO INTEGRAL CALCULATION
                           -- RI-GTO INTEGRALS CHOSEN --
------------------------------------------------------------------------------

                         BASIS SET STATISTICS AND STARTUP INFO

Gaussian basis set:
 # of primitive gaussian shells          ...  120
 # of primitive gaussian functions       ...  342
 # of contracted shells                  ...   57
 # of contracted basis functions         ...  201
 Highest angular momentum                ...    4
 Maximum contraction depth               ...    8
Auxiliary gaussian basis set:
 # of primitive gaussian shells          ...  198
 # of primitive gaussian functions       ...  900
 # of contracted shells                  ...  174
 # of contracted aux-basis functions     ...  792
 Highest angular momentum                ...    6
 Maximum contraction depth               ...    4
Ratio of auxiliary to basis functions    ...  3.94
Integral package used                  ... LIBINT
 One Electron integrals                  ... done
 Ordering auxiliary basis shells         ... done
 Integral threshhold             Thresh  ...  1.000e-10
 Primitive cut-off               TCut    ...  1.000e-11
 Pre-screening matrix                    ... done
 Shell pair data                         ... 
 Ordering of the shell pairs             ... done (   0.000 sec) 1533 of 1653 pairs
 Determination of significant pairs      ... done (   0.000 sec)
 Creation of shell pair data             ... done (   0.000 sec)
 Storage of shell pair data              ... done (   0.013 sec)
 Shell pair data done in (   0.013 sec)
 Computing two index integrals           ... done
 Cholesky decomposition of the V-matrix  ... done


Timings:
 Total evaluation time                   ...   0.372 sec (  0.006 min)
 One electron matrix time                ...   0.035 sec (  0.001 min) =  9.4%
 Schwartz matrix evaluation time         ...   0.177 sec (  0.003 min) = 47.6%
 Two index repulsion integral time       ...   0.109 sec (  0.002 min) = 29.4%
 Cholesky decomposition of V             ...   0.010 sec (  0.000 min) =  2.7%
 Three index repulsion integral time     ...   0.000 sec (  0.000 min) =  0.0%



           ************************************************************
           *        Program running with 24 parallel MPI-processes    *
           *              working on a common directory               *
           ************************************************************
-------------------------------------------------------------------------------
                                 ORCA SCF
-------------------------------------------------------------------------------

------------
SCF SETTINGS
------------
Hamiltonian:
 Density Functional     Method          .... DFT(GTOs)
 Exchange Functional    Exchange        .... B88
   X-Alpha parameter    XAlpha          ....  0.666667
   Becke's b parameter  XBeta           ....  0.004200
 Correlation Functional Correlation     .... LYP
 LDA part of GGA corr.  LDAOpt          .... VWN-3
 Gradients option       PostSCFGGA      .... off
 Hybrid DFT is turned on
   Fraction HF Exchange ScalHFX         ....  0.530000
   Scaling of DF-GGA-X  ScalDFX         ....  0.470000
   Scaling of DF-GGA-C  ScalDFC         ....  0.730000
   Scaling of DF-LDA-C  ScalLDAC        ....  0.730000
   Perturbative correction              ....  0.270000
   Density functional embedding theory  .... OFF
 RI-approximation to the Coulomb term is turned on
   Number of auxiliary basis functions  .... 792
   RI-JK (J+K treated both via RI)      .... on


General Settings:
 Integral files         IntName         .... Cu03N0_D3H
 Hartree-Fock type      HFTyp           .... UHF
 Total Charge           Charge          ....    0
 Multiplicity           Mult            ....    2
 Number of Electrons    NEL             ....   87
 Basis Dimension        Dim             ....  201
 Nuclear Repulsion      ENuc            ....    572.3288866767 Eh

Convergence Acceleration:
 DIIS                   CNVDIIS         .... on
   Start iteration      DIISMaxIt       ....    12
   Startup error        DIISStart       ....  0.200000
   # of expansion vecs  DIISMaxEq       ....     5
   Bias factor          DIISBfac        ....   1.050
   Max. coefficient     DIISMaxC        ....  10.000
 Newton-Raphson         CNVNR           .... off
 SOSCF                  CNVSOSCF        .... off
 Level Shifting         CNVShift        .... on
   Level shift para.    LevelShift      ....    0.2500
   Turn off err/grad.   ShiftErr        ....    0.0010
 Zerner damping         CNVZerner       .... off
 Static damping         CNVDamp         .... on
   Fraction old density DampFac         ....    0.7000
   Max. Damping (<1)    DampMax         ....    0.9800
   Min. Damping (>=0)   DampMin         ....    0.0000
   Turn off err/grad.   DampErr         ....    0.1000
 Fernandez-Rico         CNVRico         .... off

SCF Procedure:
 Maximum # iterations   MaxIter         ....   125
 SCF integral mode      SCFMode         .... Direct
   Integral package                     .... LIBINT
 Reset frequency        DirectResetFreq ....    20
 Integral Threshold     Thresh          ....  1.000e-10 Eh
 Primitive CutOff       TCut            ....  1.000e-11 Eh

Convergence Tolerance:
 Convergence Check Mode ConvCheckMode   .... Total+1el-Energy
 Convergence forced     ConvForced      .... 0
 Energy Change          TolE            ....  1.000e-06 Eh
 1-El. energy change                    ....  1.000e-03 Eh
 DIIS Error             TolErr          ....  1.000e-06


Diagonalization of the overlap matrix:
Smallest eigenvalue                        ... 7.631e-04
Time for diagonalization                   ...    0.009 sec
Threshold for overlap eigenvalues          ... 1.000e-08
Number of eigenvalues below threshold      ... 0
Time for construction of square roots      ...    0.005 sec
Total time needed                          ...    0.014 sec

-------------------
DFT GRID GENERATION
-------------------

General Integration Accuracy     IntAcc      ...  4.670
Radial Grid Type                 RadialGrid  ... Gauss-Chebyshev
Angular Grid (max. acc.)         AngularGrid ... Lebedev-302
Angular grid pruning method      GridPruning ... 3 (G Style)
Weight generation scheme         WeightScheme... Becke
Basis function cutoff            BFCut       ...    1.0000e-10
Integration weight cutoff        WCut        ...    1.0000e-14
Grids for H and He will be reduced by one unit

# of grid points (after initial pruning)     ...  28668 (   0.0 sec)
# of grid points (after weights+screening)   ...  28566 (   0.0 sec)
nearest neighbour list constructed           ...    0.0 sec
Grid point re-assignment to atoms done       ...    0.0 sec
Grid point division into batches done        ...    0.2 sec
Reduced shell lists constructed in    0.2 sec

Total number of grid points                  ...    28566
Total number of batches                      ...      448
Average number of points per batch           ...       63
Average number of grid points per atom       ...     9522
Average number of shells per batch           ...    12.75 (22.37%)
Average number of basis functions per batch  ...    35.15 (17.49%)
Average number of large shells per batch     ...     9.05 (70.98%)
Average number of large basis fcns per batch ...    24.35 (69.27%)
Average number of aux-shells per batch       ...    12.75 ( 7.33%)
Average number of aux functions per batch    ...    35.15 ( 4.44%)
Maximum spatial batch extension              ...  20.08, 17.16, 22.17 au
Average spatial batch extension              ...   0.56,  0.48,  0.54 au

Time for grid setup =    0.295 sec

------------------------------
INITIAL GUESS: MODEL POTENTIAL
------------------------------
Loading Hartree-Fock densities                     ... done
Calculating cut-offs                               ... done
Setting up the integral package                    ... done
Initializing the effective Hamiltonian             ... done
Starting the Coulomb interaction                   ... done (   0.0 sec)
Reading the grid                                   ... done
Mapping shells                                     ... done
Starting the XC term evaluation                    ... done (   0.0 sec)
  promolecular density results
     # of electrons  =     87.000078989
     EX              =   -197.430471951
     EC              =     -1.574882311
     EX+EC           =   -199.005354261
Transforming the Hamiltonian                       ... done (   0.0 sec)
Diagonalizing the Hamiltonian                      ... done (   0.0 sec)
Back transforming the eigenvectors                 ... done (   0.0 sec)
Now organizing SCF variables                       ... done
                      ------------------
                      INITIAL GUESS DONE (   0.4 sec)
                      ------------------
--------------
SCF ITERATIONS
--------------
ITER       Energy         Delta-E        Max-DP      RMS-DP      [F,P]     Damp
  0  -4920.1360548942   0.000000000000 0.13529317  0.00096265  0.1032326 0.7000
  1  -4919.9375832303   0.198471663884 0.13321396  0.00090920  0.0602124 0.7000
                               ***Turning on DIIS***
  2  -4920.0663143220  -0.128731091765 0.33761924  0.00227473  0.0391508 0.0000
  3  -4920.2139136770  -0.147599354949 0.01505241  0.00027412  0.0363514 0.0000
  4  -4920.2223948444  -0.008481167361 0.01917643  0.00016360  0.0142318 0.0000
  5  -4920.2236074868  -0.001212642399 0.01455793  0.00010687  0.0095524 0.0000
  6  -4920.2241283739  -0.000520887100 0.01362082  0.00010106  0.0036165 0.0000
  7  -4920.2242554159  -0.000127042013 0.01026563  0.00007416  0.0018916 0.0000
  8  -4920.2242937412  -0.000038325381 0.00714012  0.00004963  0.0010780 0.0000
  9  -4920.2243077158  -0.000013974603 0.01343452  0.00009017  0.0007753 0.0000
 10  -4920.2243187229  -0.000011007070 0.00347574  0.00002496  0.0001717 0.0000
 11  -4920.2243205147  -0.000001791800 0.00067023  0.00000617  0.0001224 0.0000
 12  -4920.2243208704  -0.000000355697 0.00016350  0.00000158  0.0001331 0.0000
 13  -4920.2243209859  -0.000000115465 0.00022529  0.00000204  0.0000249 0.0000
                 **** Energy Check signals convergence ****

               *****************************************************
               *                     SUCCESS                       *
               *           SCF CONVERGED AFTER  14 CYCLES          *
               *****************************************************


----------------
TOTAL SCF ENERGY
----------------

Total Energy       :        -4920.22432103 Eh         -133886.11041 eV

Components:
Nuclear Repulsion  :          572.32888668 Eh           15573.86077 eV
Electronic Energy  :        -5492.55320771 Eh         -149459.97118 eV
One Electron Energy:        -8009.74489626 Eh         -217956.23931 eV
Two Electron Energy:         2517.19168855 Eh           68496.26813 eV

Virial components:
Potential Energy   :        -9835.47455133 Eh         -267636.86894 eV
Kinetic Energy     :         4915.25023030 Eh          133750.75852 eV
Virial Ratio       :            2.00101197


DFT components:
N(Alpha)           :       44.000000639454 electrons
N(Beta)            :       43.000000251026 electrons
N(Total)           :       87.000000890480 electrons
E(X)               :      -93.036037707847 Eh       
E(C)               :       -3.033171861507 Eh       
E(XC)              :      -96.069209569354 Eh       
DFET-embed. en.    :        0.000000000000 Eh       

---------------
SCF CONVERGENCE
---------------

  Last Energy change         ...   -4.3695e-08  Tolerance :   1.0000e-06
  Last MAX-Density change    ...    2.2754e-05  Tolerance :   1.0000e-05
  Last RMS-Density change    ...    3.9520e-07  Tolerance :   1.0000e-06
  Last DIIS Error            ...    1.5693e-05  Tolerance :   1.0000e-06

             **** THE GBW FILE WAS UPDATED (Cu03N0_D3H.gbw) ****
             **** DENSITY FILE WAS UPDATED (Cu03N0_D3H.scfp) ****
             **** ENERGY FILE WAS UPDATED (Cu03N0_D3H.en.tmp) ****
----------------------
UHF SPIN CONTAMINATION
----------------------

Warning: in a DFT calculation there is little theoretical justification to 
         calculate <S**2> as in Hartree-Fock theory. We will do it anyways
         but you should keep in mind that the values have only limited relevance

Expectation value of <S**2>     :     0.768009
Ideal value S*(S+1) for S=0.5   :     0.750000
Deviation                       :     0.018009

             **** THE GBW FILE WAS UPDATED (Cu03N0_D3H.gbw) ****
             **** DENSITY FILE WAS UPDATED (Cu03N0_D3H.scfp) ****
----------------
ORBITAL ENERGIES
----------------
                 SPIN UP ORBITALS
  NO   OCC          E(Eh)            E(eV) 
   0   1.0000    -325.431144     -8855.4316 
   1   1.0000    -325.431139     -8855.4315 
   2   1.0000    -325.413939     -8854.9635 
   3   1.0000     -39.641057     -1078.6880 
   4   1.0000     -39.641035     -1078.6874 
   5   1.0000     -39.625980     -1078.2777 
   6   1.0000     -34.676745      -943.6022 
   7   1.0000     -34.676739      -943.6020 
   8   1.0000     -34.676424      -943.5935 
   9   1.0000     -34.676414      -943.5932 
  10   1.0000     -34.676240      -943.5885 
  11   1.0000     -34.676234      -943.5883 
  12   1.0000     -34.661275      -943.1812 
  13   1.0000     -34.661099      -943.1765 
  14   1.0000     -34.659879      -943.1433 
  15   1.0000      -4.590825      -124.9227 
  16   1.0000      -4.590412      -124.9115 
  17   1.0000      -4.574115      -124.4680 
  18   1.0000      -3.012226       -81.9668 
  19   1.0000      -3.008612       -81.8685 
  20   1.0000      -3.008378       -81.8621 
  21   1.0000      -3.007592       -81.8407 
  22   1.0000      -3.007185       -81.8297 
  23   1.0000      -3.006873       -81.8212 
  24   1.0000      -2.991407       -81.4003 
  25   1.0000      -2.991046       -81.3905 
  26   1.0000      -2.988261       -81.3147 
  27   1.0000      -0.404381       -11.0038 
  28   1.0000      -0.389029       -10.5860 
  29   1.0000      -0.386182       -10.5085 
  30   1.0000      -0.381319       -10.3762 
  31   1.0000      -0.373498       -10.1634 
  32   1.0000      -0.372228       -10.1288 
  33   1.0000      -0.366870        -9.9830 
  34   1.0000      -0.354420        -9.6443 
  35   1.0000      -0.351090        -9.5537 
  36   1.0000      -0.348149        -9.4736 
  37   1.0000      -0.341580        -9.2949 
  38   1.0000      -0.340254        -9.2588 
  39   1.0000      -0.336537        -9.1576 
  40   1.0000      -0.336344        -9.1524 
  41   1.0000      -0.323259        -8.7963 
  42   1.0000      -0.282699        -7.6926 
  43   1.0000      -0.153092        -4.1658 
  44   0.0000      -0.062519        -1.7012 
  45   0.0000      -0.013543        -0.3685 
  46   0.0000       0.006785         0.1846 
  47   0.0000       0.028323         0.7707 
  48   0.0000       0.028693         0.7808 
  49   0.0000       0.056438         1.5358 
  50   0.0000       0.057413         1.5623 
  51   0.0000       0.059465         1.6181 
  52   0.0000       0.059726         1.6252 
  53   0.0000       0.096627         2.6293 
  54   0.0000       0.127756         3.4764 
  55   0.0000       0.135348         3.6830 
  56   0.0000       0.149343         4.0638 
  57   0.0000       0.154315         4.1991 
  58   0.0000       0.155180         4.2227 
  59   0.0000       0.197313         5.3692 
  60   0.0000       0.198390         5.3985 
  61   0.0000       0.217871         5.9286 
  62   0.0000       0.219976         5.9858 
  63   0.0000       0.221070         6.0156 
  64   0.0000       0.240840         6.5536 
  65   0.0000       0.242175         6.5899 
  66   0.0000       0.242284         6.5929 
  67   0.0000       0.252677         6.8757 
  68   0.0000       0.255449         6.9511 
  69   0.0000       0.268737         7.3127 
  70   0.0000       0.316055         8.6003 
  71   0.0000       0.316523         8.6130 
  72   0.0000       0.335107         9.1187 
  73   0.0000       0.353129         9.6091 
  74   0.0000       0.372529        10.1370 
  75   0.0000       0.373207        10.1555 
  76   0.0000       0.373659        10.1678 
  77   0.0000       0.378399        10.2968 
  78   0.0000       0.488386        13.2897 
  79   0.0000       0.540415        14.7054 
  80   0.0000       0.542442        14.7606 
  81   0.0000       0.695306        18.9202 
  82   0.0000       0.699340        19.0300 
  83   0.0000       0.750386        20.4190 
  84   0.0000       0.750890        20.4327 
  85   0.0000       0.799801        21.7637 
  86   0.0000       0.808034        21.9877 
  87   0.0000       0.862451        23.4685 
  88   0.0000       0.866055        23.5666 
  89   0.0000       0.873449        23.7678 
  90   0.0000       0.892687        24.2913 
  91   0.0000       0.923529        25.1305 
  92   0.0000       0.927525        25.2392 
  93   0.0000       0.989684        26.9307 
  94   0.0000       1.008249        27.4358 
  95   0.0000       1.035137        28.1675 
  96   0.0000       1.035312        28.1723 
  97   0.0000       1.112631        30.2762 
  98   0.0000       1.132942        30.8289 
  99   0.0000       1.137469        30.9521 
 100   0.0000       1.172920        31.9168 
 101   0.0000       1.179858        32.1056 
 102   0.0000       1.360708        37.0267 
 103   0.0000       1.364466        37.1290 
 104   0.0000       1.377521        37.4842 
 105   0.0000       3.153942        85.8231 
 106   0.0000       3.225703        87.7758 
 107   0.0000       3.236184        88.0610 
 108   0.0000       3.239916        88.1626 
 109   0.0000       3.256891        88.6245 
 110   0.0000       3.269120        88.9573 
 111   0.0000       3.269899        88.9785 
 112   0.0000       3.272317        89.0443 
 113   0.0000       3.301732        89.8447 
 114   0.0000       3.395160        92.3870 
 115   0.0000       3.550997        96.6275 
 116   0.0000       3.569905        97.1421 
 117   0.0000       3.578510        97.3762 
 118   0.0000       3.581438        97.4559 
 119   0.0000       3.587599        97.6235 
 120   0.0000       3.588940        97.6600 
 121   0.0000       3.589897        97.6861 
 122   0.0000       3.592621        97.7602 
 123   0.0000       3.593211        97.7762 
 124   0.0000       3.596787        97.8735 
 125   0.0000       3.599790        97.9553 
 126   0.0000       3.604596        98.0861 
 127   0.0000       3.611174        98.2651 
 128   0.0000       3.611393        98.2710 
 129   0.0000       3.611403        98.2713 
 130   0.0000       3.615830        98.3917 
 131   0.0000       3.618825        98.4732 
 132   0.0000       3.628728        98.7427 
 133   0.0000       3.630178        98.7822 
 134   0.0000       3.642734        99.1238 
 135   0.0000       3.736014       101.6621 
 136   0.0000       3.799366       103.3860 
 137   0.0000       3.807912       103.6186 
 138   0.0000       3.903654       106.2238 
 139   0.0000       3.906693       106.3065 
 140   0.0000       3.911686       106.4424 
 141   0.0000       3.939847       107.2087 
 142   0.0000       3.957618       107.6923 
 143   0.0000       3.968935       108.0002 
 144   0.0000       3.981874       108.3523 
 145   0.0000       4.022807       109.4661 
 146   0.0000       4.034549       109.7856 
 147   0.0000       4.166117       113.3658 
 148   0.0000       4.169922       113.4693 
 149   0.0000       4.196844       114.2019 
 150   0.0000       4.198582       114.2492 
 151   0.0000       4.439815       120.8135 
 152   0.0000       4.445770       120.9756 
 153   0.0000      13.297994       361.8568 
 154   0.0000      13.298198       361.8624 
 155   0.0000      13.298241       361.8635 
 156   0.0000      13.298247       361.8637 
 157   0.0000      13.298844       361.8799 
 158   0.0000      13.298906       361.8816 
 159   0.0000      13.299042       361.8853 
 160   0.0000      13.299081       361.8864 
 161   0.0000      13.299890       361.9084 
 162   0.0000      13.300092       361.9139 
 163   0.0000      13.300148       361.9154 
 164   0.0000      13.300288       361.9192 
 165   0.0000      13.300338       361.9206 
 166   0.0000      13.300905       361.9360 
 167   0.0000      13.301674       361.9569 
 168   0.0000      13.301680       361.9571 
 169   0.0000      13.301769       361.9595 
 170   0.0000      13.301783       361.9599 
 171   0.0000      13.316478       362.3598 
 172   0.0000      13.317453       362.3863 
 173   0.0000      13.317823       362.3964 
 174   0.0000      13.318483       362.4143 
 175   0.0000      13.319605       362.4449 
 176   0.0000      13.319852       362.4516 
 177   0.0000      13.320079       362.4578 
 178   0.0000      13.320502       362.4693 
 179   0.0000      13.320693       362.4745 
 180   0.0000      13.503046       367.4366 
 181   0.0000      13.504241       367.4691 
 182   0.0000      13.504380       367.4728 
 183   0.0000      13.504590       367.4786 
 184   0.0000      13.504905       367.4871 
 185   0.0000      13.506014       367.5173 
 186   0.0000      13.506255       367.5239 
 187   0.0000      13.507638       367.5615 
 188   0.0000      13.508496       367.5849 
 189   0.0000      13.511986       367.6798 
 190   0.0000      13.516802       367.8109 
 191   0.0000      13.518132       367.8471 
 192   0.0000      13.521356       367.9348 
 193   0.0000      13.523266       367.9868 
 194   0.0000      13.524098       368.0094 
 195   0.0000      13.531841       368.2201 
 196   0.0000      13.532904       368.2491 
 197   0.0000      13.533667       368.2698 
 198   0.0000      13.602102       370.1320 
 199   0.0000      13.611137       370.3779 
 200   0.0000      13.615338       370.4922 

                 SPIN DOWN ORBITALS
  NO   OCC          E(Eh)            E(eV) 
   0   1.0000    -325.430903     -8855.4251 
   1   1.0000    -325.430898     -8855.4249 
   2   1.0000    -325.413127     -8854.9414 
   3   1.0000     -39.641049     -1078.6878 
   4   1.0000     -39.641026     -1078.6872 
   5   1.0000     -39.625442     -1078.2631 
   6   1.0000     -34.676651      -943.5997 
   7   1.0000     -34.676641      -943.5994 
   8   1.0000     -34.676417      -943.5933 
   9   1.0000     -34.676410      -943.5931 
  10   1.0000     -34.676404      -943.5929 
  11   1.0000     -34.676399      -943.5928 
  12   1.0000     -34.661200      -943.1792 
  13   1.0000     -34.660931      -943.1719 
  14   1.0000     -34.660171      -943.1512 
  15   1.0000      -4.590543      -124.9150 
  16   1.0000      -4.590134      -124.9039 
  17   1.0000      -4.572147      -124.4144 
  18   1.0000      -3.012278       -81.9683 
  19   1.0000      -3.009275       -81.8865 
  20   1.0000      -3.008046       -81.8531 
  21   1.0000      -3.007323       -81.8334 
  22   1.0000      -3.007020       -81.8252 
  23   1.0000      -3.006711       -81.8168 
  24   1.0000      -2.991567       -81.4047 
  25   1.0000      -2.989958       -81.3609 
  26   1.0000      -2.987869       -81.3040 
  27   1.0000      -0.403988       -10.9931 
  28   1.0000      -0.387521       -10.5450 
  29   1.0000      -0.386547       -10.5185 
  30   1.0000      -0.379126       -10.3166 
  31   1.0000      -0.372174       -10.1274 
  32   1.0000      -0.371735       -10.1154 
  33   1.0000      -0.366866        -9.9829 
  34   1.0000      -0.354235        -9.6392 
  35   1.0000      -0.351250        -9.5580 
  36   1.0000      -0.348769        -9.4905 
  37   1.0000      -0.340565        -9.2672 
  38   1.0000      -0.339401        -9.2356 
  39   1.0000      -0.335200        -9.1213 
  40   1.0000      -0.333910        -9.0861 
  41   1.0000      -0.319780        -8.7017 
  42   1.0000      -0.267661        -7.2834 
  43   0.0000      -0.056160        -1.5282 
  44   0.0000      -0.034964        -0.9514 
  45   0.0000      -0.008812        -0.2398 
  46   0.0000       0.015212         0.4139 
  47   0.0000       0.040715         1.1079 
  48   0.0000       0.042838         1.1657 
  49   0.0000       0.056704         1.5430 
  50   0.0000       0.060595         1.6489 
  51   0.0000       0.064177         1.7463 
  52   0.0000       0.067139         1.8269 
  53   0.0000       0.098233         2.6731 
  54   0.0000       0.127968         3.4822 
  55   0.0000       0.136235         3.7071 
  56   0.0000       0.153284         4.1711 
  57   0.0000       0.164141         4.4665 
  58   0.0000       0.169590         4.6148 
  59   0.0000       0.198221         5.3939 
  60   0.0000       0.210885         5.7385 
  61   0.0000       0.218636         5.9494 
  62   0.0000       0.227437         6.1889 
  63   0.0000       0.229210         6.2371 
  64   0.0000       0.244465         6.6522 
  65   0.0000       0.246565         6.7094 
  66   0.0000       0.247585         6.7371 
  67   0.0000       0.256744         6.9864 
  68   0.0000       0.263868         7.1802 
  69   0.0000       0.272477         7.4145 
  70   0.0000       0.320614         8.7244 
  71   0.0000       0.321897         8.7593 
  72   0.0000       0.337941         9.1958 
  73   0.0000       0.354573         9.6484 
  74   0.0000       0.373108        10.1528 
  75   0.0000       0.376358        10.2412 
  76   0.0000       0.380292        10.3483 
  77   0.0000       0.382809        10.4168 
  78   0.0000       0.494246        13.4491 
  79   0.0000       0.541590        14.7374 
  80   0.0000       0.549574        14.9547 
  81   0.0000       0.697241        18.9729 
  82   0.0000       0.699864        19.0443 
  83   0.0000       0.755780        20.5658 
  84   0.0000       0.755967        20.5709 
  85   0.0000       0.800668        21.7873 
  86   0.0000       0.814268        22.1574 
  87   0.0000       0.865239        23.5444 
  88   0.0000       0.870495        23.6874 
  89   0.0000       0.884619        24.0717 
  90   0.0000       0.896036        24.3824 
  91   0.0000       0.928292        25.2601 
  92   0.0000       0.931882        25.3578 
  93   0.0000       0.995014        27.0757 
  94   0.0000       1.011485        27.5239 
  95   0.0000       1.041090        28.3295 
  96   0.0000       1.041423        28.3386 
  97   0.0000       1.117974        30.4216 
  98   0.0000       1.137659        30.9573 
  99   0.0000       1.145473        31.1699 
 100   0.0000       1.175284        31.9811 
 101   0.0000       1.185992        32.2725 
 102   0.0000       1.362569        37.0774 
 103   0.0000       1.369091        37.2549 
 104   0.0000       1.384669        37.6788 
 105   0.0000       3.155165        85.8564 
 106   0.0000       3.226988        87.8108 
 107   0.0000       3.240827        88.1874 
 108   0.0000       3.241908        88.2168 
 109   0.0000       3.257411        88.6387 
 110   0.0000       3.271248        89.0152 
 111   0.0000       3.272151        89.0398 
 112   0.0000       3.275272        89.1247 
 113   0.0000       3.302892        89.8763 
 114   0.0000       3.397778        92.4582 
 115   0.0000       3.553260        96.6891 
 116   0.0000       3.569930        97.1427 
 117   0.0000       3.581104        97.4468 
 118   0.0000       3.583925        97.5236 
 119   0.0000       3.588748        97.6548 
 120   0.0000       3.590188        97.6940 
 121   0.0000       3.591322        97.7248 
 122   0.0000       3.593801        97.7923 
 123   0.0000       3.594010        97.7980 
 124   0.0000       3.598234        97.9129 
 125   0.0000       3.600448        97.9732 
 126   0.0000       3.604959        98.0959 
 127   0.0000       3.613518        98.3288 
 128   0.0000       3.613723        98.3344 
 129   0.0000       3.613861        98.3381 
 130   0.0000       3.617796        98.4452 
 131   0.0000       3.620622        98.5221 
 132   0.0000       3.631854        98.8278 
 133   0.0000       3.633598        98.8752 
 134   0.0000       3.646011        99.2130 
 135   0.0000       3.736932       101.6871 
 136   0.0000       3.800224       103.4094 
 137   0.0000       3.809806       103.6701 
 138   0.0000       3.904365       106.2432 
 139   0.0000       3.907572       106.3304 
 140   0.0000       3.912713       106.4703 
 141   0.0000       3.940187       107.2179 
 142   0.0000       3.958808       107.7247 
 143   0.0000       3.971500       108.0700 
 144   0.0000       3.983602       108.3993 
 145   0.0000       4.023484       109.4846 
 146   0.0000       4.037218       109.8583 
 147   0.0000       4.168252       113.4239 
 148   0.0000       4.172059       113.5275 
 149   0.0000       4.198769       114.2543 
 150   0.0000       4.199989       114.2875 
 151   0.0000       4.439800       120.8131 
 152   0.0000       4.447532       121.0235 
 153   0.0000      13.297929       361.8550 
 154   0.0000      13.297992       361.8568 
 155   0.0000      13.297993       361.8568 
 156   0.0000      13.298146       361.8610 
 157   0.0000      13.298591       361.8731 
 158   0.0000      13.298903       361.8815 
 159   0.0000      13.298919       361.8820 
 160   0.0000      13.298929       361.8823 
 161   0.0000      13.299803       361.9060 
 162   0.0000      13.299933       361.9096 
 163   0.0000      13.300073       361.9134 
 164   0.0000      13.300294       361.9194 
 165   0.0000      13.300331       361.9204 
 166   0.0000      13.301050       361.9400 
 167   0.0000      13.301401       361.9495 
 168   0.0000      13.301413       361.9498 
 169   0.0000      13.301503       361.9523 
 170   0.0000      13.301537       361.9532 
 171   0.0000      13.316626       362.3638 
 172   0.0000      13.317599       362.3903 
 173   0.0000      13.317701       362.3931 
 174   0.0000      13.318410       362.4123 
 175   0.0000      13.319368       362.4384 
 176   0.0000      13.319727       362.4482 
 177   0.0000      13.319892       362.4527 
 178   0.0000      13.320220       362.4616 
 179   0.0000      13.320477       362.4686 
 180   0.0000      13.503060       367.4370 
 181   0.0000      13.504368       367.4725 
 182   0.0000      13.504481       367.4756 
 183   0.0000      13.504756       367.4831 
 184   0.0000      13.504857       367.4858 
 185   0.0000      13.505594       367.5059 
 186   0.0000      13.506527       367.5313 
 187   0.0000      13.507607       367.5607 
 188   0.0000      13.508121       367.5746 
 189   0.0000      13.511471       367.6658 
 190   0.0000      13.517087       367.8186 
 191   0.0000      13.518461       367.8560 
 192   0.0000      13.521928       367.9504 
 193   0.0000      13.522899       367.9768 
 194   0.0000      13.524709       368.0260 
 195   0.0000      13.531937       368.2227 
 196   0.0000      13.533177       368.2565 
 197   0.0000      13.533391       368.2623 
 198   0.0000      13.602258       370.1363 
 199   0.0000      13.610930       370.3722 
 200   0.0000      13.615345       370.4924 

                    ********************************
                    * MULLIKEN POPULATION ANALYSIS *
                    ********************************

--------------------------------------------
MULLIKEN ATOMIC CHARGES AND SPIN POPULATIONS
--------------------------------------------
   0 Cu:   -0.116164    0.574963
   1 Cu:    0.058084    0.212516
   2 Cu:    0.058080    0.212521
Sum of atomic charges         :   -0.0000000
Sum of atomic spin populations:    1.0000000

-----------------------------------------------------
MULLIKEN REDUCED ORBITAL CHARGES AND SPIN POPULATIONS
-----------------------------------------------------
CHARGE
  0 Cus       :     7.057493  s :     7.057493
      pz      :     4.008157  p :    12.136603
      px      :     4.005054
      py      :     4.123392
      dz2     :     1.989996  d :     9.921884
      dxz     :     1.996905
      dyz     :     1.990960
      dx2y2   :     1.985545
      dxy     :     1.958477
      f0      :     0.000019  f :     0.000183
      f+1     :     0.000010
      f-1     :     0.000028
      f+2     :     0.000012
      f-2     :     0.000023
      f+3     :     0.000044
      f-3     :     0.000047
      g0      :     0.000000  g :     0.000001
      g+1     :     0.000000
      g-1     :     0.000000
      g+2     :     0.000000
      g-2     :     0.000000
      g+3     :     0.000000
      g-3     :     0.000000
      g+4     :     0.000000
      g-4     :     0.000000
  1 Cus       :     6.780694  s :     6.780694
      pz      :     4.009419  p :    12.209298
      px      :     4.040692
      py      :     4.159188
      dz2     :     1.993252  d :     9.951694
      dxz     :     1.995225
      dyz     :     1.997245
      dx2y2   :     1.979687
      dxy     :     1.986284
      f0      :     0.000022  f :     0.000230
      f+1     :     0.000031
      f-1     :     0.000016
      f+2     :     0.000027
      f-2     :     0.000023
      f+3     :     0.000055
      f-3     :     0.000055
      g0      :     0.000000  g :     0.000001
      g+1     :     0.000000
      g-1     :     0.000000
      g+2     :     0.000000
      g-2     :     0.000000
      g+3     :     0.000000
      g-3     :     0.000000
      g+4     :     0.000000
      g-4     :     0.000000
  2 Cus       :     6.780697  s :     6.780697
      pz      :     4.009419  p :    12.209299
      px      :     4.040692
      py      :     4.159188
      dz2     :     1.993253  d :     9.951693
      dxz     :     1.995225
      dyz     :     1.997245
      dx2y2   :     1.979686
      dxy     :     1.986284
      f0      :     0.000022  f :     0.000230
      f+1     :     0.000031
      f-1     :     0.000016
      f+2     :     0.000027
      f-2     :     0.000023
      f+3     :     0.000055
      f-3     :     0.000055
      g0      :     0.000000  g :     0.000001
      g+1     :     0.000000
      g-1     :     0.000000
      g+2     :     0.000000
      g-2     :     0.000000
      g+3     :     0.000000
      g-3     :     0.000000
      g+4     :     0.000000
      g-4     :     0.000000

SPIN
  0 Cus       :     0.515229  s :     0.515229
      pz      :    -0.000122  p :     0.049691
      px      :     0.000370
      py      :     0.049443
      dz2     :     0.000258  d :     0.010046
      dxz     :     0.000397
      dyz     :     0.000946
      dx2y2   :     0.002224
      dxy     :     0.006221
      f0      :    -0.000000  f :    -0.000003
      f+1     :    -0.000000
      f-1     :    -0.000001
      f+2     :    -0.000000
      f-2     :    -0.000000
      f+3     :    -0.000002
      f-3     :     0.000001
      g0      :     0.000000  g :     0.000000
      g+1     :     0.000000
      g-1     :     0.000000
      g+2     :     0.000000
      g-2     :     0.000000
      g+3     :    -0.000000
      g-3     :    -0.000000
      g+4     :    -0.000000
      g-4     :    -0.000000
  1 Cus       :     0.087657  s :     0.087657
      pz      :    -0.000294  p :     0.125281
      px      :     0.002752
      py      :     0.122822
      dz2     :     0.000398  d :    -0.000421
      dxz     :    -0.000167
      dyz     :    -0.000149
      dx2y2   :    -0.001084
      dxy     :     0.000581
      f0      :    -0.000000  f :    -0.000000
      f+1     :    -0.000000
      f-1     :     0.000000
      f+2     :    -0.000000
      f-2     :    -0.000000
      f+3     :     0.000001
      f-3     :    -0.000001
      g0      :    -0.000000  g :     0.000000
      g+1     :     0.000000
      g-1     :     0.000000
      g+2     :     0.000000
      g-2     :     0.000000
      g+3     :     0.000000
      g-3     :    -0.000000
      g+4     :    -0.000000
      g-4     :    -0.000000
  2 Cus       :     0.087662  s :     0.087662
      pz      :    -0.000294  p :     0.125281
      px      :     0.002752
      py      :     0.122822
      dz2     :     0.000399  d :    -0.000421
      dxz     :    -0.000167
      dyz     :    -0.000149
      dx2y2   :    -0.001084
      dxy     :     0.000581
      f0      :    -0.000000  f :    -0.000000
      f+1     :    -0.000000
      f-1     :     0.000000
      f+2     :    -0.000000
      f-2     :    -0.000000
      f+3     :     0.000001
      f-3     :    -0.000001
      g0      :    -0.000000  g :     0.000000
      g+1     :     0.000000
      g-1     :     0.000000
      g+2     :     0.000000
      g-2     :     0.000000
      g+3     :     0.000000
      g-3     :    -0.000000
      g+4     :    -0.000000
      g-4     :    -0.000000


                     *******************************
                     * LOEWDIN POPULATION ANALYSIS *
                     *******************************

-------------------------------------------
LOEWDIN ATOMIC CHARGES AND SPIN POPULATIONS
-------------------------------------------
   0 Cu:   -0.028771    0.391047
   1 Cu:    0.014386    0.304476
   2 Cu:    0.014385    0.304477

----------------------------------------------------
LOEWDIN REDUCED ORBITAL CHARGES AND SPIN POPULATIONS
----------------------------------------------------
CHARGE
  0 Cus       :     6.653215  s :     6.653215
      pz      :     4.009154  p :    12.384096
      px      :     4.020408
      py      :     4.354534
      dz2     :     2.014204  d :     9.990971
      dxz     :     1.996913
      dyz     :     1.989869
      dx2y2   :     2.005080
      dxy     :     1.984904
      f0      :     0.000042  f :     0.000487
      f+1     :     0.000030
      f-1     :     0.000078
      f+2     :     0.000022
      f-2     :     0.000056
      f+3     :     0.000159
      f-3     :     0.000100
      g0      :     0.000000  g :     0.000002
      g+1     :     0.000000
      g-1     :     0.000000
      g+2     :     0.000000
      g-2     :     0.000000
      g+3     :     0.000000
      g-3     :     0.000000
      g+4     :     0.000000
      g-4     :     0.000000
  1 Cus       :     6.535718  s :     6.535718
      pz      :     4.010612  p :    12.419671
      px      :     4.120784
      py      :     4.288275
      dz2     :     2.012455  d :    10.029654
      dxz     :     1.994481
      dyz     :     1.996734
      dx2y2   :     2.012511
      dxy     :     2.013472
      f0      :     0.000048  f :     0.000570
      f+1     :     0.000072
      f-1     :     0.000047
      f+2     :     0.000056
      f-2     :     0.000041
      f+3     :     0.000195
      f-3     :     0.000112
      g0      :     0.000000  g :     0.000002
      g+1     :     0.000000
      g-1     :     0.000000
      g+2     :     0.000000
      g-2     :     0.000000
      g+3     :     0.000000
      g-3     :     0.000000
      g+4     :     0.000000
      g-4     :     0.000000
  2 Cus       :     6.535719  s :     6.535719
      pz      :     4.010612  p :    12.419670
      px      :     4.120784
      py      :     4.288275
      dz2     :     2.012455  d :    10.029654
      dxz     :     1.994481
      dyz     :     1.996734
      dx2y2   :     2.012511
      dxy     :     2.013472
      f0      :     0.000048  f :     0.000570
      f+1     :     0.000072
      f-1     :     0.000047
      f+2     :     0.000056
      f-2     :     0.000041
      f+3     :     0.000195
      f-3     :     0.000112
      g0      :     0.000000  g :     0.000002
      g+1     :     0.000000
      g-1     :     0.000000
      g+2     :     0.000000
      g-2     :     0.000000
      g+3     :     0.000000
      g-3     :     0.000000
      g+4     :     0.000000
      g-4     :     0.000000

SPIN
  0 Cus       :     0.208716  s :     0.208716
      pz      :     0.000126  p :     0.162804
      px      :    -0.000322
      py      :     0.163000
      dz2     :     0.003710  d :     0.019519
      dxz     :    -0.000114
      dyz     :     0.000701
      dx2y2   :     0.010867
      dxy     :     0.004355
      f0      :    -0.000000  f :     0.000008
      f+1     :     0.000000
      f-1     :     0.000006
      f+2     :     0.000000
      f-2     :    -0.000000
      f+3     :     0.000002
      f-3     :    -0.000000
      g0      :     0.000000  g :     0.000000
      g+1     :     0.000000
      g-1     :     0.000000
      g+2     :     0.000000
      g-2     :     0.000000
      g+3     :    -0.000000
      g-3     :     0.000000
      g+4     :    -0.000000
      g-4     :     0.000000
  1 Cus       :     0.047600  s :     0.047600
      pz      :    -0.000077  p :     0.228359
      px      :     0.003087
      py      :     0.225350
      dz2     :     0.003135  d :     0.028495
      dxz     :    -0.000251
      dyz     :    -0.000029
      dx2y2   :     0.011671
      dxy     :     0.013969
      f0      :     0.000000  f :     0.000022
      f+1     :    -0.000000
      f-1     :     0.000006
      f+2     :     0.000000
      f-2     :     0.000000
      f+3     :     0.000017
      f-3     :    -0.000001
      g0      :     0.000000  g :     0.000000
      g+1     :     0.000000
      g-1     :     0.000000
      g+2     :     0.000000
      g-2     :     0.000000
      g+3     :     0.000000
      g-3     :    -0.000000
      g+4     :     0.000000
      g-4     :     0.000000
  2 Cus       :     0.047601  s :     0.047601
      pz      :    -0.000077  p :     0.228359
      px      :     0.003086
      py      :     0.225349
      dz2     :     0.003135  d :     0.028495
      dxz     :    -0.000251
      dyz     :    -0.000029
      dx2y2   :     0.011671
      dxy     :     0.013969
      f0      :     0.000000  f :     0.000022
      f+1     :    -0.000000
      f-1     :     0.000006
      f+2     :     0.000000
      f-2     :     0.000000
      f+3     :     0.000017
      f-3     :    -0.000001
      g0      :     0.000000  g :     0.000000
      g+1     :     0.000000
      g-1     :     0.000000
      g+2     :     0.000000
      g-2     :     0.000000
      g+3     :     0.000000
      g-3     :    -0.000000
      g+4     :     0.000000
      g-4     :     0.000000


                      *****************************
                      * MAYER POPULATION ANALYSIS *
                      *****************************

  NA   - Mulliken gross atomic population
  ZA   - Total nuclear charge
  QA   - Mulliken gross atomic charge
  VA   - Mayer's total valence
  BVA  - Mayer's bonded valence
  FA   - Mayer's free valence

  ATOM       NA         ZA         QA         VA         BVA        FA
  0 Cu    29.1162    29.0000    -0.1162     1.2973     0.9234     0.3739
  1 Cu    28.9419    29.0000     0.0581     1.3146     1.2185     0.0961
  2 Cu    28.9419    29.0000     0.0581     1.3146     1.2185     0.0961

  Mayer bond orders larger than 0.100000
B(  0-Cu,  1-Cu) :   0.4617 B(  0-Cu,  2-Cu) :   0.4617 B(  1-Cu,  2-Cu) :   0.7568 


-------
TIMINGS
-------

Total SCF time: 0 days 0 hours 0 min 8 sec 

Total time                  ....       8.895 sec
Sum of individual times     ....       8.721 sec  ( 98.0%)

Fock matrix formation       ....       8.066 sec  ( 90.7%)
  XC integration            ....       0.817 sec  ( 10.1% of F)
    Basis function eval.    ....       0.055 sec  (  6.7% of XC)
    Density eval.           ....       0.070 sec  (  8.6% of XC)
    XC-Functional eval.     ....       0.018 sec  (  2.2% of XC)
    XC-Potential eval.      ....       0.141 sec  ( 17.2% of XC)
Diagonalization             ....       0.169 sec  (  1.9%)
Density matrix formation    ....       0.021 sec  (  0.2%)
Population analysis         ....       0.012 sec  (  0.1%)
Initial guess               ....       0.098 sec  (  1.1%)
Orbital Transformation      ....       0.000 sec  (  0.0%)
Orbital Orthonormalization  ....       0.000 sec  (  0.0%)
DIIS solution               ....       0.059 sec  (  0.7%)
Grid generation             ....       0.295 sec  (  3.3%)


           ************************************************************
           *        Program running with 24 parallel MPI-processes    *
           *              working on a common directory               *
           ************************************************************

------------------------------------------------------------------------------
                                ORCA  MP2 
------------------------------------------------------------------------------

Freezing NCore=30 chemical core electrons

-------------
RI-MP2 ENERGY
-------------
Dimension of the basis                    ...  201
Memory devoted to MP2                     ... 5000 MB   
Data format for buffers                   ... DOUBLE
Compression type for matrix containers    ... UNCOMPRESSED
Overall scaling of the MP2 energy         ...   2.700e-01
Calculating two index integrals           ... done (    0.015 sec)
Cholesky decomposition of V**-1           ... done (    0.021 sec)

-----------------
RI-TRANSFORMATION (AUX index driven)
-----------------

Dimension of the orbital-basis         ... 201
Dimension of the aux-basis             ... 675
Transformation of internal/external MOs...   15-  43 to   44- 200
Number Format for Storage              ... Double (8 Byte)
Integral mode                          ... Direct

First Phase: integral generation and transformation of MO indices
  Aux angular momentum 0               ... done (    0.002 sec)
  Aux angular momentum 1               ... done (    0.004 sec)
  Aux angular momentum 2               ... done (    0.006 sec)
  Aux angular momentum 3               ... done (    0.004 sec)
  Aux angular momentum 4               ... done (    0.006 sec)
  Aux angular momentum 5               ... done (    0.010 sec)
  Aux angular momentum 6               ... done (    0.014 sec)
Closing buffer VIA ( 0.02 GB; CompressionRatio= 1.00)
  Phase 1 completed in     0.116 sec
Second Phase: sorting and transformation of aux index

IA-Transformation
Memory available                       ... 4993 MB 
Max. # MO pairs treated in a batch     ... 2    
# of internal orbitals                 ... 29
# batches for internal orbitals        ... 1
Closing buffer IAV ( 0.00 GB; CompressionRatio= 1.00)
(ia|v) transformation done in     0.017 sec

  Phase 2 completed in     0.039 sec
RI-Integral transformation completed in     0.156 sec

-----------------
RI-TRANSFORMATION (AUX index driven)
-----------------

Dimension of the orbital-basis         ... 201
Dimension of the aux-basis             ... 675
Transformation of internal/external MOs...   15-  42 to   43- 200
Number Format for Storage              ... Double (8 Byte)
Integral mode                          ... Direct

First Phase: integral generation and transformation of MO indices
  Aux angular momentum 0               ... done (    0.002 sec)
  Aux angular momentum 1               ... done (    0.004 sec)
  Aux angular momentum 2               ... done (    0.006 sec)
  Aux angular momentum 3               ... done (    0.004 sec)
  Aux angular momentum 4               ... done (    0.006 sec)
  Aux angular momentum 5               ... done (    0.010 sec)
  Aux angular momentum 6               ... done (    0.014 sec)
Closing buffer VIA ( 0.02 GB; CompressionRatio= 1.00)
  Phase 1 completed in     0.115 sec
Second Phase: sorting and transformation of aux index

IA-Transformation
Memory available                       ... 4993 MB 
Max. # MO pairs treated in a batch     ... 2    
# of internal orbitals                 ... 28
# batches for internal orbitals        ... 1
Closing buffer IAV ( 0.00 GB; CompressionRatio= 1.00)
(ia|v) transformation done in     0.017 sec

  Phase 2 completed in     0.038 sec
RI-Integral transformation completed in     0.154 sec
Opening buffers                              ... done

Starting loop over batches of integrals:

Operator 0  - window                       ... ( 15- 43)x( 44-200)
Operator 0  - Memory available             ...  5000 MB
Operator 0  - Memory needed per MO         ...   0.8 MB
Operator 0  - Number of orbitals per batch ... 2
Operator 0  - Number of batches            ... 1

OPERATOR  0   PASS   0:  MOs    15 ...   16 +   17 ...   18 +   19 ...   20 +   21 ...   22
                            +   23 ...   24 +   25 ...   26 +   27 ...   28 +   29 ...   30
                            +   31 ...   32 +   33 ...   34 +   35 ...   36 +   37 ...   38
                            +   39 ...   40 +   41 ...   42 +   43 ...   43
  Reading integrals       ... ok

Operator 1  - window                       ... ( 15- 42)x( 43-200)
Operator 1  - Memory available             ...  5000 MB
Operator 1  - Memory needed per MO         ...   0.8 MB
Operator 1  - Number of orbitals per batch ... 2
Operator 1  - Number of batches            ... 1

OPERATOR  1   PASS   0:  MOs    15 ...   16 +   17 ...   18 +   19 ...   20 +   21 ...   22
                            +   23 ...   24 +   25 ...   26 +   27 ...   28 +   29 ...   30
                            +   31 ...   32 +   33 ...   34 +   35 ...   36 +   37 ...   38
                            +   39 ...   40 +   41 ...   42
  Reading integrals       ... ok
Time spent in pair loops =     0.139 sec
Deleting buffer (Ka|jb)[aa] ...done
Deleting buffer (Ka|jb)[ab] ...done
Deleting buffer (Ka|jb)[ba] ...done
Deleting buffer (Ka|jb)[bb] ...done

Correlation energy components}
 E2 and T2 for alpha/alpha pairs :     -0.146184577 Eh      0.000000000
 E2 and T2 for beta/beta   pairs :     -0.141702468 Eh      0.000000000
 E2 and T2 for alpha/beta  pairs :     -0.538886408 Eh      0.000000000


-----------------------------------------------
 RI-MP2 CORRELATION ENERGY:     -0.826773453 Eh
-----------------------------------------------


-------
TIMINGS
-------

Total time                :    0.561 sec
Integral trafo            :    0.341 sec ( 60.8%)
I/O of integrals          :    0.002 sec (  0.3%)
K(i,j) Operators          :    0.070 sec ( 12.4%)
T(i,j) pair energies      :    0.004 sec (  0.8%)
V-calculation             :    0.015 sec (  2.6%)
V**(-1/2)                 :    0.021 sec (  3.8%)
Gamma(ia|P)               :    0.000 sec (  0.0%)
Gamma-Trafo               :    0.000 sec (  0.0%)
D(virtual)                :    0.000 sec (  0.0%)
D(internal)               :    0.000 sec (  0.0%)
W(virtual)                :    0.000 sec (  0.0%)
W(internal)               :    0.000 sec (  0.0%)
L(virtual)                :    0.000 sec (  0.0%)
L(internal)               :    0.000 sec (  0.0%)
G(D)                      :    0.000 sec (  0.0%)
G(Z)                      :    0.000 sec (  0.0%)
Z-Vector Solution         :    0.000 sec (  0.0%)
Z-Vector Solution         :    0.000 sec (  0.0%)
3-Index Derivative 
+ Separable RIJ part      :    0.000 sec (  0.0%)
2-Index Derivative 
+ Separable RIJ part      :    0.000 sec (  0.0%)
Separable Gradient (X)    :    0.000 sec (  0.0%)


---------------------------------------
MP2 TOTAL ENERGY:    -4921.051094482 Eh
---------------------------------------


-------------------------------------------------------------------------------
                          DFT DISPERSION CORRECTION                            
                                                                               
                              DFTD3 V3.1  Rev 1                                
                          USING Becke-Johnson damping                          
-------------------------------------------------------------------------------
The B2PLYP functional is recognized
Active option DFTDOPT                   ...         4   

molecular C6(AA) [au] = 1575.004599 


            DFT-D V3
 parameters
 s6 scaling factor         :     0.6400 
 a1 scaling factor         :     0.3065 
 s8 scaling factor         :     0.9147 
 a2 scaling factor         :     5.0570 
 ad hoc parameters k1-k3   :    16.0000     1.3333    -4.0000 

 Edisp/kcal,au: -2.613573313204  -0.004164993745 
 E6   /kcal   :  -0.885836857 
 E8   /kcal   :  -1.727736456 
 % E8         :  66.106293903 

-------------------------   ----------------
Dispersion correction           -0.004164994
-------------------------   ----------------


-------------------------   --------------------
FINAL SINGLE POINT ENERGY     -4921.055259476097
-------------------------   --------------------


                            ***************************************
                            *     ORCA property calculations      *
                            ***************************************


  WARNING: The energy has been calculated at the MP2 level but the densities
           used in the property calculations are still SCF densities
           MP2 response densities have not been calculated 
           use %mp2 Density relaxed end
           or  %mp2 Density unrelaxed end

                                    ---------------------
                                    Active property flags
                                    ---------------------
   (+) Dipole Moment


------------------------------------------------------------------------------
                       ORCA ELECTRIC PROPERTIES CALCULATION
------------------------------------------------------------------------------

Dipole Moment Calculation                       ... on
Quadrupole Moment Calculation                   ... off
Polarizability Calculation                      ... off
GBWName                                         ... Cu03N0_D3H.gbw
Electron density file                           ... Cu03N0_D3H.scfp
The origin for moment calculation is the CENTER OF MASS  = ( 0.000000,  0.000000  0.000000)

-------------
DIPOLE MOMENT
-------------
                                X             Y             Z
Electronic contribution:      0.00000      -0.34228      -0.00000
Nuclear contribution   :      0.00000       0.00000      -0.00000
                        -----------------------------------------
Total Dipole Moment    :      0.00000      -0.34228      -0.00000
                        -----------------------------------------
Magnitude (a.u.)       :      0.34228
Magnitude (Debye)      :      0.87001



--------------------
Rotational spectrum 
--------------------
 
Rotational constants in cm-1:     0.097491     0.097491     0.048746 
Rotational constants in MHz :  2922.716641  2922.715325  1461.357991 

 Dipole components along the rotational axes: 
x,y,z [a.u.] :    -0.342281     0.000002    -0.000000 
x,y,z [Debye]:    -0.870010     0.000006    -0.000000 

 

Timings for individual modules:

Sum of individual times         ...       11.034 sec (=   0.184 min)
GTO integral calculation        ...        0.738 sec (=   0.012 min)   6.7 %
SCF iterations                  ...        9.226 sec (=   0.154 min)  83.6 %
MP2 module                      ...        1.070 sec (=   0.018 min)   9.7 %
                             ****ORCA TERMINATED NORMALLY****
TOTAL RUN TIME: 0 days 0 hours 0 minutes 11 seconds 527 msec
