
                                 *****************
                                 * O   R   C   A *
                                 *****************

           --- An Ab Initio, DFT and Semiempirical electronic structure package ---

                  #######################################################
                  #                        -***-                        #
                  #          Department of theory and spectroscopy      #
                  #               Directorship: Frank Neese             #
                  #        Max Planck Institute fuer Kohlenforschung    #
                  #                Kaiser Wilhelm Platz 1               #
                  #                 D-45470 Muelheim/Ruhr               #
                  #                      Germany                        #
                  #                                                     #
                  #                  All rights reserved                #
                  #                        -***-                        #
                  #######################################################


                         Program Version 4.2.0 -  RELEASE  -


 With contributions from (in alphabetic order):
   Daniel Aravena         : Magnetic Suceptibility
   Michael Atanasov       : Ab Initio Ligand Field Theory (pilot matlab implementation)
   Alexander A. Auer      : GIAO ZORA, VPT2
   Ute Becker             : Parallelization
   Giovanni Bistoni       : ED, misc. LED, open-shell LED, HFLED
   Martin Brehm           : Molecular dynamics
   Dmytro Bykov           : SCF Hessian
   Vijay G. Chilkuri      : MRCI spin determinant printing, contributions to CSF-ICE
   Dipayan Datta          : RHF DLPNO-CCSD density
   Achintya Kumar Dutta   : EOM-CC, STEOM-CC
   Dmitry Ganyushin       : Spin-Orbit,Spin-Spin,Magnetic field MRCI
   Miquel Garcia          : C-PCM Hessian, Gaussian charge scheme
   Yang Guo               : DLPNO-NEVPT2, CIM, IAO-localization
   Andreas Hansen         : Spin unrestricted coupled pair/coupled cluster methods
   Benjamin Helmich-Paris : CASSCF linear response (MC-RPA)
   Lee Huntington         : MR-EOM, pCC
   Robert Izsak           : Overlap fitted RIJCOSX, COSX-SCS-MP3, EOM
   Christian Kollmar      : KDIIS, OOCD, Brueckner-CCSD(T), CCSD density
   Simone Kossmann        : Meta GGA functionals, TD-DFT gradient, OOMP2, MP2 Hessian
   Martin Krupicka        : AUTO-CI
   Lucas Lang             : DCDCAS
   Dagmar Lenk            : GEPOL surface, SMD
   Dimitrios Liakos       : Extrapolation schemes; Compound Job, initial MDCI parallelization
   Dimitrios Manganas     : Further ROCIS development; embedding schemes
   Dimitrios Pantazis     : SARC Basis sets
   Taras Petrenko         : DFT Hessian,TD-DFT gradient, ASA, ECA, R-Raman, ABS, FL, XAS/XES, NRVS
   Peter Pinski           : DLPNO-MP2, DLPNO-MP2 Gradient
   Christoph Reimann      : Effective Core Potentials
   Marius Retegan         : Local ZFS, SOC
   Christoph Riplinger    : Optimizer, TS searches, QM/MM, DLPNO-CCSD(T), (RO)-DLPNO pert. Triples
   Tobias Risthaus        : Range-separated hybrids, TD-DFT gradient, RPA, STAB
   Michael Roemelt        : Original ROCIS implementation
   Masaaki Saitow         : Open-shell DLPNO-CCSD energy and density
   Barbara Sandhoefer     : DKH picture change effects
   Avijit Sen             : IP-ROCIS
   Kantharuban Sivalingam : CASSCF convergence, NEVPT2, FIC-MRCI
   Bernardo de Souza      : ESD, SOC TD-DFT
   Georgi Stoychev        : AutoAux, RI-MP2 NMR
   Willem Van den Heuvel  : Paramagnetic NMR
   Boris Wezisla          : Elementary symmetry handling
   Frank Wennmohs         : Technical directorship


 We gratefully acknowledge several colleagues who have allowed us to
 interface, adapt or use parts of their codes:
   Stefan Grimme, W. Hujo, H. Kruse,             : VdW corrections, initial TS optimization,
                  C. Bannwarth                     DFT functionals, gCP, sTDA/sTD-DF
   Ed Valeev, F. Pavosevic, A. Kumar             : LibInt (2-el integral package), F12 methods
   Garnet Chan, S. Sharma, J. Yang, R. Olivares  : DMRG
   Ulf Ekstrom                                   : XCFun DFT Library
   Mihaly Kallay                                 : mrcc  (arbitrary order and MRCC methods)
   Andreas Klamt, Michael Diedenhofen            : otool_cosmo (COSMO solvation model)
   Jiri Pittner, Ondrej Demel                    : Mk-CCSD
   Frank Weinhold                                : gennbo (NPA and NBO analysis)
   Christopher J. Cramer and Donald G. Truhlar   : smd solvation model
   Lars Goerigk                                  : TD-DFT with DH, B97 family of functionals
   V. Asgeirsson, H. Jonsson                     : NEB implementation
   FAccTs GmbH                                   : IRC, NEB, NEB-TS, Multilevel, MM, QM/MM, CI optimization
   S Lehtola, MJT Oliveira, MAL Marques          : LibXC Library


 Your calculation uses the libint2 library for the computation of 2-el integrals
 For citations please refer to: http://libint.valeyev.net

 Your ORCA version has been built with support for libXC version: 4.2.3
 For citations please refer to: https://tddft.org/programs/libxc/

 This ORCA versions uses:
   CBLAS   interface :  Fast vector & matrix operations
   LAPACKE interface :  Fast linear algebra routines
   SCALAPACK package :  Parallel linear algebra routines


Your calculation utilizes the atom-pairwise dispersion correction
with the Becke-Johnson damping scheme (D3BJ)
Cite in your paper:
S.Grimme, S.Ehrlich, L.Goerigk, J Comput Chem, (2011), 32, 1456–1465 
S.Grimme, J.Antony, S.Ehrlich and H.Krieg, J.Chem.Phys., 132, (2010), 154104 
   

----- Orbital basis set information -----
Your calculation utilizes the basis: def2-TZVPPD
   F. Weigend and R. Ahlrichs, Phys. Chem. Chem. Phys. 7, 3297 (2005).
   D. Rappoport and F. Furche, J. Chem. Phys. 133 134105 (2010).

----- AuxC basis set information -----
Your calculation utilizes the auxiliary basis: def2-TZVPPD/C
   A. Hellweg, C. Hattig, S. Hofener and W. Klopper, Theor. Chem. Acc. 117, 587 (2007).

----- AuxJK basis set information -----
Your calculation utilizes the auxiliary basis: def2/JK
   H-Ba, Hf-Rn: F. Weigend, J. Comput. Chem. 29, 167 (2008).

================================================================================
                                        WARNINGS
                       Please study these warnings very carefully!
================================================================================


WARNING: your system is open-shell and RHF/RKS was chosen
  ===> : WILL SWITCH to UHF/UKS


WARNING: No MP2 level density has been requested!
         To caclulate MP2 level properties use
         %mp2 Density relaxed end
         or
         %mp2 Density unrelaxed end
         Otherwise for double-hybrid DFT only the energy is correct!

WARNING: The frozen-core approximation is turned on by default for 
         the MP2 part of double-hybrid DFT.

INFO   : the flag for use of LIBINT has been found!

================================================================================
                                       INPUT FILE
================================================================================
NAME = Cu04C2_H_E.in
|  1> #
|  2> # Cu04C2_H_E ri-B2PLYP-D3BJ/Def2-TZVPPD
|  3> #
|  4> ! rijk ri-b2plyp d3bj def2-tzvppd def2/jk def2-tzvppd/c grid4 nofinalgrid
|  5> 
|  6> *xyz 2 2
|  7> Cu      -0.967673    0.056725    1.180703 
|  8> Cu      -0.972439   -0.054931   -1.177653 
|  9> Cu       0.936359    1.185605   -0.057167 
| 10> Cu       0.933653   -1.187345    0.053806 
| 11> H        2.032882   -0.001578    0.009000 
| 12> *
| 13> 
| 14> %maxcore 5000
| 15> 
| 16> %pal
| 17> nprocs = 24
| 18> end
| 19> 
| 20> 
| 21>                          ****END OF INPUT****
================================================================================

                       ****************************
                       * Single Point Calculation *
                       ****************************

---------------------------------
CARTESIAN COORDINATES (ANGSTROEM)
---------------------------------
  Cu    -0.967673    0.056725    1.180703
  Cu    -0.972439   -0.054931   -1.177653
  Cu     0.936359    1.185605   -0.057167
  Cu     0.933653   -1.187345    0.053806
  H      2.032882   -0.001578    0.009000

----------------------------
CARTESIAN COORDINATES (A.U.)
----------------------------
  NO LB      ZA    FRAG     MASS         X           Y           Z
   0 Cu   29.0000    0    63.550   -1.828637    0.107195    2.231205
   1 Cu   29.0000    0    63.550   -1.837643   -0.103805   -2.225442
   2 Cu   29.0000    0    63.550    1.769462    2.240469   -0.108030
   3 Cu   29.0000    0    63.550    1.764348   -2.243757    0.101679
   4 H     1.0000    0     1.008    3.841590   -0.002982    0.017008

--------------------------------
INTERNAL COORDINATES (ANGSTROEM)
--------------------------------
 Cu     0   0   0     0.000000000000     0.00000000     0.00000000
 Cu     1   0   0     2.361002498903     0.00000000     0.00000000
 Cu     1   2   0     2.536144721487    62.29118487     0.00000000
 Cu     3   1   2     2.375544996767    62.07686827   286.20627955
 H      3   1   2     1.617449917898    99.33975446   264.54937671

---------------------------
INTERNAL COORDINATES (A.U.)
---------------------------
 Cu     0   0   0     0.000000000000     0.00000000     0.00000000
 Cu     1   0   0     4.461648124431     0.00000000     0.00000000
 Cu     1   2   0     4.792618959600    62.29118487     0.00000000
 Cu     3   1   2     4.489129462697    62.07686827   286.20627955
 H      3   1   2     3.056537380160    99.33975446   264.54937671

---------------------
BASIS SET INFORMATION
---------------------
There are 2 groups of distinct atoms

 Group   1 Type Cu  : 17s13p7d2f1g contracted to 6s6p4d2f1g pattern {842111/631111/4111/11/1}
 Group   2 Type H   : 5s3p1d contracted to 3s3p1d pattern {311/111/1}

Atom   0Cu   basis set group =>   1
Atom   1Cu   basis set group =>   1
Atom   2Cu   basis set group =>   1
Atom   3Cu   basis set group =>   1
Atom   4H    basis set group =>   2
---------------------------------
AUXILIARY/C BASIS SET INFORMATION
---------------------------------
There are 2 groups of distinct atoms

 Group   1 Type Cu  : 10s10p9d7f5g3h1i contracted to 10s10p9d7f5g3h1i pattern {1111111111/1111111111/111111111/1111111/11111/111/1}
 Group   2 Type H   : 5s4p3d1f contracted to 5s4p3d1f pattern {11111/1111/111/1}

Atom   0Cu   basis set group =>   1
Atom   1Cu   basis set group =>   1
Atom   2Cu   basis set group =>   1
Atom   3Cu   basis set group =>   1
Atom   4H    basis set group =>   2
----------------------------------
AUXILIARY/JK BASIS SET INFORMATION
----------------------------------
There are 2 groups of distinct atoms

 Group   1 Type Cu  : 19s14p12d10f7g3h1i contracted to 16s13p11d9f5g3h1i pattern {4111111111111111/2111111111111/21111111111/211111111/31111/111/1}
 Group   2 Type H   : 4s2p2d contracted to 2s2p2d pattern {31/11/11}

Atom   0Cu   basis set group =>   1
Atom   1Cu   basis set group =>   1
Atom   2Cu   basis set group =>   1
Atom   3Cu   basis set group =>   1
Atom   4H    basis set group =>   2


           ************************************************************
           *        Program running with 24 parallel MPI-processes    *
           *              working on a common directory               *
           ************************************************************
------------------------------------------------------------------------------
                           ORCA GTO INTEGRAL CALCULATION
                           -- RI-GTO INTEGRALS CHOSEN --
------------------------------------------------------------------------------

                         BASIS SET STATISTICS AND STARTUP INFO

Gaussian basis set:
 # of primitive gaussian shells          ...  169
 # of primitive gaussian functions       ...  475
 # of contracted shells                  ...   83
 # of contracted basis functions         ...  285
 Highest angular momentum                ...    4
 Maximum contraction depth               ...    8
Auxiliary gaussian basis set:
 # of primitive gaussian shells          ...  272
 # of primitive gaussian functions       ... 1220
 # of contracted shells                  ...  238
 # of contracted aux-basis functions     ... 1074
 Highest angular momentum                ...    6
 Maximum contraction depth               ...    4
Ratio of auxiliary to basis functions    ...  3.77
Integral package used                  ... LIBINT
 One Electron integrals                  ... done
 Ordering auxiliary basis shells         ... done
 Integral threshhold             Thresh  ...  1.000e-10
 Primitive cut-off               TCut    ...  1.000e-11
 Pre-screening matrix                    ... done
 Shell pair data                         ... 
 Ordering of the shell pairs             ... done (   0.000 sec) 3185 of 3486 pairs
 Determination of significant pairs      ... done (   0.000 sec)
 Creation of shell pair data             ... done (   0.000 sec)
 Storage of shell pair data              ... done (   0.008 sec)
 Shell pair data done in (   0.009 sec)
 Computing two index integrals           ... done
 Cholesky decomposition of the V-matrix  ... done


Timings:
 Total evaluation time                   ...   0.596 sec (  0.010 min)
 One electron matrix time                ...   0.056 sec (  0.001 min) =  9.4%
 Schwartz matrix evaluation time         ...   0.251 sec (  0.004 min) = 42.2%
 Two index repulsion integral time       ...   0.199 sec (  0.003 min) = 33.4%
 Cholesky decomposition of V             ...   0.051 sec (  0.001 min) =  8.6%
 Three index repulsion integral time     ...   0.000 sec (  0.000 min) =  0.0%



           ************************************************************
           *        Program running with 24 parallel MPI-processes    *
           *              working on a common directory               *
           ************************************************************
-------------------------------------------------------------------------------
                                 ORCA SCF
-------------------------------------------------------------------------------

------------
SCF SETTINGS
------------
Hamiltonian:
 Density Functional     Method          .... DFT(GTOs)
 Exchange Functional    Exchange        .... B88
   X-Alpha parameter    XAlpha          ....  0.666667
   Becke's b parameter  XBeta           ....  0.004200
 Correlation Functional Correlation     .... LYP
 LDA part of GGA corr.  LDAOpt          .... VWN-3
 Gradients option       PostSCFGGA      .... off
 Hybrid DFT is turned on
   Fraction HF Exchange ScalHFX         ....  0.530000
   Scaling of DF-GGA-X  ScalDFX         ....  0.470000
   Scaling of DF-GGA-C  ScalDFC         ....  0.730000
   Scaling of DF-LDA-C  ScalLDAC        ....  0.730000
   Perturbative correction              ....  0.270000
   Density functional embedding theory  .... OFF
 RI-approximation to the Coulomb term is turned on
   Number of auxiliary basis functions  .... 1074
   RI-JK (J+K treated both via RI)      .... on


General Settings:
 Integral files         IntName         .... Cu04C2_H_E
 Hartree-Fock type      HFTyp           .... UHF
 Total Charge           Charge          ....    2
 Multiplicity           Mult            ....    2
 Number of Electrons    NEL             ....  115
 Basis Dimension        Dim             ....  285
 Nuclear Repulsion      ENuc            ....   1106.1480194245 Eh

Convergence Acceleration:
 DIIS                   CNVDIIS         .... on
   Start iteration      DIISMaxIt       ....    12
   Startup error        DIISStart       ....  0.200000
   # of expansion vecs  DIISMaxEq       ....     5
   Bias factor          DIISBfac        ....   1.050
   Max. coefficient     DIISMaxC        ....  10.000
 Newton-Raphson         CNVNR           .... off
 SOSCF                  CNVSOSCF        .... off
 Level Shifting         CNVShift        .... on
   Level shift para.    LevelShift      ....    0.2500
   Turn off err/grad.   ShiftErr        ....    0.0010
 Zerner damping         CNVZerner       .... off
 Static damping         CNVDamp         .... on
   Fraction old density DampFac         ....    0.7000
   Max. Damping (<1)    DampMax         ....    0.9800
   Min. Damping (>=0)   DampMin         ....    0.0000
   Turn off err/grad.   DampErr         ....    0.1000
 Fernandez-Rico         CNVRico         .... off

SCF Procedure:
 Maximum # iterations   MaxIter         ....   125
 SCF integral mode      SCFMode         .... Direct
   Integral package                     .... LIBINT
 Reset frequency        DirectResetFreq ....    20
 Integral Threshold     Thresh          ....  1.000e-10 Eh
 Primitive CutOff       TCut            ....  1.000e-11 Eh

Convergence Tolerance:
 Convergence Check Mode ConvCheckMode   .... Total+1el-Energy
 Convergence forced     ConvForced      .... 0
 Energy Change          TolE            ....  1.000e-06 Eh
 1-El. energy change                    ....  1.000e-03 Eh
 DIIS Error             TolErr          ....  1.000e-06


Diagonalization of the overlap matrix:
Smallest eigenvalue                        ... 6.946e-04
Time for diagonalization                   ...    0.012 sec
Threshold for overlap eigenvalues          ... 1.000e-08
Number of eigenvalues below threshold      ... 0
Time for construction of square roots      ...    0.009 sec
Total time needed                          ...    0.022 sec

-------------------
DFT GRID GENERATION
-------------------

General Integration Accuracy     IntAcc      ...  4.670
Radial Grid Type                 RadialGrid  ... Gauss-Chebyshev
Angular Grid (max. acc.)         AngularGrid ... Lebedev-302
Angular grid pruning method      GridPruning ... 3 (G Style)
Weight generation scheme         WeightScheme... Becke
Basis function cutoff            BFCut       ...    1.0000e-10
Integration weight cutoff        WCut        ...    1.0000e-14
Grids for H and He will be reduced by one unit

# of grid points (after initial pruning)     ...  41618 (   0.0 sec)
# of grid points (after weights+screening)   ...  40939 (   0.0 sec)
nearest neighbour list constructed           ...    0.0 sec
Grid point re-assignment to atoms done       ...    0.0 sec
Grid point division into batches done        ...    0.2 sec
Reduced shell lists constructed in    0.3 sec

Total number of grid points                  ...    40939
Total number of batches                      ...      642
Average number of points per batch           ...       63
Average number of grid points per atom       ...     8188
Average number of shells per batch           ...    20.25 (24.40%)
Average number of basis functions per batch  ...    55.89 (19.61%)
Average number of large shells per batch     ...    15.21 (75.13%)
Average number of large basis fcns per batch ...    42.36 (75.78%)
Average number of aux-shells per batch       ...    20.25 ( 8.51%)
Average number of aux functions per batch    ...    55.89 ( 5.20%)
Maximum spatial batch extension              ...  18.35, 20.38, 17.03 au
Average spatial batch extension              ...   0.41,  0.42,  0.38 au

Time for grid setup =    0.390 sec

------------------------------
INITIAL GUESS: MODEL POTENTIAL
------------------------------
Loading Hartree-Fock densities                     ... done
Calculating cut-offs                               ... done
Setting up the integral package                    ... done
Initializing the effective Hamiltonian             ... done
Starting the Coulomb interaction                   ... done (   0.0 sec)
Reading the grid                                   ... done
Mapping shells                                     ... done
Starting the XC term evaluation                    ... done (   0.0 sec)
  promolecular density results
     # of electrons  =    116.999568390
     EX              =   -263.604308146
     EC              =     -2.117571392
     EX+EC           =   -265.721879539
Transforming the Hamiltonian                       ... done (   0.0 sec)
Diagonalizing the Hamiltonian                      ... done (   0.0 sec)
Back transforming the eigenvectors                 ... done (   0.0 sec)
Now organizing SCF variables                       ... done
                      ------------------
                      INITIAL GUESS DONE (   0.5 sec)
                      ------------------
--------------
SCF ITERATIONS
--------------
ITER       Energy         Delta-E        Max-DP      RMS-DP      [F,P]     Damp
  0  -6560.1496350087   0.000000000000 0.05127369  0.00051338  0.1282659 0.7000
  1  -6560.4396753184  -0.290040309657 0.05323697  0.00053427  0.0641976 0.7000
                               ***Turning on DIIS***
  2  -6560.3936387574   0.046036560985 0.14456129  0.00147090  0.0540363 0.0000
  3  -6560.2554291106   0.138209646752 0.01927988  0.00024046  0.0459550 0.0000
  4  -6560.2626379943  -0.007208883668 0.00547810  0.00010651  0.0366489 0.0000
  5  -6560.2647682313  -0.002130236994 0.00552788  0.00005248  0.0131323 0.0000
  6  -6560.2652922692  -0.000524037882 0.00241681  0.00003059  0.0024131 0.0000
  7  -6560.2654052116  -0.000112942444 0.00103959  0.00001631  0.0022097 0.0000
  8  -6560.2654551401  -0.000049928499 0.00099145  0.00001551  0.0011503 0.0000
  9  -6560.2654859394  -0.000030799282 0.00137432  0.00002175  0.0004575 0.0000
 10  -6560.2655091194  -0.000023179972 0.00061321  0.00000788  0.0001917 0.0000
 11  -6560.2655119481  -0.000002828670 0.00014463  0.00000192  0.0001681 0.0000
 12  -6560.2655122336  -0.000000285558 0.00018543  0.00000232  0.0002438 0.0000
 13  -6560.2655125384  -0.000000304797 0.00008784  0.00000121  0.0000593 0.0000
 14  -6560.2655126062  -0.000000067746 0.00004726  0.00000063  0.0000763 0.0000
                 **** Energy Check signals convergence ****

               *****************************************************
               *                     SUCCESS                       *
               *           SCF CONVERGED AFTER  15 CYCLES          *
               *****************************************************


----------------
TOTAL SCF ENERGY
----------------

Total Energy       :        -6560.26551263 Eh         -178513.90007 eV

Components:
Nuclear Repulsion  :         1106.14801942 Eh           30099.81785 eV
Electronic Energy  :        -7666.41353206 Eh         -208613.71792 eV
One Electron Energy:       -11317.40726995 Eh         -307962.30832 eV
Two Electron Energy:         3650.99373790 Eh           99348.59039 eV

Virial components:
Potential Energy   :       -13113.91580235 Eh         -356847.79077 eV
Kinetic Energy     :         6553.65028972 Eh          178333.89070 eV
Virial Ratio       :            2.00100940


DFT components:
N(Alpha)           :       57.999984351481 electrons
N(Beta)            :       56.999980139435 electrons
N(Total)           :      114.999964490916 electrons
E(X)               :     -124.038026576082 Eh       
E(C)               :       -4.033705006571 Eh       
E(XC)              :     -128.071731582652 Eh       
DFET-embed. en.    :        0.000000000000 Eh       

---------------
SCF CONVERGENCE
---------------

  Last Energy change         ...   -2.6132e-08  Tolerance :   1.0000e-06
  Last MAX-Density change    ...    4.5946e-05  Tolerance :   1.0000e-05
  Last RMS-Density change    ...    5.5038e-07  Tolerance :   1.0000e-06
  Last DIIS Error            ...    2.4128e-05  Tolerance :   1.0000e-06

             **** THE GBW FILE WAS UPDATED (Cu04C2_H_E.gbw) ****
             **** DENSITY FILE WAS UPDATED (Cu04C2_H_E.scfp) ****
             **** ENERGY FILE WAS UPDATED (Cu04C2_H_E.en.tmp) ****
----------------------
UHF SPIN CONTAMINATION
----------------------

Warning: in a DFT calculation there is little theoretical justification to 
         calculate <S**2> as in Hartree-Fock theory. We will do it anyways
         but you should keep in mind that the values have only limited relevance

Expectation value of <S**2>     :     0.768897
Ideal value S*(S+1) for S=0.5   :     0.750000
Deviation                       :     0.018897

             **** THE GBW FILE WAS UPDATED (Cu04C2_H_E.gbw) ****
             **** DENSITY FILE WAS UPDATED (Cu04C2_H_E.scfp) ****
----------------
ORBITAL ENERGIES
----------------
                 SPIN UP ORBITALS
  NO   OCC          E(Eh)            E(eV) 
   0   1.0000    -325.855586     -8866.9813 
   1   1.0000    -325.855575     -8866.9810 
   2   1.0000    -325.836522     -8866.4625 
   3   1.0000    -325.836493     -8866.4617 
   4   1.0000     -40.068810     -1090.3277 
   5   1.0000     -40.068791     -1090.3272 
   6   1.0000     -40.043637     -1089.6428 
   7   1.0000     -40.043607     -1089.6419 
   8   1.0000     -35.106599      -955.2991 
   9   1.0000     -35.106584      -955.2987 
  10   1.0000     -35.104024      -955.2291 
  11   1.0000     -35.104010      -955.2287 
  12   1.0000     -35.101798      -955.1685 
  13   1.0000     -35.101784      -955.1681 
  14   1.0000     -35.079570      -954.5636 
  15   1.0000     -35.079539      -954.5628 
  16   1.0000     -35.079336      -954.5573 
  17   1.0000     -35.079306      -954.5564 
  18   1.0000     -35.079213      -954.5539 
  19   1.0000     -35.079183      -954.5531 
  20   1.0000      -5.019472      -136.5868 
  21   1.0000      -5.019133      -136.5775 
  22   1.0000      -4.994776      -135.9148 
  23   1.0000      -4.994406      -135.9047 
  24   1.0000      -3.445258       -93.7502 
  25   1.0000      -3.443184       -93.6938 
  26   1.0000      -3.438256       -93.5597 
  27   1.0000      -3.436822       -93.5207 
  28   1.0000      -3.431875       -93.3861 
  29   1.0000      -3.431599       -93.3786 
  30   1.0000      -3.416027       -92.9548 
  31   1.0000      -3.412635       -92.8625 
  32   1.0000      -3.412212       -92.8510 
  33   1.0000      -3.412002       -92.8453 
  34   1.0000      -3.411838       -92.8408 
  35   1.0000      -3.411754       -92.8385 
  36   1.0000      -0.881804       -23.9951 
  37   1.0000      -0.832624       -22.6569 
  38   1.0000      -0.810548       -22.0561 
  39   1.0000      -0.809729       -22.0338 
  40   1.0000      -0.805169       -21.9098 
  41   1.0000      -0.797100       -21.6902 
  42   1.0000      -0.795911       -21.6578 
  43   1.0000      -0.793480       -21.5917 
  44   1.0000      -0.790603       -21.5134 
  45   1.0000      -0.778577       -21.1862 
  46   1.0000      -0.777155       -21.1475 
  47   1.0000      -0.776860       -21.1394 
  48   1.0000      -0.774808       -21.0836 
  49   1.0000      -0.771618       -20.9968 
  50   1.0000      -0.764569       -20.8050 
  51   1.0000      -0.758633       -20.6434 
  52   1.0000      -0.757377       -20.6093 
  53   1.0000      -0.754891       -20.5416 
  54   1.0000      -0.748241       -20.3607 
  55   1.0000      -0.745978       -20.2991 
  56   1.0000      -0.742716       -20.2103 
  57   1.0000      -0.640943       -17.4409 
  58   0.0000      -0.419793       -11.4231 
  59   0.0000      -0.413139       -11.2421 
  60   0.0000      -0.357616        -9.7312 
  61   0.0000      -0.309688        -8.4270 
  62   0.0000      -0.297595        -8.0980 
  63   0.0000      -0.290747        -7.9116 
  64   0.0000      -0.285072        -7.7572 
  65   0.0000      -0.272506        -7.4153 
  66   0.0000      -0.191145        -5.2013 
  67   0.0000      -0.177998        -4.8436 
  68   0.0000      -0.176139        -4.7930 
  69   0.0000      -0.165475        -4.5028 
  70   0.0000      -0.160943        -4.3795 
  71   0.0000      -0.160782        -4.3751 
  72   0.0000      -0.156545        -4.2598 
  73   0.0000      -0.137669        -3.7462 
  74   0.0000      -0.125454        -3.4138 
  75   0.0000      -0.115230        -3.1356 
  76   0.0000      -0.114865        -3.1256 
  77   0.0000      -0.112008        -3.0479 
  78   0.0000      -0.111142        -3.0243 
  79   0.0000      -0.109278        -2.9736 
  80   0.0000      -0.102662        -2.7936 
  81   0.0000      -0.098354        -2.6764 
  82   0.0000      -0.051381        -1.3982 
  83   0.0000      -0.048419        -1.3175 
  84   0.0000      -0.047743        -1.2991 
  85   0.0000      -0.042902        -1.1674 
  86   0.0000      -0.040528        -1.1028 
  87   0.0000      -0.034506        -0.9390 
  88   0.0000      -0.015071        -0.4101 
  89   0.0000      -0.012926        -0.3517 
  90   0.0000      -0.009995        -0.2720 
  91   0.0000      -0.004912        -0.1337 
  92   0.0000       0.003544         0.0964 
  93   0.0000       0.007920         0.2155 
  94   0.0000       0.014690         0.3997 
  95   0.0000       0.022548         0.6136 
  96   0.0000       0.027920         0.7597 
  97   0.0000       0.048056         1.3077 
  98   0.0000       0.080639         2.1943 
  99   0.0000       0.083794         2.2801 
 100   0.0000       0.084982         2.3125 
 101   0.0000       0.088578         2.4103 
 102   0.0000       0.101085         2.7507 
 103   0.0000       0.111117         3.0237 
 104   0.0000       0.130547         3.5524 
 105   0.0000       0.152342         4.1454 
 106   0.0000       0.158834         4.3221 
 107   0.0000       0.162931         4.4336 
 108   0.0000       0.163300         4.4436 
 109   0.0000       0.166577         4.5328 
 110   0.0000       0.190837         5.1929 
 111   0.0000       0.209709         5.7065 
 112   0.0000       0.260869         7.0986 
 113   0.0000       0.397719        10.8225 
 114   0.0000       0.412913        11.2359 
 115   0.0000       0.415450        11.3050 
 116   0.0000       0.429457        11.6861 
 117   0.0000       0.452158        12.3038 
 118   0.0000       0.457814        12.4578 
 119   0.0000       0.465762        12.6740 
 120   0.0000       0.509158        13.8549 
 121   0.0000       0.524584        14.2746 
 122   0.0000       0.534162        14.5353 
 123   0.0000       0.536495        14.5988 
 124   0.0000       0.554719        15.0947 
 125   0.0000       0.565138        15.3782 
 126   0.0000       0.592993        16.1361 
 127   0.0000       0.605328        16.4718 
 128   0.0000       0.610666        16.6171 
 129   0.0000       0.634940        17.2776 
 130   0.0000       0.647390        17.6164 
 131   0.0000       0.670369        18.2417 
 132   0.0000       0.711753        19.3678 
 133   0.0000       0.721857        19.6427 
 134   0.0000       0.723858        19.6972 
 135   0.0000       0.731412        19.9027 
 136   0.0000       0.743128        20.2215 
 137   0.0000       0.773750        21.0548 
 138   0.0000       0.779157        21.2019 
 139   0.0000       0.871910        23.7259 
 140   0.0000       0.913902        24.8685 
 141   0.0000       0.931070        25.3357 
 142   0.0000       0.933933        25.4136 
 143   0.0000       0.936003        25.4699 
 144   0.0000       0.977003        26.5856 
 145   0.0000       0.983624        26.7658 
 146   0.0000       1.059932        28.8422 
 147   0.0000       1.116280        30.3755 
 148   0.0000       2.351709        63.9933 
 149   0.0000       2.556374        69.5625 
 150   0.0000       2.658435        72.3397 
 151   0.0000       2.744474        74.6809 
 152   0.0000       2.754430        74.9518 
 153   0.0000       2.760591        75.1195 
 154   0.0000       2.803819        76.2958 
 155   0.0000       2.826828        76.9219 
 156   0.0000       2.830205        77.0138 
 157   0.0000       2.832341        77.0719 
 158   0.0000       2.891513        78.6821 
 159   0.0000       2.942120        80.0591 
 160   0.0000       2.950350        80.2831 
 161   0.0000       2.982392        81.1550 
 162   0.0000       3.012150        81.9648 
 163   0.0000       3.046611        82.9025 
 164   0.0000       3.050904        83.0193 
 165   0.0000       3.070770        83.5599 
 166   0.0000       3.075286        83.6828 
 167   0.0000       3.154915        85.8496 
 168   0.0000       3.162143        86.0463 
 169   0.0000       3.162870        86.0661 
 170   0.0000       3.169181        86.2378 
 171   0.0000       3.176992        86.4503 
 172   0.0000       3.179732        86.5249 
 173   0.0000       3.180667        86.5503 
 174   0.0000       3.184025        86.6417 
 175   0.0000       3.184387        86.6516 
 176   0.0000       3.185418        86.6796 
 177   0.0000       3.185811        86.6903 
 178   0.0000       3.186677        86.7139 
 179   0.0000       3.192196        86.8641 
 180   0.0000       3.194038        86.9142 
 181   0.0000       3.194791        86.9347 
 182   0.0000       3.207076        87.2690 
 183   0.0000       3.213272        87.4376 
 184   0.0000       3.219284        87.6012 
 185   0.0000       3.232927        87.9724 
 186   0.0000       3.251540        88.4789 
 187   0.0000       3.261668        88.7545 
 188   0.0000       3.270764        89.0020 
 189   0.0000       3.297127        89.7194 
 190   0.0000       3.392465        92.3137 
 191   0.0000       3.399088        92.4939 
 192   0.0000       3.404234        92.6339 
 193   0.0000       3.420260        93.0700 
 194   0.0000       3.499315        95.2212 
 195   0.0000       3.506228        95.4093 
 196   0.0000       3.514365        95.6307 
 197   0.0000       3.516428        95.6869 
 198   0.0000       3.559413        96.8566 
 199   0.0000       3.575210        97.2864 
 200   0.0000       3.578894        97.3867 
 201   0.0000       3.584363        97.5355 
 202   0.0000       3.586393        97.5907 
 203   0.0000       3.614258        98.3490 
 204   0.0000       3.658024        99.5399 
 205   0.0000       3.685529       100.2883 
 206   0.0000       3.685923       100.2991 
 207   0.0000       3.691097       100.4399 
 208   0.0000       3.740845       101.7936 
 209   0.0000       3.742792       101.8465 
 210   0.0000       3.759945       102.3133 
 211   0.0000       3.773842       102.6915 
 212   0.0000       3.789665       103.1220 
 213   0.0000       3.831878       104.2707 
 214   0.0000       3.854337       104.8818 
 215   0.0000       3.932550       107.0101 
 216   0.0000       4.108992       111.8114 
 217   0.0000       4.120562       112.1262 
 218   0.0000       4.176218       113.6407 
 219   0.0000       4.530224       123.2737 
 220   0.0000       4.716229       128.3351 
 221   0.0000      12.870125       350.2139 
 222   0.0000      12.872120       350.2682 
 223   0.0000      12.872333       350.2740 
 224   0.0000      12.873127       350.2956 
 225   0.0000      12.873318       350.3008 
 226   0.0000      12.873712       350.3115 
 227   0.0000      12.875163       350.3510 
 228   0.0000      12.875424       350.3581 
 229   0.0000      12.876575       350.3894 
 230   0.0000      12.876638       350.3911 
 231   0.0000      12.876844       350.3967 
 232   0.0000      12.877060       350.4026 
 233   0.0000      12.877422       350.4125 
 234   0.0000      12.877488       350.4143 
 235   0.0000      12.877742       350.4212 
 236   0.0000      12.877992       350.4280 
 237   0.0000      12.878362       350.4380 
 238   0.0000      12.881428       350.5215 
 239   0.0000      12.893453       350.8487 
 240   0.0000      12.893512       350.8503 
 241   0.0000      12.893648       350.8540 
 242   0.0000      12.893698       350.8553 
 243   0.0000      12.893768       350.8573 
 244   0.0000      12.893954       350.8623 
 245   0.0000      12.893987       350.8632 
 246   0.0000      12.894178       350.8684 
 247   0.0000      12.894207       350.8692 
 248   0.0000      12.894299       350.8717 
 249   0.0000      12.894427       350.8752 
 250   0.0000      12.894919       350.8886 
 251   0.0000      12.895058       350.8924 
 252   0.0000      12.895099       350.8935 
 253   0.0000      12.895146       350.8948 
 254   0.0000      12.895166       350.8953 
 255   0.0000      12.895210       350.8965 
 256   0.0000      12.895305       350.8991 
 257   0.0000      13.080762       355.9456 
 258   0.0000      13.080881       355.9489 
 259   0.0000      13.085921       356.0860 
 260   0.0000      13.086183       356.0931 
 261   0.0000      13.087808       356.1374 
 262   0.0000      13.089241       356.1763 
 263   0.0000      13.091078       356.2263 
 264   0.0000      13.099807       356.4639 
 265   0.0000      13.100667       356.4873 
 266   0.0000      13.100755       356.4897 
 267   0.0000      13.102139       356.5273 
 268   0.0000      13.102581       356.5393 
 269   0.0000      13.103357       356.5605 
 270   0.0000      13.103804       356.5726 
 271   0.0000      13.104380       356.5883 
 272   0.0000      13.107447       356.6718 
 273   0.0000      13.108802       356.7086 
 274   0.0000      13.113613       356.8395 
 275   0.0000      13.120511       357.0272 
 276   0.0000      13.122489       357.0811 
 277   0.0000      13.130846       357.3085 
 278   0.0000      13.139552       357.5454 
 279   0.0000      13.143567       357.6546 
 280   0.0000      13.146826       357.7433 
 281   0.0000      13.164606       358.2271 
 282   0.0000      13.188033       358.8646 
 283   0.0000      13.332003       362.7822 
 284   0.0000      13.344417       363.1200 

                 SPIN DOWN ORBITALS
  NO   OCC          E(Eh)            E(eV) 
   0   1.0000    -325.855353     -8866.9749 
   1   1.0000    -325.855342     -8866.9746 
   2   1.0000    -325.835983     -8866.4479 
   3   1.0000    -325.835949     -8866.4469 
   4   1.0000     -40.064389     -1090.2074 
   5   1.0000     -40.064369     -1090.2069 
   6   1.0000     -40.043632     -1089.6426 
   7   1.0000     -40.043611     -1089.6421 
   8   1.0000     -35.100109      -955.1225 
   9   1.0000     -35.100092      -955.1221 
  10   1.0000     -35.100086      -955.1219 
  11   1.0000     -35.100072      -955.1215 
  12   1.0000     -35.099624      -955.1093 
  13   1.0000     -35.099605      -955.1088 
  14   1.0000     -35.079807      -954.5701 
  15   1.0000     -35.079785      -954.5695 
  16   1.0000     -35.079775      -954.5692 
  17   1.0000     -35.079756      -954.5687 
  18   1.0000     -35.079344      -954.5575 
  19   1.0000     -35.079333      -954.5572 
  20   1.0000      -5.010116      -136.3322 
  21   1.0000      -5.009782      -136.3231 
  22   1.0000      -4.994187      -135.8987 
  23   1.0000      -4.993824      -135.8889 
  24   1.0000      -3.428884       -93.3047 
  25   1.0000      -3.427999       -93.2806 
  26   1.0000      -3.427730       -93.2733 
  27   1.0000      -3.426547       -93.2411 
  28   1.0000      -3.425875       -93.2228 
  29   1.0000      -3.424829       -93.1943 
  30   1.0000      -3.415198       -92.9323 
  31   1.0000      -3.413687       -92.8911 
  32   1.0000      -3.413246       -92.8792 
  33   1.0000      -3.412856       -92.8685 
  34   1.0000      -3.412658       -92.8631 
  35   1.0000      -3.411268       -92.8253 
  36   1.0000      -0.833997       -22.6942 
  37   1.0000      -0.821117       -22.3437 
  38   1.0000      -0.806562       -21.9477 
  39   1.0000      -0.804652       -21.8957 
  40   1.0000      -0.800159       -21.7734 
  41   1.0000      -0.792697       -21.5704 
  42   1.0000      -0.792219       -21.5574 
  43   1.0000      -0.790367       -21.5070 
  44   1.0000      -0.779531       -21.2121 
  45   1.0000      -0.773208       -21.0401 
  46   1.0000      -0.771934       -21.0054 
  47   1.0000      -0.771440       -20.9920 
  48   1.0000      -0.767984       -20.8979 
  49   1.0000      -0.763903       -20.7869 
  50   1.0000      -0.762574       -20.7507 
  51   1.0000      -0.758451       -20.6385 
  52   1.0000      -0.756597       -20.5881 
  53   1.0000      -0.749035       -20.3823 
  54   1.0000      -0.739951       -20.1351 
  55   1.0000      -0.723788       -19.6953 
  56   1.0000      -0.717831       -19.5332 
  57   0.0000      -0.475906       -12.9501 
  58   0.0000      -0.410469       -11.1694 
  59   0.0000      -0.408341       -11.1115 
  60   0.0000      -0.332448        -9.0464 
  61   0.0000      -0.306422        -8.3382 
  62   0.0000      -0.287180        -7.8146 
  63   0.0000      -0.287009        -7.8099 
  64   0.0000      -0.279619        -7.6088 
  65   0.0000      -0.270129        -7.3506 
  66   0.0000      -0.185326        -5.0430 
  67   0.0000      -0.177222        -4.8225 
  68   0.0000      -0.174833        -4.7574 
  69   0.0000      -0.162182        -4.4132 
  70   0.0000      -0.160375        -4.3640 
  71   0.0000      -0.158975        -4.3259 
  72   0.0000      -0.148482        -4.0404 
  73   0.0000      -0.136400        -3.7116 
  74   0.0000      -0.124357        -3.3839 
  75   0.0000      -0.112360        -3.0575 
  76   0.0000      -0.111773        -3.0415 
  77   0.0000      -0.111398        -3.0313 
  78   0.0000      -0.109328        -2.9750 
  79   0.0000      -0.108340        -2.9481 
  80   0.0000      -0.100565        -2.7365 
  81   0.0000      -0.096378        -2.6226 
  82   0.0000      -0.046788        -1.2732 
  83   0.0000      -0.045499        -1.2381 
  84   0.0000      -0.045136        -1.2282 
  85   0.0000      -0.042610        -1.1595 
  86   0.0000      -0.039512        -1.0752 
  87   0.0000      -0.032343        -0.8801 
  88   0.0000      -0.014179        -0.3858 
  89   0.0000      -0.012067        -0.3284 
  90   0.0000      -0.005783        -0.1574 
  91   0.0000      -0.005458        -0.1485 
  92   0.0000       0.005703         0.1552 
  93   0.0000       0.008294         0.2257 
  94   0.0000       0.015835         0.4309 
  95   0.0000       0.027391         0.7453 
  96   0.0000       0.027687         0.7534 
  97   0.0000       0.052935         1.4404 
  98   0.0000       0.083752         2.2790 
  99   0.0000       0.085020         2.3135 
 100   0.0000       0.085619         2.3298 
 101   0.0000       0.088891         2.4189 
 102   0.0000       0.103306         2.8111 
 103   0.0000       0.120569         3.2808 
 104   0.0000       0.131362         3.5745 
 105   0.0000       0.154258         4.1976 
 106   0.0000       0.158962         4.3256 
 107   0.0000       0.165823         4.5123 
 108   0.0000       0.166822         4.5395 
 109   0.0000       0.168420         4.5829 
 110   0.0000       0.194927         5.3042 
 111   0.0000       0.209897         5.7116 
 112   0.0000       0.272128         7.4050 
 113   0.0000       0.401087        10.9141 
 114   0.0000       0.418493        11.3878 
 115   0.0000       0.419514        11.4156 
 116   0.0000       0.430515        11.7149 
 117   0.0000       0.457387        12.4461 
 118   0.0000       0.464557        12.6412 
 119   0.0000       0.469472        12.7750 
 120   0.0000       0.515925        14.0390 
 121   0.0000       0.527140        14.3442 
 122   0.0000       0.534877        14.5547 
 123   0.0000       0.538399        14.6506 
 124   0.0000       0.563707        15.3392 
 125   0.0000       0.566299        15.4098 
 126   0.0000       0.596096        16.2206 
 127   0.0000       0.614033        16.7087 
 128   0.0000       0.619586        16.8598 
 129   0.0000       0.641121        17.4458 
 130   0.0000       0.649367        17.6702 
 131   0.0000       0.674846        18.3635 
 132   0.0000       0.714928        19.4542 
 133   0.0000       0.724361        19.7109 
 134   0.0000       0.726544        19.7703 
 135   0.0000       0.736001        20.0276 
 136   0.0000       0.749029        20.3821 
 137   0.0000       0.776292        21.1240 
 138   0.0000       0.785353        21.3706 
 139   0.0000       0.885142        24.0860 
 140   0.0000       0.927318        25.2336 
 141   0.0000       0.935423        25.4542 
 142   0.0000       0.936482        25.4830 
 143   0.0000       0.942061        25.6348 
 144   0.0000       0.981734        26.7143 
 145   0.0000       0.989087        26.9144 
 146   0.0000       1.071332        29.1524 
 147   0.0000       1.128815        30.7166 
 148   0.0000       2.390410        65.0464 
 149   0.0000       2.567678        69.8701 
 150   0.0000       2.671811        72.7037 
 151   0.0000       2.760554        75.1185 
 152   0.0000       2.767948        75.3197 
 153   0.0000       2.776465        75.5514 
 154   0.0000       2.815245        76.6067 
 155   0.0000       2.829006        76.9812 
 156   0.0000       2.832509        77.0765 
 157   0.0000       2.835997        77.1714 
 158   0.0000       2.896307        78.8125 
 159   0.0000       2.943439        80.0950 
 160   0.0000       2.953442        80.3673 
 161   0.0000       2.989871        81.3585 
 162   0.0000       3.013724        82.0076 
 163   0.0000       3.050588        83.0107 
 164   0.0000       3.052765        83.0700 
 165   0.0000       3.075195        83.6803 
 166   0.0000       3.079697        83.8028 
 167   0.0000       3.155699        85.8709 
 168   0.0000       3.163567        86.0850 
 169   0.0000       3.163735        86.0896 
 170   0.0000       3.172720        86.3341 
 171   0.0000       3.178395        86.4885 
 172   0.0000       3.179941        86.5306 
 173   0.0000       3.182132        86.5902 
 174   0.0000       3.186317        86.7041 
 175   0.0000       3.187108        86.7256 
 176   0.0000       3.187429        86.7343 
 177   0.0000       3.187894        86.7470 
 178   0.0000       3.189705        86.7963 
 179   0.0000       3.194171        86.9178 
 180   0.0000       3.194841        86.9360 
 181   0.0000       3.196891        86.9918 
 182   0.0000       3.209761        87.3420 
 183   0.0000       3.214628        87.4745 
 184   0.0000       3.220539        87.6353 
 185   0.0000       3.234848        88.0247 
 186   0.0000       3.255565        88.5884 
 187   0.0000       3.263797        88.8124 
 188   0.0000       3.272520        89.0498 
 189   0.0000       3.302483        89.8651 
 190   0.0000       3.400902        92.5432 
 191   0.0000       3.402734        92.5931 
 192   0.0000       3.407118        92.7124 
 193   0.0000       3.437754        93.5460 
 194   0.0000       3.501361        95.2769 
 195   0.0000       3.508923        95.4826 
 196   0.0000       3.518602        95.7460 
 197   0.0000       3.522775        95.8596 
 198   0.0000       3.562297        96.9350 
 199   0.0000       3.579893        97.4138 
 200   0.0000       3.586103        97.5828 
 201   0.0000       3.593573        97.7861 
 202   0.0000       3.593689        97.7892 
 203   0.0000       3.624880        98.6380 
 204   0.0000       3.666366        99.7669 
 205   0.0000       3.687140       100.3322 
 206   0.0000       3.687559       100.3436 
 207   0.0000       3.702957       100.7626 
 208   0.0000       3.749479       102.0285 
 209   0.0000       3.756650       102.2236 
 210   0.0000       3.762231       102.3755 
 211   0.0000       3.782990       102.9404 
 212   0.0000       3.796046       103.2957 
 213   0.0000       3.856522       104.9413 
 214   0.0000       3.870102       105.3108 
 215   0.0000       3.954623       107.6108 
 216   0.0000       4.112659       111.9111 
 217   0.0000       4.125432       112.2587 
 218   0.0000       4.184147       113.8564 
 219   0.0000       4.553169       123.8980 
 220   0.0000       4.737970       128.9267 
 221   0.0000      12.876880       350.3977 
 222   0.0000      12.877077       350.4031 
 223   0.0000      12.877208       350.4067 
 224   0.0000      12.877261       350.4081 
 225   0.0000      12.877273       350.4084 
 226   0.0000      12.877460       350.4135 
 227   0.0000      12.877602       350.4174 
 228   0.0000      12.877998       350.4281 
 229   0.0000      12.878878       350.4521 
 230   0.0000      12.880402       350.4936 
 231   0.0000      12.880426       350.4942 
 232   0.0000      12.880653       350.5004 
 233   0.0000      12.881148       350.5139 
 234   0.0000      12.881201       350.5153 
 235   0.0000      12.883621       350.5812 
 236   0.0000      12.883900       350.5887 
 237   0.0000      12.887556       350.6882 
 238   0.0000      12.890936       350.7802 
 239   0.0000      12.892930       350.8345 
 240   0.0000      12.893088       350.8388 
 241   0.0000      12.893128       350.8399 
 242   0.0000      12.893176       350.8412 
 243   0.0000      12.893339       350.8456 
 244   0.0000      12.893519       350.8505 
 245   0.0000      12.893575       350.8520 
 246   0.0000      12.893815       350.8585 
 247   0.0000      12.893935       350.8618 
 248   0.0000      12.893949       350.8622 
 249   0.0000      12.894054       350.8650 
 250   0.0000      12.894431       350.8753 
 251   0.0000      12.894643       350.8811 
 252   0.0000      12.894739       350.8837 
 253   0.0000      12.894744       350.8838 
 254   0.0000      12.894775       350.8847 
 255   0.0000      12.894819       350.8859 
 256   0.0000      12.894959       350.8897 
 257   0.0000      13.082259       355.9864 
 258   0.0000      13.085848       356.0840 
 259   0.0000      13.087822       356.1377 
 260   0.0000      13.089076       356.1719 
 261   0.0000      13.091622       356.2411 
 262   0.0000      13.094980       356.3325 
 263   0.0000      13.096760       356.3810 
 264   0.0000      13.100520       356.4833 
 265   0.0000      13.101182       356.5013 
 266   0.0000      13.101732       356.5163 
 267   0.0000      13.101817       356.5186 
 268   0.0000      13.101967       356.5226 
 269   0.0000      13.102471       356.5364 
 270   0.0000      13.104204       356.5835 
 271   0.0000      13.108282       356.6945 
 272   0.0000      13.108569       356.7023 
 273   0.0000      13.113493       356.8363 
 274   0.0000      13.114812       356.8722 
 275   0.0000      13.123056       357.0965 
 276   0.0000      13.124657       357.1401 
 277   0.0000      13.131353       357.3223 
 278   0.0000      13.144808       357.6884 
 279   0.0000      13.151228       357.8631 
 280   0.0000      13.156846       358.0160 
 281   0.0000      13.170662       358.3919 
 282   0.0000      13.188702       358.8828 
 283   0.0000      13.347467       363.2031 
 284   0.0000      13.361357       363.5810 

                    ********************************
                    * MULLIKEN POPULATION ANALYSIS *
                    ********************************

--------------------------------------------
MULLIKEN ATOMIC CHARGES AND SPIN POPULATIONS
--------------------------------------------
   0 Cu:    0.427516    0.276384
   1 Cu:    0.426770    0.279659
   2 Cu:    0.373947    0.021629
   3 Cu:    0.373681    0.021653
   4 H :    0.398085    0.400675
Sum of atomic charges         :    2.0000000
Sum of atomic spin populations:    1.0000000

-----------------------------------------------------
MULLIKEN REDUCED ORBITAL CHARGES AND SPIN POPULATIONS
-----------------------------------------------------
CHARGE
  0 Cus       :     6.526512  s :     6.526512
      pz      :     4.087716  p :    12.128226
      px      :     4.029309
      py      :     4.011202
      dz2     :     1.972200  d :     9.917585
      dxz     :     1.988180
      dyz     :     1.985971
      dx2y2   :     1.989768
      dxy     :     1.981465
      f0      :     0.000035  f :     0.000161
      f+1     :     0.000038
      f-1     :     0.000030
      f+2     :     0.000017
      f-2     :     0.000015
      f+3     :     0.000015
      f-3     :     0.000011
      g0      :     0.000000  g :     0.000001
      g+1     :     0.000000
      g-1     :     0.000000
      g+2     :     0.000000
      g-2     :     0.000000
      g+3     :     0.000000
      g-3     :     0.000000
      g+4     :     0.000000
      g-4     :     0.000000
  1 Cus       :     6.527407  s :     6.527407
      pz      :     4.086651  p :    12.128042
      px      :     4.030243
      py      :     4.011148
      dz2     :     1.972051  d :     9.917620
      dxz     :     1.988324
      dyz     :     1.986021
      dx2y2   :     1.989869
      dxy     :     1.981356
      f0      :     0.000035  f :     0.000160
      f+1     :     0.000038
      f-1     :     0.000030
      f+2     :     0.000017
      f-2     :     0.000015
      f+3     :     0.000015
      f-3     :     0.000011
      g0      :     0.000000  g :     0.000001
      g+1     :     0.000000
      g-1     :     0.000000
      g+2     :     0.000000
      g-2     :     0.000000
      g+3     :     0.000000
      g-3     :     0.000000
      g+4     :     0.000000
      g-4     :     0.000000
  2 Cus       :     6.580869  s :     6.580869
      pz      :     4.011853  p :    12.222385
      px      :     4.055513
      py      :     4.155019
      dz2     :     1.983147  d :     9.822446
      dxz     :     1.981872
      dyz     :     1.987506
      dx2y2   :     1.978477
      dxy     :     1.891444
      f0      :     0.000017  f :     0.000350
      f+1     :     0.000053
      f-1     :     0.000064
      f+2     :     0.000030
      f-2     :     0.000019
      f+3     :     0.000116
      f-3     :     0.000051
      g0      :     0.000000  g :     0.000002
      g+1     :     0.000000
      g-1     :     0.000000
      g+2     :     0.000000
      g-2     :     0.000000
      g+3     :     0.000000
      g-3     :     0.000000
      g+4     :     0.000001
      g-4     :     0.000000
  3 Cus       :     6.581038  s :     6.581038
      pz      :     4.011663  p :    12.222491
      px      :     4.055770
      py      :     4.155059
      dz2     :     1.983112  d :     9.822437
      dxz     :     1.982007
      dyz     :     1.987496
      dx2y2   :     1.978570
      dxy     :     1.891252
      f0      :     0.000016  f :     0.000350
      f+1     :     0.000053
      f-1     :     0.000064
      f+2     :     0.000030
      f-2     :     0.000019
      f+3     :     0.000116
      f-3     :     0.000052
      g0      :     0.000000  g :     0.000002
      g+1     :     0.000000
      g-1     :     0.000000
      g+2     :     0.000000
      g-2     :     0.000000
      g+3     :     0.000000
      g-3     :     0.000000
      g+4     :     0.000001
      g-4     :     0.000000
  4 H s       :     0.663673  s :     0.663673
      pz      :     0.005167  p :    -0.065011
      px      :    -0.072394
      py      :     0.002215
      dz2     :     0.000624  d :     0.003253
      dxz     :     0.000378
      dyz     :     0.000269
      dx2y2   :     0.000646
      dxy     :     0.001337

SPIN
  0 Cus       :     0.242106  s :     0.242106
      pz      :     0.046975  p :     0.037836
      px      :    -0.010987
      py      :     0.001847
      dz2     :     0.000604  d :    -0.003561
      dxz     :    -0.001881
      dyz     :    -0.002153
      dx2y2   :     0.000918
      dxy     :    -0.001049
      f0      :     0.000001  f :     0.000003
      f+1     :     0.000001
      f-1     :     0.000001
      f+2     :     0.000001
      f-2     :    -0.000001
      f+3     :     0.000002
      f-3     :    -0.000001
      g0      :     0.000000  g :     0.000000
      g+1     :    -0.000000
      g-1     :     0.000000
      g+2     :    -0.000000
      g-2     :    -0.000000
      g+3     :     0.000000
      g-3     :    -0.000000
      g+4     :     0.000000
      g-4     :     0.000000
  1 Cus       :     0.245283  s :     0.245283
      pz      :     0.046999  p :     0.038146
      px      :    -0.010726
      py      :     0.001872
      dz2     :     0.000450  d :    -0.003773
      dxz     :    -0.001904
      dyz     :    -0.002146
      dx2y2   :     0.000910
      dxy     :    -0.001083
      f0      :     0.000001  f :     0.000003
      f+1     :     0.000001
      f-1     :     0.000001
      f+2     :     0.000001
      f-2     :    -0.000001
      f+3     :     0.000002
      f-3     :    -0.000001
      g0      :     0.000000  g :     0.000000
      g+1     :    -0.000000
      g-1     :     0.000000
      g+2     :    -0.000000
      g-2     :    -0.000000
      g+3     :     0.000000
      g-3     :    -0.000000
      g+4     :     0.000000
      g-4     :     0.000000
  2 Cus       :    -0.082165  s :    -0.082165
      pz      :    -0.000767  p :     0.022875
      px      :     0.039432
      py      :    -0.015790
      dz2     :     0.006963  d :     0.080881
      dxz     :    -0.000070
      dyz     :     0.000368
      dx2y2   :     0.002966
      dxy     :     0.070656
      f0      :     0.000000  f :     0.000037
      f+1     :     0.000011
      f-1     :     0.000007
      f+2     :    -0.000000
      f-2     :    -0.000000
      f+3     :     0.000016
      f-3     :     0.000003
      g0      :     0.000000  g :     0.000001
      g+1     :     0.000000
      g-1     :     0.000000
      g+2     :     0.000000
      g-2     :     0.000000
      g+3     :     0.000000
      g-3     :    -0.000000
      g+4     :     0.000000
      g-4     :     0.000000
  3 Cus       :    -0.082168  s :    -0.082168
      pz      :    -0.000774  p :     0.022905
      px      :     0.039582
      py      :    -0.015903
      dz2     :     0.007016  d :     0.080878
      dxz     :    -0.000158
      dyz     :     0.000297
      dx2y2   :     0.002817
      dxy     :     0.070907
      f0      :     0.000000  f :     0.000037
      f+1     :     0.000011
      f-1     :     0.000007
      f+2     :    -0.000000
      f-2     :    -0.000000
      f+3     :     0.000016
      f-3     :     0.000003
      g0      :     0.000000  g :     0.000001
      g+1     :     0.000000
      g-1     :     0.000000
      g+2     :     0.000000
      g-2     :     0.000000
      g+3     :     0.000000
      g-3     :    -0.000000
      g+4     :     0.000000
      g-4     :     0.000000
  4 H s       :     0.397167  s :     0.397167
      pz      :     0.000938  p :     0.003611
      px      :     0.002187
      py      :     0.000486
      dz2     :    -0.000063  d :    -0.000103
      dxz     :     0.000002
      dyz     :     0.000017
      dx2y2   :     0.000057
      dxy     :    -0.000116


                     *******************************
                     * LOEWDIN POPULATION ANALYSIS *
                     *******************************

-------------------------------------------
LOEWDIN ATOMIC CHARGES AND SPIN POPULATIONS
-------------------------------------------
   0 Cu:    0.519660    0.132212
   1 Cu:    0.520066    0.132291
   2 Cu:    0.467114    0.269048
   3 Cu:    0.466945    0.269140
   4 H :    0.026215    0.197310

----------------------------------------------------
LOEWDIN REDUCED ORBITAL CHARGES AND SPIN POPULATIONS
----------------------------------------------------
CHARGE
  0 Cus       :     6.250585  s :     6.250585
      pz      :     4.122106  p :    12.222911
      px      :     4.084327
      py      :     4.016478
      dz2     :     2.001204  d :    10.006410
      dxz     :     2.009906
      dyz     :     1.991773
      dx2y2   :     2.009333
      dxy     :     1.994193
      f0      :     0.000138  f :     0.000433
      f+1     :     0.000071
      f-1     :     0.000063
      f+2     :     0.000036
      f-2     :     0.000059
      f+3     :     0.000024
      f-3     :     0.000042
      g0      :     0.000000  g :     0.000001
      g+1     :     0.000000
      g-1     :     0.000000
      g+2     :     0.000000
      g-2     :     0.000000
      g+3     :     0.000000
      g-3     :     0.000000
      g+4     :     0.000000
      g-4     :     0.000000
  1 Cus       :     6.251145  s :     6.251145
      pz      :     4.121424  p :    12.222278
      px      :     4.084409
      py      :     4.016445
      dz2     :     2.000923  d :    10.006077
      dxz     :     2.009861
      dyz     :     1.991789
      dx2y2   :     2.009351
      dxy     :     1.994153
      f0      :     0.000138  f :     0.000433
      f+1     :     0.000071
      f-1     :     0.000062
      f+2     :     0.000036
      f-2     :     0.000058
      f+3     :     0.000025
      f-3     :     0.000042
      g0      :     0.000000  g :     0.000001
      g+1     :     0.000000
      g-1     :     0.000000
      g+2     :     0.000000
      g-2     :     0.000000
      g+3     :     0.000000
      g-3     :     0.000000
      g+4     :     0.000000
      g-4     :     0.000000
  2 Cus       :     6.230082  s :     6.230082
      pz      :     4.015524  p :    12.384356
      px      :     4.209501
      py      :     4.159331
      dz2     :     1.998406  d :     9.917515
      dxz     :     1.992431
      dyz     :     1.988290
      dx2y2   :     1.985320
      dxy     :     1.953068
      f0      :     0.000049  f :     0.000930
      f+1     :     0.000118
      f-1     :     0.000170
      f+2     :     0.000058
      f-2     :     0.000068
      f+3     :     0.000302
      f-3     :     0.000165
      g0      :     0.000000  g :     0.000003
      g+1     :     0.000000
      g-1     :     0.000000
      g+2     :     0.000000
      g-2     :     0.000001
      g+3     :     0.000000
      g-3     :     0.000000
      g+4     :     0.000001
      g-4     :     0.000000
  3 Cus       :     6.230132  s :     6.230132
      pz      :     4.015409  p :    12.384475
      px      :     4.209658
      py      :     4.159408
      dz2     :     1.998397  d :     9.917515
      dxz     :     1.992490
      dyz     :     1.988321
      dx2y2   :     1.985285
      dxy     :     1.953023
      f0      :     0.000048  f :     0.000930
      f+1     :     0.000119
      f-1     :     0.000171
      f+2     :     0.000058
      f-2     :     0.000067
      f+3     :     0.000301
      f-3     :     0.000166
      g0      :     0.000000  g :     0.000003
      g+1     :     0.000000
      g-1     :     0.000000
      g+2     :     0.000000
      g-2     :     0.000001
      g+3     :     0.000000
      g-3     :     0.000000
      g+4     :     0.000001
      g-4     :     0.000000
  4 H s       :     0.777343  s :     0.777343
      pz      :     0.022567  p :     0.178054
      px      :     0.097699
      py      :     0.057788
      dz2     :     0.002296  d :     0.018388
      dxz     :     0.002236
      dyz     :     0.002414
      dx2y2   :     0.004202
      dxy     :     0.007239

SPIN
  0 Cus       :     0.099294  s :     0.099294
      pz      :     0.030899  p :     0.024185
      px      :    -0.007794
      py      :     0.001080
      dz2     :     0.007243  d :     0.008728
      dxz     :    -0.002585
      dyz     :    -0.002090
      dx2y2   :     0.007354
      dxy     :    -0.001194
      f0      :     0.000005  f :     0.000005
      f+1     :     0.000001
      f-1     :     0.000002
      f+2     :     0.000003
      f-2     :    -0.000005
      f+3     :     0.000002
      f-3     :    -0.000004
      g0      :     0.000000  g :    -0.000000
      g+1     :     0.000000
      g-1     :     0.000000
      g+2     :    -0.000000
      g-2     :    -0.000000
      g+3     :     0.000000
      g-3     :    -0.000000
      g+4     :    -0.000000
      g-4     :    -0.000000
  1 Cus       :     0.100363  s :     0.100363
      pz      :     0.030550  p :     0.023676
      px      :    -0.007984
      py      :     0.001111
      dz2     :     0.006897  d :     0.008247
      dxz     :    -0.002631
      dyz     :    -0.002091
      dx2y2   :     0.007296
      dxy     :    -0.001224
      f0      :     0.000005  f :     0.000005
      f+1     :     0.000001
      f-1     :     0.000002
      f+2     :     0.000002
      f-2     :    -0.000005
      f+3     :     0.000002
      f-3     :    -0.000004
      g0      :     0.000000  g :    -0.000000
      g+1     :     0.000000
      g-1     :     0.000000
      g+2     :    -0.000000
      g-2     :    -0.000000
      g+3     :     0.000000
      g-3     :    -0.000000
      g+4     :    -0.000000
      g-4     :    -0.000000
  2 Cus       :    -0.013231  s :    -0.013231
      pz      :     0.000394  p :     0.153603
      px      :     0.149798
      py      :     0.003411
      dz2     :     0.010137  d :     0.128466
      dxz     :     0.000846
      dyz     :     0.001006
      dx2y2   :     0.005591
      dxy     :     0.110886
      f0      :     0.000003  f :     0.000210
      f+1     :     0.000038
      f-1     :     0.000047
      f+2     :     0.000000
      f-2     :     0.000005
      f+3     :     0.000089
      f-3     :     0.000029
      g0      :     0.000000  g :     0.000001
      g+1     :     0.000000
      g-1     :     0.000000
      g+2     :     0.000000
      g-2     :     0.000000
      g+3     :     0.000000
      g-3     :    -0.000000
      g+4     :     0.000000
      g-4     :    -0.000000
  3 Cus       :    -0.013218  s :    -0.013218
      pz      :     0.000376  p :     0.153692
      px      :     0.149983
      py      :     0.003332
      dz2     :     0.010203  d :     0.128456
      dxz     :     0.000726
      dyz     :     0.000917
      dx2y2   :     0.005379
      dxy     :     0.111231
      f0      :     0.000002  f :     0.000210
      f+1     :     0.000038
      f-1     :     0.000047
      f+2     :     0.000000
      f-2     :     0.000004
      f+3     :     0.000088
      f-3     :     0.000029
      g0      :     0.000000  g :     0.000001
      g+1     :     0.000000
      g-1     :     0.000000
      g+2     :     0.000000
      g-2     :     0.000000
      g+3     :     0.000000
      g-3     :    -0.000000
      g+4     :     0.000000
      g-4     :    -0.000000
  4 H s       :     0.198601  s :     0.198601
      pz      :     0.000420  p :    -0.001090
      px      :    -0.000078
      py      :    -0.001432
      dz2     :     0.000097  d :    -0.000201
      dxz     :    -0.000027
      dyz     :     0.000007
      dx2y2   :     0.000070
      dxy     :    -0.000349


                      *****************************
                      * MAYER POPULATION ANALYSIS *
                      *****************************

  NA   - Mulliken gross atomic population
  ZA   - Total nuclear charge
  QA   - Mulliken gross atomic charge
  VA   - Mayer's total valence
  BVA  - Mayer's bonded valence
  FA   - Mayer's free valence

  ATOM       NA         ZA         QA         VA         BVA        FA
  0 Cu    28.5725    29.0000     0.4275     1.0119     0.9198     0.0922
  1 Cu    28.5732    29.0000     0.4268     1.0129     0.9191     0.0938
  2 Cu    28.6261    29.0000     0.3739     1.2988     1.2496     0.0492
  3 Cu    28.6263    29.0000     0.3737     1.2992     1.2500     0.0492
  4 H      0.6019     1.0000     0.3981     0.5359     0.3913     0.1445

  Mayer bond orders larger than 0.100000
B(  0-Cu,  1-Cu) :   0.5124 B(  0-Cu,  2-Cu) :   0.2285 B(  0-Cu,  3-Cu) :   0.2287 
B(  1-Cu,  2-Cu) :   0.2273 B(  1-Cu,  3-Cu) :   0.2278 B(  2-Cu,  3-Cu) :   0.5487 
B(  2-Cu,  4-H ) :   0.2450 B(  3-Cu,  4-H ) :   0.2448 

-------
TIMINGS
-------

Total SCF time: 0 days 0 hours 0 min 19 sec 

Total time                  ....      19.650 sec
Sum of individual times     ....      19.397 sec  ( 98.7%)

Fock matrix formation       ....      18.246 sec  ( 92.9%)
  XC integration            ....       1.087 sec  (  6.0% of F)
    Basis function eval.    ....       0.107 sec  (  9.9% of XC)
    Density eval.           ....       0.167 sec  ( 15.3% of XC)
    XC-Functional eval.     ....       0.028 sec  (  2.5% of XC)
    XC-Potential eval.      ....       0.302 sec  ( 27.8% of XC)
Diagonalization             ....       0.415 sec  (  2.1%)
Density matrix formation    ....       0.037 sec  (  0.2%)
Population analysis         ....       0.025 sec  (  0.1%)
Initial guess               ....       0.126 sec  (  0.6%)
Orbital Transformation      ....       0.000 sec  (  0.0%)
Orbital Orthonormalization  ....       0.000 sec  (  0.0%)
DIIS solution               ....       0.159 sec  (  0.8%)
Grid generation             ....       0.390 sec  (  2.0%)


           ************************************************************
           *        Program running with 24 parallel MPI-processes    *
           *              working on a common directory               *
           ************************************************************

------------------------------------------------------------------------------
                                ORCA  MP2 
------------------------------------------------------------------------------

Freezing NCore=40 chemical core electrons

-------------
RI-MP2 ENERGY
-------------
Dimension of the basis                    ...  285
Memory devoted to MP2                     ... 5000 MB   
Data format for buffers                   ... DOUBLE
Compression type for matrix containers    ... UNCOMPRESSED
Overall scaling of the MP2 energy         ...   2.700e-01
Calculating two index integrals           ... done (    0.015 sec)
Cholesky decomposition of V**-1           ... done (    0.044 sec)

-----------------
RI-TRANSFORMATION (AUX index driven)
-----------------

Dimension of the orbital-basis         ... 285
Dimension of the aux-basis             ... 939
Transformation of internal/external MOs...   20-  57 to   58- 284
Number Format for Storage              ... Double (8 Byte)
Integral mode                          ... Direct

First Phase: integral generation and transformation of MO indices
  Aux angular momentum 0               ... done (    0.004 sec)
  Aux angular momentum 1               ... done (    0.008 sec)
  Aux angular momentum 2               ... done (    0.013 sec)
  Aux angular momentum 3               ... done (    0.021 sec)
  Aux angular momentum 4               ... done (    0.014 sec)
  Aux angular momentum 5               ... done (    0.021 sec)
  Aux angular momentum 6               ... done (    0.028 sec)
Closing buffer VIA ( 0.06 GB; CompressionRatio= 1.00)
  Phase 1 completed in     0.182 sec
Second Phase: sorting and transformation of aux index

IA-Transformation
Memory available                       ... 4986 MB 
Max. # MO pairs treated in a batch     ... 2    
# of internal orbitals                 ... 38
# batches for internal orbitals        ... 1
Closing buffer IAV ( 0.00 GB; CompressionRatio= 1.00)
(ia|v) transformation done in     0.042 sec

  Phase 2 completed in     0.098 sec
RI-Integral transformation completed in     0.281 sec

-----------------
RI-TRANSFORMATION (AUX index driven)
-----------------

Dimension of the orbital-basis         ... 285
Dimension of the aux-basis             ... 939
Transformation of internal/external MOs...   20-  56 to   57- 284
Number Format for Storage              ... Double (8 Byte)
Integral mode                          ... Direct

First Phase: integral generation and transformation of MO indices
  Aux angular momentum 0               ... done (    0.004 sec)
  Aux angular momentum 1               ... done (    0.008 sec)
  Aux angular momentum 2               ... done (    0.013 sec)
  Aux angular momentum 3               ... done (    0.021 sec)
  Aux angular momentum 4               ... done (    0.014 sec)
  Aux angular momentum 5               ... done (    0.021 sec)
  Aux angular momentum 6               ... done (    0.028 sec)
Closing buffer VIA ( 0.06 GB; CompressionRatio= 1.00)
  Phase 1 completed in     0.185 sec
Second Phase: sorting and transformation of aux index

IA-Transformation
Memory available                       ... 4986 MB 
Max. # MO pairs treated in a batch     ... 2    
# of internal orbitals                 ... 37
# batches for internal orbitals        ... 1
Closing buffer IAV ( 0.00 GB; CompressionRatio= 1.00)
(ia|v) transformation done in     0.038 sec

  Phase 2 completed in     0.094 sec
RI-Integral transformation completed in     0.280 sec
Opening buffers                              ... done

Starting loop over batches of integrals:

Operator 0  - window                       ... ( 20- 57)x( 58-284)
Operator 0  - Memory available             ...  5000 MB
Operator 0  - Memory needed per MO         ...   1.6 MB
Operator 0  - Number of orbitals per batch ... 2
Operator 0  - Number of batches            ... 1

OPERATOR  0   PASS   0:  MOs    20 ...   21 +   22 ...   23 +   24 ...   25 +   26 ...   27
                            +   28 ...   29 +   30 ...   31 +   32 ...   33 +   34 ...   35
                            +   36 ...   37 +   38 ...   39 +   40 ...   41 +   42 ...   43
                            +   44 ...   45 +   46 ...   47 +   48 ...   49 +   50 ...   51
                            +   52 ...   53 +   54 ...   55 +   56 ...   57
  Reading integrals       ... ok

Operator 1  - window                       ... ( 20- 56)x( 57-284)
Operator 1  - Memory available             ...  5000 MB
Operator 1  - Memory needed per MO         ...   1.6 MB
Operator 1  - Number of orbitals per batch ... 2
Operator 1  - Number of batches            ... 1

OPERATOR  1   PASS   0:  MOs    20 ...   21 +   22 ...   23 +   24 ...   25 +   26 ...   27
                            +   28 ...   29 +   30 ...   31 +   32 ...   33 +   34 ...   35
                            +   36 ...   37 +   38 ...   39 +   40 ...   41 +   42 ...   43
                            +   44 ...   45 +   46 ...   47 +   48 ...   49 +   50 ...   51
                            +   52 ...   53 +   54 ...   55 +   56 ...   56
  Reading integrals       ... ok
Time spent in pair loops =     0.636 sec
Deleting buffer (Ka|jb)[aa] ...done
Deleting buffer (Ka|jb)[ab] ...done
Deleting buffer (Ka|jb)[ba] ...done
Deleting buffer (Ka|jb)[bb] ...done

Correlation energy components}
 E2 and T2 for alpha/alpha pairs :     -0.187791545 Eh      0.000000000
 E2 and T2 for beta/beta   pairs :     -0.191766188 Eh      0.000000000
 E2 and T2 for alpha/beta  pairs :     -0.711436204 Eh      0.000000000


-----------------------------------------------
 RI-MP2 CORRELATION ENERGY:     -1.090993937 Eh
-----------------------------------------------


-------
TIMINGS
-------

Total time                :    1.430 sec
Integral trafo            :    0.574 sec ( 40.1%)
I/O of integrals          :    0.005 sec (  0.3%)
K(i,j) Operators          :    0.331 sec ( 23.1%)
T(i,j) pair energies      :    0.016 sec (  1.1%)
V-calculation             :    0.015 sec (  1.1%)
V**(-1/2)                 :    0.044 sec (  3.0%)
Gamma(ia|P)               :    0.000 sec (  0.0%)
Gamma-Trafo               :    0.000 sec (  0.0%)
D(virtual)                :    0.000 sec (  0.0%)
D(internal)               :    0.000 sec (  0.0%)
W(virtual)                :    0.000 sec (  0.0%)
W(internal)               :    0.000 sec (  0.0%)
L(virtual)                :    0.000 sec (  0.0%)
L(internal)               :    0.000 sec (  0.0%)
G(D)                      :    0.000 sec (  0.0%)
G(Z)                      :    0.000 sec (  0.0%)
Z-Vector Solution         :    0.000 sec (  0.0%)
Z-Vector Solution         :    0.000 sec (  0.0%)
3-Index Derivative 
+ Separable RIJ part      :    0.000 sec (  0.0%)
2-Index Derivative 
+ Separable RIJ part      :    0.000 sec (  0.0%)
Separable Gradient (X)    :    0.000 sec (  0.0%)


---------------------------------------
MP2 TOTAL ENERGY:    -6561.356506569 Eh
---------------------------------------


-------------------------------------------------------------------------------
                          DFT DISPERSION CORRECTION                            
                                                                               
                              DFTD3 V3.1  Rev 1                                
                          USING Becke-Johnson damping                          
-------------------------------------------------------------------------------
The B2PLYP functional is recognized
Active option DFTDOPT                   ...         4   

molecular C6(AA) [au] = 2980.236616 


            DFT-D V3
 parameters
 s6 scaling factor         :     0.6400 
 a1 scaling factor         :     0.3065 
 s8 scaling factor         :     0.9147 
 a2 scaling factor         :     5.0570 
 ad hoc parameters k1-k3   :    16.0000     1.3333    -4.0000 

 Edisp/kcal,au: -5.786799773230  -0.009221851454 
 E6   /kcal   :  -2.048952932 
 E8   /kcal   :  -3.737846841 
 % E8         :  64.592641662 

-------------------------   ----------------
Dispersion correction           -0.009221851
-------------------------   ----------------


-------------------------   --------------------
FINAL SINGLE POINT ENERGY     -6561.365728420772
-------------------------   --------------------


                            ***************************************
                            *     ORCA property calculations      *
                            ***************************************


  WARNING: The energy has been calculated at the MP2 level but the densities
           used in the property calculations are still SCF densities
           MP2 response densities have not been calculated 
           use %mp2 Density relaxed end
           or  %mp2 Density unrelaxed end

                                    ---------------------
                                    Active property flags
                                    ---------------------
   (+) Dipole Moment


------------------------------------------------------------------------------
                       ORCA ELECTRIC PROPERTIES CALCULATION
------------------------------------------------------------------------------

Dipole Moment Calculation                       ... on
Quadrupole Moment Calculation                   ... off
Polarizability Calculation                      ... off
GBWName                                         ... Cu04C2_H_E.gbw
Electron density file                           ... Cu04C2_H_E.scfp
The origin for moment calculation is the CENTER OF MASS  = (-0.017813,  0.000014 -0.000079)

-------------
DIPOLE MOMENT
-------------
                                X             Y             Z
Electronic contribution:     -2.38544       0.00222      -0.01102
Nuclear contribution   :      2.08414      -0.00162       0.00923
                        -----------------------------------------
Total Dipole Moment    :     -0.30130       0.00061      -0.00179
                        -----------------------------------------
Magnitude (a.u.)       :      0.30131
Magnitude (Debye)      :      0.76587



--------------------
Rotational spectrum 
--------------------
 
Rotational constants in cm-1:     0.047295     0.040918     0.040701 
Rotational constants in MHz :  1417.862725  1226.705268  1220.194326 

 Dipole components along the rotational axes: 
x,y,z [a.u.] :     0.301304     0.000626    -0.001905 
x,y,z [Debye]:     0.765854     0.001592    -0.004843 

 

Timings for individual modules:

Sum of individual times         ...       22.964 sec (=   0.383 min)
GTO integral calculation        ...        0.960 sec (=   0.016 min)   4.2 %
SCF iterations                  ...       19.982 sec (=   0.333 min)  87.0 %
MP2 module                      ...        2.022 sec (=   0.034 min)   8.8 %
                             ****ORCA TERMINATED NORMALLY****
TOTAL RUN TIME: 0 days 0 hours 0 minutes 23 seconds 462 msec
