
                                 *****************
                                 * O   R   C   A *
                                 *****************

           --- An Ab Initio, DFT and Semiempirical electronic structure package ---

                  #######################################################
                  #                        -***-                        #
                  #          Department of theory and spectroscopy      #
                  #               Directorship: Frank Neese             #
                  #        Max Planck Institute fuer Kohlenforschung    #
                  #                Kaiser Wilhelm Platz 1               #
                  #                 D-45470 Muelheim/Ruhr               #
                  #                      Germany                        #
                  #                                                     #
                  #                  All rights reserved                #
                  #                        -***-                        #
                  #######################################################


                         Program Version 4.2.0 -  RELEASE  -


 With contributions from (in alphabetic order):
   Daniel Aravena         : Magnetic Suceptibility
   Michael Atanasov       : Ab Initio Ligand Field Theory (pilot matlab implementation)
   Alexander A. Auer      : GIAO ZORA, VPT2
   Ute Becker             : Parallelization
   Giovanni Bistoni       : ED, misc. LED, open-shell LED, HFLED
   Martin Brehm           : Molecular dynamics
   Dmytro Bykov           : SCF Hessian
   Vijay G. Chilkuri      : MRCI spin determinant printing, contributions to CSF-ICE
   Dipayan Datta          : RHF DLPNO-CCSD density
   Achintya Kumar Dutta   : EOM-CC, STEOM-CC
   Dmitry Ganyushin       : Spin-Orbit,Spin-Spin,Magnetic field MRCI
   Miquel Garcia          : C-PCM Hessian, Gaussian charge scheme
   Yang Guo               : DLPNO-NEVPT2, CIM, IAO-localization
   Andreas Hansen         : Spin unrestricted coupled pair/coupled cluster methods
   Benjamin Helmich-Paris : CASSCF linear response (MC-RPA)
   Lee Huntington         : MR-EOM, pCC
   Robert Izsak           : Overlap fitted RIJCOSX, COSX-SCS-MP3, EOM
   Christian Kollmar      : KDIIS, OOCD, Brueckner-CCSD(T), CCSD density
   Simone Kossmann        : Meta GGA functionals, TD-DFT gradient, OOMP2, MP2 Hessian
   Martin Krupicka        : AUTO-CI
   Lucas Lang             : DCDCAS
   Dagmar Lenk            : GEPOL surface, SMD
   Dimitrios Liakos       : Extrapolation schemes; Compound Job, initial MDCI parallelization
   Dimitrios Manganas     : Further ROCIS development; embedding schemes
   Dimitrios Pantazis     : SARC Basis sets
   Taras Petrenko         : DFT Hessian,TD-DFT gradient, ASA, ECA, R-Raman, ABS, FL, XAS/XES, NRVS
   Peter Pinski           : DLPNO-MP2, DLPNO-MP2 Gradient
   Christoph Reimann      : Effective Core Potentials
   Marius Retegan         : Local ZFS, SOC
   Christoph Riplinger    : Optimizer, TS searches, QM/MM, DLPNO-CCSD(T), (RO)-DLPNO pert. Triples
   Tobias Risthaus        : Range-separated hybrids, TD-DFT gradient, RPA, STAB
   Michael Roemelt        : Original ROCIS implementation
   Masaaki Saitow         : Open-shell DLPNO-CCSD energy and density
   Barbara Sandhoefer     : DKH picture change effects
   Avijit Sen             : IP-ROCIS
   Kantharuban Sivalingam : CASSCF convergence, NEVPT2, FIC-MRCI
   Bernardo de Souza      : ESD, SOC TD-DFT
   Georgi Stoychev        : AutoAux, RI-MP2 NMR
   Willem Van den Heuvel  : Paramagnetic NMR
   Boris Wezisla          : Elementary symmetry handling
   Frank Wennmohs         : Technical directorship


 We gratefully acknowledge several colleagues who have allowed us to
 interface, adapt or use parts of their codes:
   Stefan Grimme, W. Hujo, H. Kruse,             : VdW corrections, initial TS optimization,
                  C. Bannwarth                     DFT functionals, gCP, sTDA/sTD-DF
   Ed Valeev, F. Pavosevic, A. Kumar             : LibInt (2-el integral package), F12 methods
   Garnet Chan, S. Sharma, J. Yang, R. Olivares  : DMRG
   Ulf Ekstrom                                   : XCFun DFT Library
   Mihaly Kallay                                 : mrcc  (arbitrary order and MRCC methods)
   Andreas Klamt, Michael Diedenhofen            : otool_cosmo (COSMO solvation model)
   Jiri Pittner, Ondrej Demel                    : Mk-CCSD
   Frank Weinhold                                : gennbo (NPA and NBO analysis)
   Christopher J. Cramer and Donald G. Truhlar   : smd solvation model
   Lars Goerigk                                  : TD-DFT with DH, B97 family of functionals
   V. Asgeirsson, H. Jonsson                     : NEB implementation
   FAccTs GmbH                                   : IRC, NEB, NEB-TS, Multilevel, MM, QM/MM, CI optimization
   S Lehtola, MJT Oliveira, MAL Marques          : LibXC Library


 Your calculation uses the libint2 library for the computation of 2-el integrals
 For citations please refer to: http://libint.valeyev.net

 Your ORCA version has been built with support for libXC version: 4.2.3
 For citations please refer to: https://tddft.org/programs/libxc/

 This ORCA versions uses:
   CBLAS   interface :  Fast vector & matrix operations
   LAPACKE interface :  Fast linear algebra routines
   SCALAPACK package :  Parallel linear algebra routines


Your calculation utilizes the atom-pairwise dispersion correction
with the Becke-Johnson damping scheme (D3BJ)
Cite in your paper:
S.Grimme, S.Ehrlich, L.Goerigk, J Comput Chem, (2011), 32, 1456–1465 
S.Grimme, J.Antony, S.Ehrlich and H.Krieg, J.Chem.Phys., 132, (2010), 154104 
   

----- Orbital basis set information -----
Your calculation utilizes the basis: def2-TZVPPD
   F. Weigend and R. Ahlrichs, Phys. Chem. Chem. Phys. 7, 3297 (2005).
   D. Rappoport and F. Furche, J. Chem. Phys. 133 134105 (2010).

----- AuxC basis set information -----
Your calculation utilizes the auxiliary basis: def2-TZVPPD/C
   A. Hellweg, C. Hattig, S. Hofener and W. Klopper, Theor. Chem. Acc. 117, 587 (2007).

----- AuxJK basis set information -----
Your calculation utilizes the auxiliary basis: def2/JK
   H-Ba, Hf-Rn: F. Weigend, J. Comput. Chem. 29, 167 (2008).

================================================================================
                                        WARNINGS
                       Please study these warnings very carefully!
================================================================================


WARNING: your system is open-shell and RHF/RKS was chosen
  ===> : WILL SWITCH to UHF/UKS


WARNING: No MP2 level density has been requested!
         To caclulate MP2 level properties use
         %mp2 Density relaxed end
         or
         %mp2 Density unrelaxed end
         Otherwise for double-hybrid DFT only the energy is correct!

WARNING: The frozen-core approximation is turned on by default for 
         the MP2 part of double-hybrid DFT.

INFO   : the flag for use of LIBINT has been found!

================================================================================
                                       INPUT FILE
================================================================================
NAME = Cu04C2_H_A.in
|  1> #
|  2> # Cu04C2_H_A ri-B2PLYP-D3BJ/Def2-TZVPPD
|  3> #
|  4> ! rijk ri-b2plyp d3bj def2-tzvppd def2/jk def2-tzvppd/c grid4 nofinalgrid
|  5> 
|  6> *xyz 2 2
|  7> Cu      -0.000000    1.401870   -0.545062 
|  8> Cu       1.214055   -0.700935   -0.545062 
|  9> Cu      -1.214055   -0.700935   -0.545062 
| 10> Cu       0.000000    0.000000    1.530006 
| 11> H        0.000000    0.000000    3.050192 
| 12> *
| 13> 
| 14> %maxcore 5000
| 15> 
| 16> %pal
| 17> nprocs = 24
| 18> end
| 19> 
| 20> 
| 21>                          ****END OF INPUT****
================================================================================

                       ****************************
                       * Single Point Calculation *
                       ****************************

---------------------------------
CARTESIAN COORDINATES (ANGSTROEM)
---------------------------------
  Cu    -0.000000    1.401870   -0.545062
  Cu     1.214055   -0.700935   -0.545062
  Cu    -1.214055   -0.700935   -0.545062
  Cu     0.000000    0.000000    1.530006
  H      0.000000    0.000000    3.050192

----------------------------
CARTESIAN COORDINATES (A.U.)
----------------------------
  NO LB      ZA    FRAG     MASS         X           Y           Z
   0 Cu   29.0000    0    63.550   -0.000000    2.649150   -1.030018
   1 Cu   29.0000    0    63.550    2.294231   -1.324575   -1.030018
   2 Cu   29.0000    0    63.550   -2.294231   -1.324575   -1.030018
   3 Cu   29.0000    0    63.550    0.000000    0.000000    2.891292
   4 H     1.0000    0     1.008    0.000000    0.000000    5.764028

--------------------------------
INTERNAL COORDINATES (ANGSTROEM)
--------------------------------
 Cu     0   0   0     0.000000000000     0.00000000     0.00000000
 Cu     1   0   0     2.428110049205     0.00000000     0.00000000
 Cu     2   1   0     2.428110000000    60.00000067     0.00000000
 Cu     2   1   3     2.504225752977    61.00046376   288.66439875
 H      4   2   1     1.520186000000   145.95791111   214.86707431

---------------------------
INTERNAL COORDINATES (A.U.)
---------------------------
 Cu     0   0   0     0.000000000000     0.00000000     0.00000000
 Cu     1   0   0     4.588463016019     0.00000000     0.00000000
 Cu     2   1   0     4.588462923036    60.00000067     0.00000000
 Cu     2   1   3     4.732300850640    61.00046376   288.66439875
 H      4   2   1     2.872735212621   145.95791111   214.86707431

---------------------
BASIS SET INFORMATION
---------------------
There are 2 groups of distinct atoms

 Group   1 Type Cu  : 17s13p7d2f1g contracted to 6s6p4d2f1g pattern {842111/631111/4111/11/1}
 Group   2 Type H   : 5s3p1d contracted to 3s3p1d pattern {311/111/1}

Atom   0Cu   basis set group =>   1
Atom   1Cu   basis set group =>   1
Atom   2Cu   basis set group =>   1
Atom   3Cu   basis set group =>   1
Atom   4H    basis set group =>   2
---------------------------------
AUXILIARY/C BASIS SET INFORMATION
---------------------------------
There are 2 groups of distinct atoms

 Group   1 Type Cu  : 10s10p9d7f5g3h1i contracted to 10s10p9d7f5g3h1i pattern {1111111111/1111111111/111111111/1111111/11111/111/1}
 Group   2 Type H   : 5s4p3d1f contracted to 5s4p3d1f pattern {11111/1111/111/1}

Atom   0Cu   basis set group =>   1
Atom   1Cu   basis set group =>   1
Atom   2Cu   basis set group =>   1
Atom   3Cu   basis set group =>   1
Atom   4H    basis set group =>   2
----------------------------------
AUXILIARY/JK BASIS SET INFORMATION
----------------------------------
There are 2 groups of distinct atoms

 Group   1 Type Cu  : 19s14p12d10f7g3h1i contracted to 16s13p11d9f5g3h1i pattern {4111111111111111/2111111111111/21111111111/211111111/31111/111/1}
 Group   2 Type H   : 4s2p2d contracted to 2s2p2d pattern {31/11/11}

Atom   0Cu   basis set group =>   1
Atom   1Cu   basis set group =>   1
Atom   2Cu   basis set group =>   1
Atom   3Cu   basis set group =>   1
Atom   4H    basis set group =>   2


           ************************************************************
           *        Program running with 24 parallel MPI-processes    *
           *              working on a common directory               *
           ************************************************************
------------------------------------------------------------------------------
                           ORCA GTO INTEGRAL CALCULATION
                           -- RI-GTO INTEGRALS CHOSEN --
------------------------------------------------------------------------------

                         BASIS SET STATISTICS AND STARTUP INFO

Gaussian basis set:
 # of primitive gaussian shells          ...  169
 # of primitive gaussian functions       ...  475
 # of contracted shells                  ...   83
 # of contracted basis functions         ...  285
 Highest angular momentum                ...    4
 Maximum contraction depth               ...    8
Auxiliary gaussian basis set:
 # of primitive gaussian shells          ...  272
 # of primitive gaussian functions       ... 1220
 # of contracted shells                  ...  238
 # of contracted aux-basis functions     ... 1074
 Highest angular momentum                ...    6
 Maximum contraction depth               ...    4
Ratio of auxiliary to basis functions    ...  3.77
Integral package used                  ... LIBINT
 One Electron integrals                  ... done
 Ordering auxiliary basis shells         ... done
 Integral threshhold             Thresh  ...  1.000e-10
 Primitive cut-off               TCut    ...  1.000e-11
 Pre-screening matrix                    ... done
 Shell pair data                         ... 
 Ordering of the shell pairs             ... done (   0.000 sec) 3135 of 3486 pairs
 Determination of significant pairs      ... done (   0.000 sec)
 Creation of shell pair data             ... done (   0.000 sec)
 Storage of shell pair data              ... done (   0.003 sec)
 Shell pair data done in (   0.004 sec)
 Computing two index integrals           ... done
 Cholesky decomposition of the V-matrix  ... done


Timings:
 Total evaluation time                   ...   0.625 sec (  0.010 min)
 One electron matrix time                ...   0.055 sec (  0.001 min) =  8.8%
 Schwartz matrix evaluation time         ...   0.270 sec (  0.004 min) = 43.1%
 Two index repulsion integral time       ...   0.213 sec (  0.004 min) = 34.1%
 Cholesky decomposition of V             ...   0.052 sec (  0.001 min) =  8.4%
 Three index repulsion integral time     ...   0.000 sec (  0.000 min) =  0.0%



           ************************************************************
           *        Program running with 24 parallel MPI-processes    *
           *              working on a common directory               *
           ************************************************************
-------------------------------------------------------------------------------
                                 ORCA SCF
-------------------------------------------------------------------------------

------------
SCF SETTINGS
------------
Hamiltonian:
 Density Functional     Method          .... DFT(GTOs)
 Exchange Functional    Exchange        .... B88
   X-Alpha parameter    XAlpha          ....  0.666667
   Becke's b parameter  XBeta           ....  0.004200
 Correlation Functional Correlation     .... LYP
 LDA part of GGA corr.  LDAOpt          .... VWN-3
 Gradients option       PostSCFGGA      .... off
 Hybrid DFT is turned on
   Fraction HF Exchange ScalHFX         ....  0.530000
   Scaling of DF-GGA-X  ScalDFX         ....  0.470000
   Scaling of DF-GGA-C  ScalDFC         ....  0.730000
   Scaling of DF-LDA-C  ScalLDAC        ....  0.730000
   Perturbative correction              ....  0.270000
   Density functional embedding theory  .... OFF
 RI-approximation to the Coulomb term is turned on
   Number of auxiliary basis functions  .... 1074
   RI-JK (J+K treated both via RI)      .... on


General Settings:
 Integral files         IntName         .... Cu04C2_H_A
 Hartree-Fock type      HFTyp           .... UHF
 Total Charge           Charge          ....    2
 Multiplicity           Mult            ....    2
 Number of Electrons    NEL             ....  115
 Basis Dimension        Dim             ....  285
 Nuclear Repulsion      ENuc            ....   1105.0271586451 Eh

Convergence Acceleration:
 DIIS                   CNVDIIS         .... on
   Start iteration      DIISMaxIt       ....    12
   Startup error        DIISStart       ....  0.200000
   # of expansion vecs  DIISMaxEq       ....     5
   Bias factor          DIISBfac        ....   1.050
   Max. coefficient     DIISMaxC        ....  10.000
 Newton-Raphson         CNVNR           .... off
 SOSCF                  CNVSOSCF        .... off
 Level Shifting         CNVShift        .... on
   Level shift para.    LevelShift      ....    0.2500
   Turn off err/grad.   ShiftErr        ....    0.0010
 Zerner damping         CNVZerner       .... off
 Static damping         CNVDamp         .... on
   Fraction old density DampFac         ....    0.7000
   Max. Damping (<1)    DampMax         ....    0.9800
   Min. Damping (>=0)   DampMin         ....    0.0000
   Turn off err/grad.   DampErr         ....    0.1000
 Fernandez-Rico         CNVRico         .... off

SCF Procedure:
 Maximum # iterations   MaxIter         ....   125
 SCF integral mode      SCFMode         .... Direct
   Integral package                     .... LIBINT
 Reset frequency        DirectResetFreq ....    20
 Integral Threshold     Thresh          ....  1.000e-10 Eh
 Primitive CutOff       TCut            ....  1.000e-11 Eh

Convergence Tolerance:
 Convergence Check Mode ConvCheckMode   .... Total+1el-Energy
 Convergence forced     ConvForced      .... 0
 Energy Change          TolE            ....  1.000e-06 Eh
 1-El. energy change                    ....  1.000e-03 Eh
 DIIS Error             TolErr          ....  1.000e-06


Diagonalization of the overlap matrix:
Smallest eigenvalue                        ... 4.269e-04
Time for diagonalization                   ...    0.012 sec
Threshold for overlap eigenvalues          ... 1.000e-08
Number of eigenvalues below threshold      ... 0
Time for construction of square roots      ...    0.010 sec
Total time needed                          ...    0.023 sec

-------------------
DFT GRID GENERATION
-------------------

General Integration Accuracy     IntAcc      ...  4.670
Radial Grid Type                 RadialGrid  ... Gauss-Chebyshev
Angular Grid (max. acc.)         AngularGrid ... Lebedev-302
Angular grid pruning method      GridPruning ... 3 (G Style)
Weight generation scheme         WeightScheme... Becke
Basis function cutoff            BFCut       ...    1.0000e-10
Integration weight cutoff        WCut        ...    1.0000e-14
Grids for H and He will be reduced by one unit

# of grid points (after initial pruning)     ...  41618 (   0.0 sec)
# of grid points (after weights+screening)   ...  41057 (   0.0 sec)
nearest neighbour list constructed           ...    0.0 sec
Grid point re-assignment to atoms done       ...    0.0 sec
Grid point division into batches done        ...    0.3 sec
Reduced shell lists constructed in    0.3 sec

Total number of grid points                  ...    41057
Total number of batches                      ...      644
Average number of points per batch           ...       63
Average number of grid points per atom       ...     8211
Average number of shells per batch           ...    20.93 (25.22%)
Average number of basis functions per batch  ...    57.79 (20.28%)
Average number of large shells per batch     ...    15.54 (74.23%)
Average number of large basis fcns per batch ...    42.89 (74.23%)
Average number of aux-shells per batch       ...    20.93 ( 8.79%)
Average number of aux functions per batch    ...    57.79 ( 5.38%)
Maximum spatial batch extension              ...  20.26, 16.80, 17.24 au
Average spatial batch extension              ...   0.41,  0.35,  0.38 au

Time for grid setup =    0.398 sec

------------------------------
INITIAL GUESS: MODEL POTENTIAL
------------------------------
Loading Hartree-Fock densities                     ... done
Calculating cut-offs                               ... done
Setting up the integral package                    ... done
Initializing the effective Hamiltonian             ... done
Starting the Coulomb interaction                   ... done (   0.0 sec)
Reading the grid                                   ... done
Mapping shells                                     ... done
Starting the XC term evaluation                    ... done (   0.0 sec)
  promolecular density results
     # of electrons  =    116.999566998
     EX              =   -263.583080859
     EC              =     -2.114042305
     EX+EC           =   -265.697123164
Transforming the Hamiltonian                       ... done (   0.0 sec)
Diagonalizing the Hamiltonian                      ... done (   0.0 sec)
Back transforming the eigenvectors                 ... done (   0.0 sec)
Now organizing SCF variables                       ... done
                      ------------------
                      INITIAL GUESS DONE (   0.6 sec)
                      ------------------
--------------
SCF ITERATIONS
--------------
ITER       Energy         Delta-E        Max-DP      RMS-DP      [F,P]     Damp
  0  -6560.1146457771   0.000000000000 0.07894486  0.00062525  0.2262895 0.7000
  1  -6560.4573801802  -0.342734403118 0.08974417  0.00070226  0.1055904 0.7000
                               ***Turning on DIIS***
  2  -6560.3952220352   0.062158145050 0.26769766  0.00218371  0.0780110 0.0000
  3  -6560.2328830892   0.162338945946 0.07548967  0.00047149  0.0787682 0.0000
  4  -6560.2407247732  -0.007841683990 0.01331225  0.00013294  0.0684359 0.0000
  5  -6560.2448135166  -0.004088743346 0.01310014  0.00007064  0.0161591 0.0000
  6  -6560.2454400651  -0.000626548484 0.00680516  0.00004121  0.0040808 0.0000
  7  -6560.2456363189  -0.000196253823 0.00494650  0.00002890  0.0032730 0.0000
  8  -6560.2457595885  -0.000123269579 0.00412761  0.00002714  0.0016357 0.0000
  9  -6560.2458363690  -0.000076780526 0.00351547  0.00002517  0.0014784 0.0000
 10  -6560.2458896374  -0.000053268429 0.00249899  0.00001767  0.0015149 0.0000
 11  -6560.2459206167  -0.000030979293 0.00221478  0.00001830  0.0011833 0.0000
 12  -6560.2459446559  -0.000024039159 0.00229992  0.00001685  0.0011748 0.0000
 13  -6560.2459625808  -0.000017924969 0.00394999  0.00002789  0.0008235 0.0000
 14  -6560.2459835386  -0.000020957808 0.00172754  0.00001343  0.0005423 0.0000
 15  -6560.2459880235  -0.000004484830 0.00105143  0.00000787  0.0002530 0.0000
 16  -6560.2459894755  -0.000001451986 0.00056641  0.00000391  0.0001770 0.0000
 17  -6560.2459900191  -0.000000543629 0.00049890  0.00000362  0.0000887 0.0000
 18  -6560.2459902378  -0.000000218674 0.00017645  0.00000143  0.0000125 0.0000
                 **** Energy Check signals convergence ****

               *****************************************************
               *                     SUCCESS                       *
               *           SCF CONVERGED AFTER  19 CYCLES          *
               *****************************************************


----------------
TOTAL SCF ENERGY
----------------

Total Energy       :        -6560.24599028 Eh         -178513.36884 eV

Components:
Nuclear Repulsion  :         1105.02715865 Eh           30069.31768 eV
Electronic Energy  :        -7665.27314892 Eh         -208582.68652 eV
One Electron Energy:       -11315.62501540 Eh         -307913.81070 eV
Two Electron Energy:         3650.35186648 Eh           99331.12418 eV

Virial components:
Potential Energy   :       -13113.87703948 Eh         -356846.73598 eV
Kinetic Energy     :         6553.63104920 Eh          178333.36714 eV
Virial Ratio       :            2.00100936


DFT components:
N(Alpha)           :       57.999980882615 electrons
N(Beta)            :       56.999978152402 electrons
N(Total)           :      114.999959035018 electrons
E(X)               :     -124.030010885058 Eh       
E(C)               :       -4.029415563361 Eh       
E(XC)              :     -128.059426448419 Eh       
DFET-embed. en.    :        0.000000000000 Eh       

---------------
SCF CONVERGENCE
---------------

  Last Energy change         ...   -3.8729e-08  Tolerance :   1.0000e-06
  Last MAX-Density change    ...    3.9897e-05  Tolerance :   1.0000e-05
  Last RMS-Density change    ...    3.1946e-07  Tolerance :   1.0000e-06
  Last DIIS Error            ...    7.3759e-06  Tolerance :   1.0000e-06

             **** THE GBW FILE WAS UPDATED (Cu04C2_H_A.gbw) ****
             **** DENSITY FILE WAS UPDATED (Cu04C2_H_A.scfp) ****
             **** ENERGY FILE WAS UPDATED (Cu04C2_H_A.en.tmp) ****
----------------------
UHF SPIN CONTAMINATION
----------------------

Warning: in a DFT calculation there is little theoretical justification to 
         calculate <S**2> as in Hartree-Fock theory. We will do it anyways
         but you should keep in mind that the values have only limited relevance

Expectation value of <S**2>     :     0.758185
Ideal value S*(S+1) for S=0.5   :     0.750000
Deviation                       :     0.008185

             **** THE GBW FILE WAS UPDATED (Cu04C2_H_A.gbw) ****
             **** DENSITY FILE WAS UPDATED (Cu04C2_H_A.scfp) ****
----------------
ORBITAL ENERGIES
----------------
                 SPIN UP ORBITALS
  NO   OCC          E(Eh)            E(eV) 
   0   1.0000    -325.866933     -8867.2901 
   1   1.0000    -325.834007     -8866.3941 
   2   1.0000    -325.833999     -8866.3939 
   3   1.0000    -325.833994     -8866.3937 
   4   1.0000     -40.084131     -1090.7447 
   5   1.0000     -40.041811     -1089.5931 
   6   1.0000     -40.041804     -1089.5929 
   7   1.0000     -40.041785     -1089.5924 
   8   1.0000     -35.125059      -955.8014 
   9   1.0000     -35.115615      -955.5445 
  10   1.0000     -35.115614      -955.5444 
  11   1.0000     -35.077777      -954.5148 
  12   1.0000     -35.077770      -954.5146 
  13   1.0000     -35.077764      -954.5145 
  14   1.0000     -35.077667      -954.5118 
  15   1.0000     -35.077653      -954.5115 
  16   1.0000     -35.077649      -954.5113 
  17   1.0000     -35.077393      -954.5044 
  18   1.0000     -35.077386      -954.5042 
  19   1.0000     -35.077376      -954.5039 
  20   1.0000      -5.033193      -136.9601 
  21   1.0000      -4.992358      -135.8490 
  22   1.0000      -4.991976      -135.8386 
  23   1.0000      -4.991972      -135.8385 
  24   1.0000      -3.465747       -94.3078 
  25   1.0000      -3.442552       -93.6766 
  26   1.0000      -3.442548       -93.6765 
  27   1.0000      -3.413659       -92.8904 
  28   1.0000      -3.411530       -92.8324 
  29   1.0000      -3.411529       -92.8324 
  30   1.0000      -3.410293       -92.7988 
  31   1.0000      -3.410161       -92.7952 
  32   1.0000      -3.410154       -92.7950 
  33   1.0000      -3.409419       -92.7750 
  34   1.0000      -3.409417       -92.7750 
  35   1.0000      -3.409204       -92.7691 
  36   1.0000      -0.868977       -23.6461 
  37   1.0000      -0.814709       -22.1694 
  38   1.0000      -0.814689       -22.1688 
  39   1.0000      -0.803684       -21.8693 
  40   1.0000      -0.800173       -21.7738 
  41   1.0000      -0.800172       -21.7738 
  42   1.0000      -0.790117       -21.5002 
  43   1.0000      -0.784667       -21.3519 
  44   1.0000      -0.784665       -21.3518 
  45   1.0000      -0.777993       -21.1703 
  46   1.0000      -0.770240       -20.9593 
  47   1.0000      -0.770232       -20.9591 
  48   1.0000      -0.757896       -20.6234 
  49   1.0000      -0.757410       -20.6102 
  50   1.0000      -0.757408       -20.6101 
  51   1.0000      -0.754161       -20.5218 
  52   1.0000      -0.754145       -20.5213 
  53   1.0000      -0.746339       -20.3089 
  54   1.0000      -0.746334       -20.3088 
  55   1.0000      -0.734508       -19.9870 
  56   1.0000      -0.734247       -19.9799 
  57   1.0000      -0.688218       -18.7274 
  58   0.0000      -0.412270       -11.2184 
  59   0.0000      -0.412268       -11.2184 
  60   0.0000      -0.383373       -10.4321 
  61   0.0000      -0.299278        -8.1438 
  62   0.0000      -0.285687        -7.7740 
  63   0.0000      -0.285687        -7.7739 
  64   0.0000      -0.276573        -7.5259 
  65   0.0000      -0.276573        -7.5259 
  66   0.0000      -0.193616        -5.2686 
  67   0.0000      -0.176219        -4.7952 
  68   0.0000      -0.176218        -4.7951 
  69   0.0000      -0.174282        -4.7424 
  70   0.0000      -0.165889        -4.5141 
  71   0.0000      -0.165889        -4.5141 
  72   0.0000      -0.155444        -4.2299 
  73   0.0000      -0.137349        -3.7375 
  74   0.0000      -0.119596        -3.2544 
  75   0.0000      -0.111550        -3.0354 
  76   0.0000      -0.111550        -3.0354 
  77   0.0000      -0.109193        -2.9713 
  78   0.0000      -0.109192        -2.9713 
  79   0.0000      -0.107085        -2.9139 
  80   0.0000      -0.097580        -2.6553 
  81   0.0000      -0.097579        -2.6552 
  82   0.0000      -0.069701        -1.8967 
  83   0.0000      -0.046513        -1.2657 
  84   0.0000      -0.046510        -1.2656 
  85   0.0000      -0.037957        -1.0329 
  86   0.0000      -0.036589        -0.9956 
  87   0.0000      -0.035907        -0.9771 
  88   0.0000      -0.035900        -0.9769 
  89   0.0000      -0.025655        -0.6981 
  90   0.0000      -0.025654        -0.6981 
  91   0.0000       0.008820         0.2400 
  92   0.0000       0.008820         0.2400 
  93   0.0000       0.017928         0.4878 
  94   0.0000       0.017928         0.4879 
  95   0.0000       0.020345         0.5536 
  96   0.0000       0.024784         0.6744 
  97   0.0000       0.053384         1.4527 
  98   0.0000       0.072732         1.9791 
  99   0.0000       0.075268         2.0482 
 100   0.0000       0.075269         2.0482 
 101   0.0000       0.088493         2.4080 
 102   0.0000       0.088496         2.4081 
 103   0.0000       0.132281         3.5995 
 104   0.0000       0.132286         3.5997 
 105   0.0000       0.152123         4.1395 
 106   0.0000       0.170346         4.6353 
 107   0.0000       0.170348         4.6354 
 108   0.0000       0.172629         4.6975 
 109   0.0000       0.201761         5.4902 
 110   0.0000       0.201769         5.4904 
 111   0.0000       0.214826         5.8457 
 112   0.0000       0.248146         6.7524 
 113   0.0000       0.371522        10.1096 
 114   0.0000       0.430103        11.7037 
 115   0.0000       0.430106        11.7038 
 116   0.0000       0.434578        11.8255 
 117   0.0000       0.434579        11.8255 
 118   0.0000       0.495098        13.4723 
 119   0.0000       0.495101        13.4724 
 120   0.0000       0.496649        13.5145 
 121   0.0000       0.513327        13.9683 
 122   0.0000       0.524509        14.2726 
 123   0.0000       0.532314        14.4850 
 124   0.0000       0.532322        14.4852 
 125   0.0000       0.581733        15.8298 
 126   0.0000       0.581734        15.8298 
 127   0.0000       0.612036        16.6543 
 128   0.0000       0.625522        17.0213 
 129   0.0000       0.625523        17.0213 
 130   0.0000       0.661817        18.0090 
 131   0.0000       0.661818        18.0090 
 132   0.0000       0.687770        18.7152 
 133   0.0000       0.716026        19.4841 
 134   0.0000       0.717366        19.5205 
 135   0.0000       0.717368        19.5206 
 136   0.0000       0.741713        20.1830 
 137   0.0000       0.741718        20.1832 
 138   0.0000       0.747608        20.3435 
 139   0.0000       0.790001        21.4970 
 140   0.0000       0.790003        21.4971 
 141   0.0000       0.947930        25.7945 
 142   0.0000       0.959479        26.1088 
 143   0.0000       0.959492        26.1091 
 144   0.0000       0.972857        26.4728 
 145   0.0000       1.033070        28.1113 
 146   0.0000       1.033076        28.1114 
 147   0.0000       1.155867        31.4527 
 148   0.0000       2.398226        65.2590 
 149   0.0000       2.547729        69.3272 
 150   0.0000       2.711801        73.7919 
 151   0.0000       2.711813        73.7922 
 152   0.0000       2.823542        76.8325 
 153   0.0000       2.823551        76.8327 
 154   0.0000       2.840062        77.2820 
 155   0.0000       2.848440        77.5100 
 156   0.0000       2.848447        77.5102 
 157   0.0000       2.885906        78.5295 
 158   0.0000       2.894990        78.7767 
 159   0.0000       2.894993        78.7768 
 160   0.0000       2.970588        80.8338 
 161   0.0000       2.970589        80.8338 
 162   0.0000       3.008374        81.8620 
 163   0.0000       3.037539        82.6556 
 164   0.0000       3.059997        83.2667 
 165   0.0000       3.060003        83.2669 
 166   0.0000       3.114612        84.7529 
 167   0.0000       3.160895        86.0123 
 168   0.0000       3.169738        86.2530 
 169   0.0000       3.170581        86.2759 
 170   0.0000       3.170584        86.2760 
 171   0.0000       3.173178        86.3466 
 172   0.0000       3.179270        86.5123 
 173   0.0000       3.188186        86.7550 
 174   0.0000       3.188216        86.7558 
 175   0.0000       3.188906        86.7745 
 176   0.0000       3.190604        86.8207 
 177   0.0000       3.190636        86.8216 
 178   0.0000       3.192430        86.8704 
 179   0.0000       3.195247        86.9471 
 180   0.0000       3.195254        86.9473 
 181   0.0000       3.195878        86.9643 
 182   0.0000       3.195878        86.9643 
 183   0.0000       3.211236        87.3822 
 184   0.0000       3.211239        87.3823 
 185   0.0000       3.236170        88.0607 
 186   0.0000       3.245159        88.3053 
 187   0.0000       3.245161        88.3053 
 188   0.0000       3.251949        88.4900 
 189   0.0000       3.251951        88.4901 
 190   0.0000       3.274944        89.1158 
 191   0.0000       3.287072        89.4458 
 192   0.0000       3.419444        93.0478 
 193   0.0000       3.419448        93.0479 
 194   0.0000       3.474700        94.5514 
 195   0.0000       3.490786        94.9891 
 196   0.0000       3.490786        94.9891 
 197   0.0000       3.494480        95.0896 
 198   0.0000       3.494488        95.0899 
 199   0.0000       3.507727        95.4501 
 200   0.0000       3.557540        96.8056 
 201   0.0000       3.557569        96.8064 
 202   0.0000       3.573532        97.2407 
 203   0.0000       3.579367        97.3995 
 204   0.0000       3.579379        97.3999 
 205   0.0000       3.692517       100.4785 
 206   0.0000       3.706897       100.8698 
 207   0.0000       3.706897       100.8698 
 208   0.0000       3.757293       102.2411 
 209   0.0000       3.758652       102.2781 
 210   0.0000       3.758656       102.2782 
 211   0.0000       3.788218       103.0826 
 212   0.0000       3.801387       103.4410 
 213   0.0000       3.801411       103.4417 
 214   0.0000       3.813870       103.7807 
 215   0.0000       3.813877       103.7809 
 216   0.0000       3.952707       107.5586 
 217   0.0000       4.137878       112.5974 
 218   0.0000       4.137921       112.5986 
 219   0.0000       4.191932       114.0683 
 220   0.0000       4.907963       133.5525 
 221   0.0000      12.863317       350.0287 
 222   0.0000      12.863371       350.0301 
 223   0.0000      12.866704       350.1208 
 224   0.0000      12.866948       350.1275 
 225   0.0000      12.868787       350.1775 
 226   0.0000      12.869068       350.1852 
 227   0.0000      12.869726       350.2031 
 228   0.0000      12.870173       350.2152 
 229   0.0000      12.870181       350.2154 
 230   0.0000      12.895615       350.9075 
 231   0.0000      12.895773       350.9118 
 232   0.0000      12.895863       350.9143 
 233   0.0000      12.895880       350.9147 
 234   0.0000      12.895925       350.9160 
 235   0.0000      12.896005       350.9181 
 236   0.0000      12.896128       350.9215 
 237   0.0000      12.896249       350.9248 
 238   0.0000      12.896329       350.9269 
 239   0.0000      12.896465       350.9307 
 240   0.0000      12.896553       350.9330 
 241   0.0000      12.896607       350.9345 
 242   0.0000      12.896701       350.9371 
 243   0.0000      12.896756       350.9386 
 244   0.0000      12.896843       350.9410 
 245   0.0000      12.896883       350.9420 
 246   0.0000      12.896986       350.9448 
 247   0.0000      12.897024       350.9459 
 248   0.0000      12.897486       350.9584 
 249   0.0000      12.897550       350.9602 
 250   0.0000      12.897550       350.9602 
 251   0.0000      12.897638       350.9626 
 252   0.0000      12.897680       350.9637 
 253   0.0000      12.897695       350.9641 
 254   0.0000      12.898169       350.9770 
 255   0.0000      12.898178       350.9773 
 256   0.0000      12.898292       350.9804 
 257   0.0000      13.074941       355.7872 
 258   0.0000      13.076419       355.8275 
 259   0.0000      13.078362       355.8803 
 260   0.0000      13.078376       355.8807 
 261   0.0000      13.102677       356.5420 
 262   0.0000      13.102680       356.5420 
 263   0.0000      13.102843       356.5465 
 264   0.0000      13.104157       356.5822 
 265   0.0000      13.104433       356.5898 
 266   0.0000      13.104438       356.5899 
 267   0.0000      13.106088       356.6348 
 268   0.0000      13.106104       356.6352 
 269   0.0000      13.107608       356.6761 
 270   0.0000      13.107688       356.6783 
 271   0.0000      13.110056       356.7428 
 272   0.0000      13.111422       356.7799 
 273   0.0000      13.111440       356.7804 
 274   0.0000      13.113796       356.8445 
 275   0.0000      13.113800       356.8446 
 276   0.0000      13.120957       357.0394 
 277   0.0000      13.120967       357.0397 
 278   0.0000      13.143639       357.6566 
 279   0.0000      13.143689       357.6580 
 280   0.0000      13.155073       357.9677 
 281   0.0000      13.166967       358.2914 
 282   0.0000      13.174300       358.4909 
 283   0.0000      13.174315       358.4913 
 284   0.0000      13.430504       365.4626 

                 SPIN DOWN ORBITALS
  NO   OCC          E(Eh)            E(eV) 
   0   1.0000    -325.865958     -8867.2635 
   1   1.0000    -325.833954     -8866.3926 
   2   1.0000    -325.833945     -8866.3924 
   3   1.0000    -325.833941     -8866.3923 
   4   1.0000     -40.077860     -1090.5740 
   5   1.0000     -40.041747     -1089.5913 
   6   1.0000     -40.041740     -1089.5911 
   7   1.0000     -40.041720     -1089.5906 
   8   1.0000     -35.115828      -955.5503 
   9   1.0000     -35.111807      -955.4408 
  10   1.0000     -35.111807      -955.4408 
  11   1.0000     -35.077702      -954.5128 
  12   1.0000     -35.077689      -954.5124 
  13   1.0000     -35.077684      -954.5123 
  14   1.0000     -35.077666      -954.5118 
  15   1.0000     -35.077659      -954.5116 
  16   1.0000     -35.077653      -954.5115 
  17   1.0000     -35.077343      -954.5030 
  18   1.0000     -35.077336      -954.5028 
  19   1.0000     -35.077325      -954.5025 
  20   1.0000      -5.018903      -136.5713 
  21   1.0000      -4.992171      -135.8439 
  22   1.0000      -4.991791      -135.8335 
  23   1.0000      -4.991786      -135.8334 
  24   1.0000      -3.436898       -93.5228 
  25   1.0000      -3.436897       -93.5227 
  26   1.0000      -3.431626       -93.3793 
  27   1.0000      -3.413098       -92.8751 
  28   1.0000      -3.411347       -92.8275 
  29   1.0000      -3.411347       -92.8275 
  30   1.0000      -3.410265       -92.7980 
  31   1.0000      -3.410231       -92.7971 
  32   1.0000      -3.410225       -92.7969 
  33   1.0000      -3.409354       -92.7732 
  34   1.0000      -3.409152       -92.7677 
  35   1.0000      -3.409149       -92.7677 
  36   1.0000      -0.819294       -22.2941 
  37   1.0000      -0.810010       -22.0415 
  38   1.0000      -0.809991       -22.0410 
  39   1.0000      -0.795834       -21.6558 
  40   1.0000      -0.795477       -21.6460 
  41   1.0000      -0.795476       -21.6460 
  42   1.0000      -0.783874       -21.3303 
  43   1.0000      -0.783874       -21.3303 
  44   1.0000      -0.777166       -21.1478 
  45   1.0000      -0.769125       -20.9290 
  46   1.0000      -0.769120       -20.9288 
  47   1.0000      -0.758368       -20.6362 
  48   1.0000      -0.757959       -20.6251 
  49   1.0000      -0.757232       -20.6053 
  50   1.0000      -0.757230       -20.6053 
  51   1.0000      -0.753894       -20.5145 
  52   1.0000      -0.753880       -20.5141 
  53   1.0000      -0.744565       -20.2606 
  54   1.0000      -0.744557       -20.2604 
  55   1.0000      -0.734806       -19.9951 
  56   1.0000      -0.688794       -18.7430 
  57   0.0000      -0.466078       -12.6826 
  58   0.0000      -0.411105       -11.1867 
  59   0.0000      -0.411103       -11.1867 
  60   0.0000      -0.363387        -9.8883 
  61   0.0000      -0.296065        -8.0563 
  62   0.0000      -0.282018        -7.6741 
  63   0.0000      -0.282018        -7.6741 
  64   0.0000      -0.274219        -7.4619 
  65   0.0000      -0.274219        -7.4619 
  66   0.0000      -0.184572        -5.0225 
  67   0.0000      -0.175447        -4.7742 
  68   0.0000      -0.175446        -4.7741 
  69   0.0000      -0.162658        -4.4262 
  70   0.0000      -0.161212        -4.3868 
  71   0.0000      -0.161212        -4.3868 
  72   0.0000      -0.155514        -4.2318 
  73   0.0000      -0.134184        -3.6513 
  74   0.0000      -0.117473        -3.1966 
  75   0.0000      -0.110620        -3.0101 
  76   0.0000      -0.110620        -3.0101 
  77   0.0000      -0.109146        -2.9700 
  78   0.0000      -0.109145        -2.9700 
  79   0.0000      -0.104799        -2.8517 
  80   0.0000      -0.097075        -2.6415 
  81   0.0000      -0.097073        -2.6415 
  82   0.0000      -0.062041        -1.6882 
  83   0.0000      -0.041236        -1.1221 
  84   0.0000      -0.041234        -1.1220 
  85   0.0000      -0.036610        -0.9962 
  86   0.0000      -0.035643        -0.9699 
  87   0.0000      -0.035642        -0.9699 
  88   0.0000      -0.035526        -0.9667 
  89   0.0000      -0.021478        -0.5844 
  90   0.0000      -0.021477        -0.5844 
  91   0.0000       0.009344         0.2543 
  92   0.0000       0.009345         0.2543 
  93   0.0000       0.019123         0.5204 
  94   0.0000       0.019124         0.5204 
  95   0.0000       0.022546         0.6135 
  96   0.0000       0.024408         0.6642 
  97   0.0000       0.060878         1.6566 
  98   0.0000       0.077960         2.1214 
  99   0.0000       0.077961         2.1214 
 100   0.0000       0.084074         2.2878 
 101   0.0000       0.088803         2.4165 
 102   0.0000       0.088805         2.4165 
 103   0.0000       0.133714         3.6386 
 104   0.0000       0.133716         3.6386 
 105   0.0000       0.155401         4.2287 
 106   0.0000       0.171756         4.6737 
 107   0.0000       0.171756         4.6737 
 108   0.0000       0.172749         4.7007 
 109   0.0000       0.202619         5.5135 
 110   0.0000       0.202620         5.5136 
 111   0.0000       0.226909         6.1745 
 112   0.0000       0.273496         7.4422 
 113   0.0000       0.375477        10.2172 
 114   0.0000       0.435053        11.8384 
 115   0.0000       0.435055        11.8384 
 116   0.0000       0.437445        11.9035 
 117   0.0000       0.437446        11.9035 
 118   0.0000       0.495838        13.4924 
 119   0.0000       0.495839        13.4925 
 120   0.0000       0.498100        13.5540 
 121   0.0000       0.517667        14.0864 
 122   0.0000       0.527608        14.3569 
 123   0.0000       0.540209        14.6998 
 124   0.0000       0.540212        14.6999 
 125   0.0000       0.590077        16.0568 
 126   0.0000       0.590078        16.0568 
 127   0.0000       0.612068        16.6552 
 128   0.0000       0.626487        17.0476 
 129   0.0000       0.626488        17.0476 
 130   0.0000       0.676912        18.4197 
 131   0.0000       0.676913        18.4197 
 132   0.0000       0.691267        18.8103 
 133   0.0000       0.716063        19.4851 
 134   0.0000       0.720672        19.6105 
 135   0.0000       0.720673        19.6105 
 136   0.0000       0.746105        20.3026 
 137   0.0000       0.746109        20.3027 
 138   0.0000       0.767470        20.8839 
 139   0.0000       0.798717        21.7342 
 140   0.0000       0.798721        21.7343 
 141   0.0000       0.960617        26.1397 
 142   0.0000       0.960630        26.1401 
 143   0.0000       0.966968        26.3125 
 144   0.0000       0.973156        26.4809 
 145   0.0000       1.043378        28.3918 
 146   0.0000       1.043383        28.3919 
 147   0.0000       1.182950        32.1897 
 148   0.0000       2.487090        67.6772 
 149   0.0000       2.571305        69.9688 
 150   0.0000       2.733514        74.3827 
 151   0.0000       2.733526        74.3830 
 152   0.0000       2.827943        76.9522 
 153   0.0000       2.827955        76.9526 
 154   0.0000       2.841845        77.3305 
 155   0.0000       2.853526        77.6484 
 156   0.0000       2.853528        77.6484 
 157   0.0000       2.888823        78.6089 
 158   0.0000       2.931312        79.7651 
 159   0.0000       2.931327        79.7655 
 160   0.0000       2.979744        81.0830 
 161   0.0000       2.979751        81.0832 
 162   0.0000       3.008293        81.8598 
 163   0.0000       3.041838        82.7726 
 164   0.0000       3.065518        83.4170 
 165   0.0000       3.065526        83.4172 
 166   0.0000       3.115910        84.7882 
 167   0.0000       3.161825        86.0376 
 168   0.0000       3.171187        86.2924 
 169   0.0000       3.171190        86.2925 
 170   0.0000       3.177937        86.4761 
 171   0.0000       3.178310        86.4862 
 172   0.0000       3.184177        86.6459 
 173   0.0000       3.188641        86.7673 
 174   0.0000       3.188671        86.7682 
 175   0.0000       3.189255        86.7840 
 176   0.0000       3.190991        86.8313 
 177   0.0000       3.191021        86.8321 
 178   0.0000       3.192639        86.8761 
 179   0.0000       3.195422        86.9519 
 180   0.0000       3.195428        86.9520 
 181   0.0000       3.196425        86.9792 
 182   0.0000       3.196426        86.9792 
 183   0.0000       3.216207        87.5174 
 184   0.0000       3.216211        87.5176 
 185   0.0000       3.236986        88.0829 
 186   0.0000       3.250322        88.4458 
 187   0.0000       3.250323        88.4458 
 188   0.0000       3.254030        88.5467 
 189   0.0000       3.254032        88.5467 
 190   0.0000       3.275140        89.1211 
 191   0.0000       3.298740        89.7633 
 192   0.0000       3.420205        93.0685 
 193   0.0000       3.420209        93.0686 
 194   0.0000       3.482269        94.7574 
 195   0.0000       3.495589        95.1198 
 196   0.0000       3.495597        95.1200 
 197   0.0000       3.509220        95.4907 
 198   0.0000       3.545148        96.4684 
 199   0.0000       3.545154        96.4686 
 200   0.0000       3.565449        97.0208 
 201   0.0000       3.565476        97.0215 
 202   0.0000       3.573609        97.2428 
 203   0.0000       3.581693        97.4628 
 204   0.0000       3.581704        97.4631 
 205   0.0000       3.702641       100.7540 
 206   0.0000       3.712320       101.0174 
 207   0.0000       3.712325       101.0175 
 208   0.0000       3.759492       102.3010 
 209   0.0000       3.759496       102.3011 
 210   0.0000       3.765967       102.4772 
 211   0.0000       3.788343       103.0860 
 212   0.0000       3.804159       103.5164 
 213   0.0000       3.804182       103.5171 
 214   0.0000       3.858444       104.9936 
 215   0.0000       3.858445       104.9936 
 216   0.0000       4.007322       109.0448 
 217   0.0000       4.139081       112.6301 
 218   0.0000       4.139125       112.6313 
 219   0.0000       4.203621       114.3863 
 220   0.0000       4.945437       134.5722 
 221   0.0000      12.868775       350.1772 
 222   0.0000      12.868810       350.1781 
 223   0.0000      12.869356       350.1930 
 224   0.0000      12.869840       350.2061 
 225   0.0000      12.874212       350.3251 
 226   0.0000      12.874241       350.3259 
 227   0.0000      12.878164       350.4327 
 228   0.0000      12.878416       350.4395 
 229   0.0000      12.885588       350.6347 
 230   0.0000      12.895729       350.9106 
 231   0.0000      12.895819       350.9131 
 232   0.0000      12.895896       350.9152 
 233   0.0000      12.895931       350.9161 
 234   0.0000      12.895963       350.9170 
 235   0.0000      12.896023       350.9186 
 236   0.0000      12.896076       350.9201 
 237   0.0000      12.896284       350.9257 
 238   0.0000      12.896308       350.9264 
 239   0.0000      12.896504       350.9317 
 240   0.0000      12.896577       350.9337 
 241   0.0000      12.896589       350.9340 
 242   0.0000      12.896757       350.9386 
 243   0.0000      12.896813       350.9401 
 244   0.0000      12.896915       350.9429 
 245   0.0000      12.896923       350.9431 
 246   0.0000      12.897015       350.9456 
 247   0.0000      12.897024       350.9459 
 248   0.0000      12.897522       350.9594 
 249   0.0000      12.897559       350.9604 
 250   0.0000      12.897571       350.9607 
 251   0.0000      12.897635       350.9625 
 252   0.0000      12.897708       350.9645 
 253   0.0000      12.897710       350.9645 
 254   0.0000      12.898191       350.9776 
 255   0.0000      12.898280       350.9800 
 256   0.0000      12.898407       350.9835 
 257   0.0000      13.076280       355.8237 
 258   0.0000      13.077754       355.8638 
 259   0.0000      13.080667       355.9430 
 260   0.0000      13.080681       355.9434 
 261   0.0000      13.102698       356.5425 
 262   0.0000      13.102779       356.5448 
 263   0.0000      13.102782       356.5448 
 264   0.0000      13.104342       356.5873 
 265   0.0000      13.104402       356.5889 
 266   0.0000      13.104407       356.5891 
 267   0.0000      13.106050       356.6338 
 268   0.0000      13.106068       356.6342 
 269   0.0000      13.107475       356.6725 
 270   0.0000      13.107950       356.6855 
 271   0.0000      13.110533       356.7557 
 272   0.0000      13.111771       356.7894 
 273   0.0000      13.111789       356.7899 
 274   0.0000      13.114504       356.8638 
 275   0.0000      13.114515       356.8641 
 276   0.0000      13.122751       357.0882 
 277   0.0000      13.122760       357.0884 
 278   0.0000      13.155464       357.9784 
 279   0.0000      13.156930       358.0183 
 280   0.0000      13.156974       358.0195 
 281   0.0000      13.167380       358.3026 
 282   0.0000      13.178472       358.6045 
 283   0.0000      13.178498       358.6052 
 284   0.0000      13.456616       366.1731 

                    ********************************
                    * MULLIKEN POPULATION ANALYSIS *
                    ********************************

--------------------------------------------
MULLIKEN ATOMIC CHARGES AND SPIN POPULATIONS
--------------------------------------------
   0 Cu:    0.540965    0.010649
   1 Cu:    0.540964    0.010641
   2 Cu:    0.540963    0.010654
   3 Cu:   -0.084515    0.406036
   4 H :    0.461623    0.562020
Sum of atomic charges         :    2.0000000
Sum of atomic spin populations:    1.0000000

-----------------------------------------------------
MULLIKEN REDUCED ORBITAL CHARGES AND SPIN POPULATIONS
-----------------------------------------------------
CHARGE
  0 Cus       :     6.410010  s :     6.410010
      pz      :     4.019037  p :    12.129728
      px      :     4.011043
      py      :     4.099648
      dz2     :     1.979891  d :     9.919140
      dxz     :     1.995304
      dyz     :     1.983425
      dx2y2   :     1.991477
      dxy     :     1.969043
      f0      :     0.000023  f :     0.000157
      f+1     :     0.000010
      f-1     :     0.000020
      f+2     :     0.000016
      f-2     :     0.000025
      f+3     :     0.000026
      f-3     :     0.000036
      g0      :     0.000000  g :     0.000001
      g+1     :     0.000000
      g-1     :     0.000000
      g+2     :     0.000000
      g-2     :     0.000000
      g+3     :     0.000000
      g-3     :     0.000000
      g+4     :     0.000000
      g-4     :     0.000000
  1 Cus       :     6.410013  s :     6.410013
      pz      :     4.019036  p :    12.129724
      px      :     4.077493
      py      :     4.033194
      dz2     :     1.979889  d :     9.919143
      dxz     :     1.986395
      dyz     :     1.992334
      dx2y2   :     1.974658
      dxy     :     1.985866
      f0      :     0.000023  f :     0.000157
      f+1     :     0.000018
      f-1     :     0.000013
      f+2     :     0.000023
      f-2     :     0.000018
      f+3     :     0.000026
      f-3     :     0.000036
      g0      :     0.000000  g :     0.000001
      g+1     :     0.000000
      g-1     :     0.000000
      g+2     :     0.000000
      g-2     :     0.000000
      g+3     :     0.000000
      g-3     :     0.000000
      g+4     :     0.000000
      g-4     :     0.000000
  2 Cus       :     6.410013  s :     6.410013
      pz      :     4.019036  p :    12.129724
      px      :     4.077494
      py      :     4.033194
      dz2     :     1.979889  d :     9.919143
      dxz     :     1.986395
      dyz     :     1.992334
      dx2y2   :     1.974658
      dxy     :     1.985866
      f0      :     0.000023  f :     0.000157
      f+1     :     0.000018
      f-1     :     0.000013
      f+2     :     0.000023
      f-2     :     0.000018
      f+3     :     0.000026
      f-3     :     0.000036
      g0      :     0.000000  g :     0.000001
      g+1     :     0.000000
      g-1     :     0.000000
      g+2     :     0.000000
      g-2     :     0.000000
      g+3     :     0.000000
      g-3     :     0.000000
      g+4     :     0.000000
      g-4     :     0.000000
  3 Cus       :     7.232141  s :     7.232141
      pz      :     3.989841  p :    12.009704
      px      :     4.009932
      py      :     4.009931
      dz2     :     1.910389  d :     9.842224
      dxz     :     1.970204
      dyz     :     1.970209
      dx2y2   :     1.995711
      dxy     :     1.995711
      f0      :     0.000328  f :     0.000441
      f+1     :     0.000029
      f-1     :     0.000029
      f+2     :     0.000023
      f-2     :     0.000023
      f+3     :     0.000005
      f-3     :     0.000005
      g0      :     0.000002  g :     0.000004
      g+1     :     0.000001
      g-1     :     0.000001
      g+2     :     0.000000
      g-2     :     0.000000
      g+3     :     0.000000
      g-3     :     0.000000
      g+4     :     0.000000
      g-4     :     0.000000
  4 H s       :     0.596071  s :     0.596071
      pz      :    -0.067425  p :    -0.059993
      px      :     0.003716
      py      :     0.003716
      dz2     :     0.001226  d :     0.002299
      dxz     :     0.000518
      dyz     :     0.000518
      dx2y2   :     0.000018
      dxy     :     0.000018

SPIN
  0 Cus       :     0.008497  s :     0.008497
      pz      :    -0.006346  p :     0.001611
      px      :     0.000043
      py      :     0.007914
      dz2     :     0.002174  d :     0.000540
      dxz     :    -0.000086
      dyz     :    -0.001883
      dx2y2   :     0.000902
      dxy     :    -0.000568
      f0      :     0.000001  f :     0.000001
      f+1     :    -0.000000
      f-1     :    -0.000001
      f+2     :     0.000001
      f-2     :    -0.000000
      f+3     :    -0.000000
      f-3     :     0.000000
      g0      :     0.000000  g :     0.000000
      g+1     :    -0.000000
      g-1     :    -0.000000
      g+2     :     0.000000
      g-2     :     0.000000
      g+3     :    -0.000000
      g-3     :     0.000000
      g+4     :     0.000000
      g-4     :     0.000000
  1 Cus       :     0.008491  s :     0.008491
      pz      :    -0.006347  p :     0.001608
      px      :     0.005944
      py      :     0.002011
      dz2     :     0.002174  d :     0.000541
      dxz     :    -0.001433
      dyz     :    -0.000535
      dx2y2   :    -0.000200
      dxy     :     0.000535
      f0      :     0.000001  f :     0.000001
      f+1     :    -0.000000
      f-1     :    -0.000000
      f+2     :     0.000000
      f-2     :     0.000000
      f+3     :    -0.000000
      f-3     :     0.000000
      g0      :     0.000000  g :     0.000000
      g+1     :    -0.000000
      g-1     :    -0.000000
      g+2     :     0.000000
      g-2     :     0.000000
      g+3     :    -0.000000
      g-3     :     0.000000
      g+4     :     0.000000
      g-4     :     0.000000
  2 Cus       :     0.008501  s :     0.008501
      pz      :    -0.006347  p :     0.001611
      px      :     0.005947
      py      :     0.002011
      dz2     :     0.002174  d :     0.000541
      dxz     :    -0.001433
      dyz     :    -0.000535
      dx2y2   :    -0.000200
      dxy     :     0.000535
      f0      :     0.000001  f :     0.000001
      f+1     :    -0.000000
      f-1     :    -0.000000
      f+2     :     0.000000
      f-2     :     0.000000
      f+3     :    -0.000000
      f-3     :     0.000000
      g0      :     0.000000  g :     0.000000
      g+1     :    -0.000000
      g-1     :    -0.000000
      g+2     :     0.000000
      g-2     :     0.000000
      g+3     :    -0.000000
      g-3     :     0.000000
      g+4     :     0.000000
      g-4     :     0.000000
  3 Cus       :     0.241160  s :     0.241160
      pz      :     0.030736  p :     0.029793
      px      :    -0.000472
      py      :    -0.000471
      dz2     :     0.133600  d :     0.134969
      dxz     :     0.000297
      dyz     :     0.000297
      dx2y2   :     0.000388
      dxy     :     0.000388
      f0      :     0.000117  f :     0.000113
      f+1     :    -0.000001
      f-1     :    -0.000001
      f+2     :    -0.000001
      f-2     :    -0.000001
      f+3     :     0.000000
      f-3     :    -0.000000
      g0      :     0.000001  g :     0.000002
      g+1     :     0.000000
      g-1     :     0.000000
      g+2     :    -0.000000
      g-2     :    -0.000000
      g+3     :    -0.000000
      g-3     :    -0.000000
      g+4     :     0.000000
      g-4     :     0.000000
  4 H s       :     0.563918  s :     0.563918
      pz      :    -0.003872  p :    -0.001731
      px      :     0.001070
      py      :     0.001070
      dz2     :    -0.000307  d :    -0.000167
      dxz     :     0.000062
      dyz     :     0.000062
      dx2y2   :     0.000008
      dxy     :     0.000008


                     *******************************
                     * LOEWDIN POPULATION ANALYSIS *
                     *******************************

-------------------------------------------
LOEWDIN ATOMIC CHARGES AND SPIN POPULATIONS
-------------------------------------------
   0 Cu:    0.492390    0.029293
   1 Cu:    0.492385    0.029293
   2 Cu:    0.492385    0.029293
   3 Cu:    0.392316    0.425957
   4 H :    0.130523    0.486165

----------------------------------------------------
LOEWDIN REDUCED ORBITAL CHARGES AND SPIN POPULATIONS
----------------------------------------------------
CHARGE
  0 Cus       :     6.274904  s :     6.274904
      pz      :     4.045314  p :    12.237896
      px      :     4.018695
      py      :     4.173888
      dz2     :     2.003578  d :     9.994374
      dxz     :     1.995807
      dyz     :     1.998776
      dx2y2   :     2.004836
      dxy     :     1.991377
      f0      :     0.000044  f :     0.000434
      f+1     :     0.000029
      f-1     :     0.000095
      f+2     :     0.000037
      f-2     :     0.000048
      f+3     :     0.000112
      f-3     :     0.000069
      g0      :     0.000000  g :     0.000001
      g+1     :     0.000000
      g-1     :     0.000000
      g+2     :     0.000000
      g-2     :     0.000000
      g+3     :     0.000000
      g-3     :     0.000000
      g+4     :     0.000000
      g-4     :     0.000000
  1 Cus       :     6.274905  s :     6.274905
      pz      :     4.045314  p :    12.237896
      px      :     4.135089
      py      :     4.057494
      dz2     :     2.003577  d :     9.994378
      dxz     :     1.998034
      dyz     :     1.996549
      dx2y2   :     1.994749
      dxy     :     2.001469
      f0      :     0.000044  f :     0.000434
      f+1     :     0.000078
      f-1     :     0.000045
      f+2     :     0.000045
      f-2     :     0.000040
      f+3     :     0.000112
      f-3     :     0.000069
      g0      :     0.000000  g :     0.000001
      g+1     :     0.000000
      g-1     :     0.000000
      g+2     :     0.000000
      g-2     :     0.000000
      g+3     :     0.000000
      g-3     :     0.000000
      g+4     :     0.000000
      g-4     :     0.000000
  2 Cus       :     6.274905  s :     6.274905
      pz      :     4.045314  p :    12.237896
      px      :     4.135089
      py      :     4.057494
      dz2     :     2.003577  d :     9.994378
      dxz     :     1.998034
      dyz     :     1.996549
      dx2y2   :     1.994749
      dxy     :     2.001469
      f0      :     0.000044  f :     0.000434
      f+1     :     0.000078
      f-1     :     0.000045
      f+2     :     0.000045
      f-2     :     0.000040
      f+3     :     0.000112
      f-3     :     0.000069
      g0      :     0.000000  g :     0.000001
      g+1     :     0.000000
      g-1     :     0.000000
      g+2     :     0.000000
      g-2     :     0.000000
      g+3     :     0.000000
      g-3     :     0.000000
      g+4     :     0.000000
      g-4     :     0.000000
  3 Cus       :     6.317933  s :     6.317933
      pz      :     4.421868  p :    12.453875
      px      :     4.016004
      py      :     4.016003
      dz2     :     1.867915  d :     9.834862
      dxz     :     1.984767
      dyz     :     1.984773
      dx2y2   :     1.998703
      dxy     :     1.998703
      f0      :     0.000705  f :     0.001009
      f+1     :     0.000089
      f-1     :     0.000089
      f+2     :     0.000053
      f-2     :     0.000053
      f+3     :     0.000009
      f-3     :     0.000010
      g0      :     0.000003  g :     0.000005
      g+1     :     0.000000
      g-1     :     0.000000
      g+2     :     0.000000
      g-2     :     0.000000
      g+3     :     0.000000
      g-3     :     0.000000
      g+4     :     0.000000
      g-4     :     0.000000
  4 H s       :     0.745178  s :     0.745178
      pz      :     0.081779  p :     0.108904
      px      :     0.013563
      py      :     0.013562
      dz2     :     0.007640  d :     0.015395
      dxz     :     0.003692
      dyz     :     0.003692
      dx2y2   :     0.000186
      dxy     :     0.000186

SPIN
  0 Cus       :     0.003694  s :     0.003694
      pz      :     0.008723  p :     0.014114
      px      :     0.000057
      py      :     0.005333
      dz2     :     0.009897  d :     0.011487
      dxz     :    -0.000095
      dyz     :     0.001039
      dx2y2   :     0.001102
      dxy     :    -0.000455
      f0      :     0.000003  f :    -0.000002
      f+1     :    -0.000000
      f-1     :    -0.000004
      f+2     :    -0.000001
      f-2     :    -0.000000
      f+3     :    -0.000000
      f-3     :     0.000000
      g0      :     0.000000  g :     0.000000
      g+1     :    -0.000000
      g-1     :    -0.000000
      g+2     :    -0.000000
      g-2     :    -0.000000
      g+3     :    -0.000000
      g-3     :     0.000000
      g+4     :     0.000000
      g-4     :    -0.000000
  1 Cus       :     0.003693  s :     0.003693
      pz      :     0.008723  p :     0.014114
      px      :     0.004014
      py      :     0.001376
      dz2     :     0.009897  d :     0.011488
      dxz     :     0.000755
      dyz     :     0.000188
      dx2y2   :    -0.000065
      dxy     :     0.000713
      f0      :     0.000003  f :    -0.000002
      f+1     :    -0.000003
      f-1     :    -0.000001
      f+2     :    -0.000000
      f-2     :    -0.000000
      f+3     :    -0.000000
      f-3     :     0.000000
      g0      :     0.000000  g :    -0.000000
      g+1     :    -0.000000
      g-1     :    -0.000000
      g+2     :    -0.000000
      g-2     :    -0.000000
      g+3     :    -0.000000
      g-3     :     0.000000
      g+4     :    -0.000000
      g-4     :     0.000000
  2 Cus       :     0.003693  s :     0.003693
      pz      :     0.008723  p :     0.014114
      px      :     0.004014
      py      :     0.001376
      dz2     :     0.009897  d :     0.011488
      dxz     :     0.000755
      dyz     :     0.000188
      dx2y2   :    -0.000065
      dxy     :     0.000713
      f0      :     0.000003  f :    -0.000002
      f+1     :    -0.000003
      f-1     :    -0.000001
      f+2     :    -0.000000
      f-2     :    -0.000000
      f+3     :    -0.000000
      f-3     :     0.000000
      g0      :     0.000000  g :    -0.000000
      g+1     :    -0.000000
      g-1     :    -0.000000
      g+2     :    -0.000000
      g-2     :    -0.000000
      g+3     :    -0.000000
      g-3     :     0.000000
      g+4     :    -0.000000
      g-4     :     0.000000
  3 Cus       :     0.087159  s :     0.087159
      pz      :     0.171721  p :     0.171301
      px      :    -0.000210
      py      :    -0.000210
      dz2     :     0.165846  d :     0.166956
      dxz     :     0.000474
      dyz     :     0.000474
      dx2y2   :     0.000082
      dxy     :     0.000082
      f0      :     0.000542  f :     0.000538
      f+1     :    -0.000002
      f-1     :    -0.000002
      f+2     :    -0.000001
      f-2     :    -0.000001
      f+3     :     0.000000
      f-3     :     0.000000
      g0      :     0.000002  g :     0.000002
      g+1     :     0.000000
      g-1     :     0.000000
      g+2     :    -0.000000
      g-2     :    -0.000000
      g+3     :    -0.000000
      g-3     :     0.000000
      g+4     :     0.000000
      g-4     :    -0.000000
  4 H s       :     0.483915  s :     0.483915
      pz      :    -0.000076  p :     0.002413
      px      :     0.001244
      py      :     0.001244
      dz2     :    -0.000349  d :    -0.000163
      dxz     :     0.000084
      dyz     :     0.000084
      dx2y2   :     0.000009
      dxy     :     0.000009


                      *****************************
                      * MAYER POPULATION ANALYSIS *
                      *****************************

  NA   - Mulliken gross atomic population
  ZA   - Total nuclear charge
  QA   - Mulliken gross atomic charge
  VA   - Mayer's total valence
  BVA  - Mayer's bonded valence
  FA   - Mayer's free valence

  ATOM       NA         ZA         QA         VA         BVA        FA
  0 Cu    28.4590    29.0000     0.5410     0.9166     0.9156     0.0010
  1 Cu    28.4590    29.0000     0.5410     0.9166     0.9156     0.0010
  2 Cu    28.4590    29.0000     0.5410     0.9166     0.9156     0.0010
  3 Cu    29.0845    29.0000    -0.0845     1.3489     0.9992     0.3498
  4 H      0.5384     1.0000     0.4616     0.5251     0.1927     0.3324

  Mayer bond orders larger than 0.100000
B(  0-Cu,  1-Cu) :   0.3033 B(  0-Cu,  2-Cu) :   0.3033 B(  0-Cu,  3-Cu) :   0.2889 
B(  1-Cu,  2-Cu) :   0.3033 B(  1-Cu,  3-Cu) :   0.2890 B(  2-Cu,  3-Cu) :   0.2890 
B(  3-Cu,  4-H ) :   0.1323 

-------
TIMINGS
-------

Total SCF time: 0 days 0 hours 0 min 24 sec 

Total time                  ....      24.872 sec
Sum of individual times     ....      24.568 sec  ( 98.8%)

Fock matrix formation       ....      23.129 sec  ( 93.0%)
  XC integration            ....       1.624 sec  (  7.0% of F)
    Basis function eval.    ....       0.143 sec  (  8.8% of XC)
    Density eval.           ....       0.210 sec  ( 13.0% of XC)
    XC-Functional eval.     ....       0.036 sec  (  2.2% of XC)
    XC-Potential eval.      ....       0.387 sec  ( 23.9% of XC)
Diagonalization             ....       0.558 sec  (  2.2%)
Density matrix formation    ....       0.049 sec  (  0.2%)
Population analysis         ....       0.029 sec  (  0.1%)
Initial guess               ....       0.156 sec  (  0.6%)
Orbital Transformation      ....       0.000 sec  (  0.0%)
Orbital Orthonormalization  ....       0.000 sec  (  0.0%)
DIIS solution               ....       0.248 sec  (  1.0%)
Grid generation             ....       0.398 sec  (  1.6%)


           ************************************************************
           *        Program running with 24 parallel MPI-processes    *
           *              working on a common directory               *
           ************************************************************

------------------------------------------------------------------------------
                                ORCA  MP2 
------------------------------------------------------------------------------

Freezing NCore=40 chemical core electrons

-------------
RI-MP2 ENERGY
-------------
Dimension of the basis                    ...  285
Memory devoted to MP2                     ... 5000 MB   
Data format for buffers                   ... DOUBLE
Compression type for matrix containers    ... UNCOMPRESSED
Overall scaling of the MP2 energy         ...   2.700e-01
Calculating two index integrals           ... done (    0.015 sec)
Cholesky decomposition of V**-1           ... done (    0.047 sec)

-----------------
RI-TRANSFORMATION (AUX index driven)
-----------------

Dimension of the orbital-basis         ... 285
Dimension of the aux-basis             ... 939
Transformation of internal/external MOs...   20-  57 to   58- 284
Number Format for Storage              ... Double (8 Byte)
Integral mode                          ... Direct

First Phase: integral generation and transformation of MO indices
  Aux angular momentum 0               ... done (    0.004 sec)
  Aux angular momentum 1               ... done (    0.008 sec)
  Aux angular momentum 2               ... done (    0.014 sec)
  Aux angular momentum 3               ... done (    0.021 sec)
  Aux angular momentum 4               ... done (    0.014 sec)
  Aux angular momentum 5               ... done (    0.021 sec)
  Aux angular momentum 6               ... done (    0.028 sec)
Closing buffer VIA ( 0.06 GB; CompressionRatio= 1.00)
  Phase 1 completed in     0.186 sec
Second Phase: sorting and transformation of aux index

IA-Transformation
Memory available                       ... 4986 MB 
Max. # MO pairs treated in a batch     ... 2    
# of internal orbitals                 ... 38
# batches for internal orbitals        ... 1
Closing buffer IAV ( 0.00 GB; CompressionRatio= 1.00)
(ia|v) transformation done in     0.041 sec

  Phase 2 completed in     0.098 sec
RI-Integral transformation completed in     0.284 sec

-----------------
RI-TRANSFORMATION (AUX index driven)
-----------------

Dimension of the orbital-basis         ... 285
Dimension of the aux-basis             ... 939
Transformation of internal/external MOs...   20-  56 to   57- 284
Number Format for Storage              ... Double (8 Byte)
Integral mode                          ... Direct

First Phase: integral generation and transformation of MO indices
  Aux angular momentum 0               ... done (    0.004 sec)
  Aux angular momentum 1               ... done (    0.008 sec)
  Aux angular momentum 2               ... done (    0.014 sec)
  Aux angular momentum 3               ... done (    0.021 sec)
  Aux angular momentum 4               ... done (    0.014 sec)
  Aux angular momentum 5               ... done (    0.021 sec)
  Aux angular momentum 6               ... done (    0.028 sec)
Closing buffer VIA ( 0.06 GB; CompressionRatio= 1.00)
  Phase 1 completed in     0.190 sec
Second Phase: sorting and transformation of aux index

IA-Transformation
Memory available                       ... 4986 MB 
Max. # MO pairs treated in a batch     ... 2    
# of internal orbitals                 ... 37
# batches for internal orbitals        ... 1
Closing buffer IAV ( 0.00 GB; CompressionRatio= 1.00)
(ia|v) transformation done in     0.039 sec

  Phase 2 completed in     0.094 sec
RI-Integral transformation completed in     0.285 sec
Opening buffers                              ... done

Starting loop over batches of integrals:

Operator 0  - window                       ... ( 20- 57)x( 58-284)
Operator 0  - Memory available             ...  5000 MB
Operator 0  - Memory needed per MO         ...   1.6 MB
Operator 0  - Number of orbitals per batch ... 2
Operator 0  - Number of batches            ... 1

OPERATOR  0   PASS   0:  MOs    20 ...   21 +   22 ...   23 +   24 ...   25 +   26 ...   27
                            +   28 ...   29 +   30 ...   31 +   32 ...   33 +   34 ...   35
                            +   36 ...   37 +   38 ...   39 +   40 ...   41 +   42 ...   43
                            +   44 ...   45 +   46 ...   47 +   48 ...   49 +   50 ...   51
                            +   52 ...   53 +   54 ...   55 +   56 ...   57
  Reading integrals       ... ok

Operator 1  - window                       ... ( 20- 56)x( 57-284)
Operator 1  - Memory available             ...  5000 MB
Operator 1  - Memory needed per MO         ...   1.6 MB
Operator 1  - Number of orbitals per batch ... 2
Operator 1  - Number of batches            ... 1

OPERATOR  1   PASS   0:  MOs    20 ...   21 +   22 ...   23 +   24 ...   25 +   26 ...   27
                            +   28 ...   29 +   30 ...   31 +   32 ...   33 +   34 ...   35
                            +   36 ...   37 +   38 ...   39 +   40 ...   41 +   42 ...   43
                            +   44 ...   45 +   46 ...   47 +   48 ...   49 +   50 ...   51
                            +   52 ...   53 +   54 ...   55 +   56 ...   56
  Reading integrals       ... ok
Time spent in pair loops =     0.665 sec
Deleting buffer (Ka|jb)[aa] ...done
Deleting buffer (Ka|jb)[ab] ...done
Deleting buffer (Ka|jb)[ba] ...done
Deleting buffer (Ka|jb)[bb] ...done

Correlation energy components}
 E2 and T2 for alpha/alpha pairs :     -0.187972301 Eh      0.000000000
 E2 and T2 for beta/beta   pairs :     -0.189568885 Eh      0.000000000
 E2 and T2 for alpha/beta  pairs :     -0.708954269 Eh      0.000000000


-----------------------------------------------
 RI-MP2 CORRELATION ENERGY:     -1.086495455 Eh
-----------------------------------------------


-------
TIMINGS
-------

Total time                :    1.474 sec
Integral trafo            :    0.582 sec ( 39.5%)
I/O of integrals          :    0.005 sec (  0.3%)
K(i,j) Operators          :    0.347 sec ( 23.6%)
T(i,j) pair energies      :    0.017 sec (  1.2%)
V-calculation             :    0.015 sec (  1.0%)
V**(-1/2)                 :    0.047 sec (  3.2%)
Gamma(ia|P)               :    0.000 sec (  0.0%)
Gamma-Trafo               :    0.000 sec (  0.0%)
D(virtual)                :    0.000 sec (  0.0%)
D(internal)               :    0.000 sec (  0.0%)
W(virtual)                :    0.000 sec (  0.0%)
W(internal)               :    0.000 sec (  0.0%)
L(virtual)                :    0.000 sec (  0.0%)
L(internal)               :    0.000 sec (  0.0%)
G(D)                      :    0.000 sec (  0.0%)
G(Z)                      :    0.000 sec (  0.0%)
Z-Vector Solution         :    0.000 sec (  0.0%)
Z-Vector Solution         :    0.000 sec (  0.0%)
3-Index Derivative 
+ Separable RIJ part      :    0.000 sec (  0.0%)
2-Index Derivative 
+ Separable RIJ part      :    0.000 sec (  0.0%)
Separable Gradient (X)    :    0.000 sec (  0.0%)


---------------------------------------
MP2 TOTAL ENERGY:    -6561.332485731 Eh
---------------------------------------


-------------------------------------------------------------------------------
                          DFT DISPERSION CORRECTION                            
                                                                               
                              DFTD3 V3.1  Rev 1                                
                          USING Becke-Johnson damping                          
-------------------------------------------------------------------------------
The B2PLYP functional is recognized
Active option DFTDOPT                   ...         4   

molecular C6(AA) [au] = 2983.569509 


            DFT-D V3
 parameters
 s6 scaling factor         :     0.6400 
 a1 scaling factor         :     0.3065 
 s8 scaling factor         :     0.9147 
 a2 scaling factor         :     5.0570 
 ad hoc parameters k1-k3   :    16.0000     1.3333    -4.0000 

 Edisp/kcal,au: -5.578685650723  -0.008890200525 
 E6   /kcal   :  -1.953019635 
 E8   /kcal   :  -3.625666016 
 % E8         :  64.991401963 

-------------------------   ----------------
Dispersion correction           -0.008890201
-------------------------   ----------------


-------------------------   --------------------
FINAL SINGLE POINT ENERGY     -6561.341375931886
-------------------------   --------------------


                            ***************************************
                            *     ORCA property calculations      *
                            ***************************************


  WARNING: The energy has been calculated at the MP2 level but the densities
           used in the property calculations are still SCF densities
           MP2 response densities have not been calculated 
           use %mp2 Density relaxed end
           or  %mp2 Density unrelaxed end

                                    ---------------------
                                    Active property flags
                                    ---------------------
   (+) Dipole Moment


------------------------------------------------------------------------------
                       ORCA ELECTRIC PROPERTIES CALCULATION
------------------------------------------------------------------------------

Dipole Moment Calculation                       ... on
Quadrupole Moment Calculation                   ... off
Polarizability Calculation                      ... off
GBWName                                         ... Cu04C2_H_A.gbw
Electron density file                           ... Cu04C2_H_A.scfp
The origin for moment calculation is the CENTER OF MASS  = ( 0.000000,  0.000000 -0.026728)

-------------
DIPOLE MOMENT
-------------
                                X             Y             Z
Electronic contribution:     -0.00000       0.00003      -3.19445
Nuclear contribution   :      0.00000       0.00000       3.12710
                        -----------------------------------------
Total Dipole Moment    :     -0.00000       0.00003      -0.06735
                        -----------------------------------------
Magnitude (a.u.)       :      0.06735
Magnitude (Debye)      :      0.17119



--------------------
Rotational spectrum 
--------------------
 
Rotational constants in cm-1:     0.044993     0.041927     0.041927 
Rotational constants in MHz :  1348.855174  1256.945404  1256.945373 

 Dipole components along the rotational axes: 
x,y,z [a.u.] :    -0.067348     0.000031    -0.000000 
x,y,z [Debye]:    -0.171185     0.000079    -0.000000 

 

Timings for individual modules:

Sum of individual times         ...       28.172 sec (=   0.470 min)
GTO integral calculation        ...        0.984 sec (=   0.016 min)   3.5 %
SCF iterations                  ...       25.207 sec (=   0.420 min)  89.5 %
MP2 module                      ...        1.981 sec (=   0.033 min)   7.0 %
                             ****ORCA TERMINATED NORMALLY****
TOTAL RUN TIME: 0 days 0 hours 0 minutes 28 seconds 683 msec
