
                                 *****************
                                 * O   R   C   A *
                                 *****************

           --- An Ab Initio, DFT and Semiempirical electronic structure package ---

                  #######################################################
                  #                        -***-                        #
                  #          Department of theory and spectroscopy      #
                  #               Directorship: Frank Neese             #
                  #        Max Planck Institute fuer Kohlenforschung    #
                  #                Kaiser Wilhelm Platz 1               #
                  #                 D-45470 Muelheim/Ruhr               #
                  #                      Germany                        #
                  #                                                     #
                  #                  All rights reserved                #
                  #                        -***-                        #
                  #######################################################


                         Program Version 4.2.0 -  RELEASE  -


 With contributions from (in alphabetic order):
   Daniel Aravena         : Magnetic Suceptibility
   Michael Atanasov       : Ab Initio Ligand Field Theory (pilot matlab implementation)
   Alexander A. Auer      : GIAO ZORA, VPT2
   Ute Becker             : Parallelization
   Giovanni Bistoni       : ED, misc. LED, open-shell LED, HFLED
   Martin Brehm           : Molecular dynamics
   Dmytro Bykov           : SCF Hessian
   Vijay G. Chilkuri      : MRCI spin determinant printing, contributions to CSF-ICE
   Dipayan Datta          : RHF DLPNO-CCSD density
   Achintya Kumar Dutta   : EOM-CC, STEOM-CC
   Dmitry Ganyushin       : Spin-Orbit,Spin-Spin,Magnetic field MRCI
   Miquel Garcia          : C-PCM Hessian, Gaussian charge scheme
   Yang Guo               : DLPNO-NEVPT2, CIM, IAO-localization
   Andreas Hansen         : Spin unrestricted coupled pair/coupled cluster methods
   Benjamin Helmich-Paris : CASSCF linear response (MC-RPA)
   Lee Huntington         : MR-EOM, pCC
   Robert Izsak           : Overlap fitted RIJCOSX, COSX-SCS-MP3, EOM
   Christian Kollmar      : KDIIS, OOCD, Brueckner-CCSD(T), CCSD density
   Simone Kossmann        : Meta GGA functionals, TD-DFT gradient, OOMP2, MP2 Hessian
   Martin Krupicka        : AUTO-CI
   Lucas Lang             : DCDCAS
   Dagmar Lenk            : GEPOL surface, SMD
   Dimitrios Liakos       : Extrapolation schemes; Compound Job, initial MDCI parallelization
   Dimitrios Manganas     : Further ROCIS development; embedding schemes
   Dimitrios Pantazis     : SARC Basis sets
   Taras Petrenko         : DFT Hessian,TD-DFT gradient, ASA, ECA, R-Raman, ABS, FL, XAS/XES, NRVS
   Peter Pinski           : DLPNO-MP2, DLPNO-MP2 Gradient
   Christoph Reimann      : Effective Core Potentials
   Marius Retegan         : Local ZFS, SOC
   Christoph Riplinger    : Optimizer, TS searches, QM/MM, DLPNO-CCSD(T), (RO)-DLPNO pert. Triples
   Tobias Risthaus        : Range-separated hybrids, TD-DFT gradient, RPA, STAB
   Michael Roemelt        : Original ROCIS implementation
   Masaaki Saitow         : Open-shell DLPNO-CCSD energy and density
   Barbara Sandhoefer     : DKH picture change effects
   Avijit Sen             : IP-ROCIS
   Kantharuban Sivalingam : CASSCF convergence, NEVPT2, FIC-MRCI
   Bernardo de Souza      : ESD, SOC TD-DFT
   Georgi Stoychev        : AutoAux, RI-MP2 NMR
   Willem Van den Heuvel  : Paramagnetic NMR
   Boris Wezisla          : Elementary symmetry handling
   Frank Wennmohs         : Technical directorship


 We gratefully acknowledge several colleagues who have allowed us to
 interface, adapt or use parts of their codes:
   Stefan Grimme, W. Hujo, H. Kruse,             : VdW corrections, initial TS optimization,
                  C. Bannwarth                     DFT functionals, gCP, sTDA/sTD-DF
   Ed Valeev, F. Pavosevic, A. Kumar             : LibInt (2-el integral package), F12 methods
   Garnet Chan, S. Sharma, J. Yang, R. Olivares  : DMRG
   Ulf Ekstrom                                   : XCFun DFT Library
   Mihaly Kallay                                 : mrcc  (arbitrary order and MRCC methods)
   Andreas Klamt, Michael Diedenhofen            : otool_cosmo (COSMO solvation model)
   Jiri Pittner, Ondrej Demel                    : Mk-CCSD
   Frank Weinhold                                : gennbo (NPA and NBO analysis)
   Christopher J. Cramer and Donald G. Truhlar   : smd solvation model
   Lars Goerigk                                  : TD-DFT with DH, B97 family of functionals
   V. Asgeirsson, H. Jonsson                     : NEB implementation
   FAccTs GmbH                                   : IRC, NEB, NEB-TS, Multilevel, MM, QM/MM, CI optimization
   S Lehtola, MJT Oliveira, MAL Marques          : LibXC Library


 Your calculation uses the libint2 library for the computation of 2-el integrals
 For citations please refer to: http://libint.valeyev.net

 Your ORCA version has been built with support for libXC version: 4.2.3
 For citations please refer to: https://tddft.org/programs/libxc/

 This ORCA versions uses:
   CBLAS   interface :  Fast vector & matrix operations
   LAPACKE interface :  Fast linear algebra routines
   SCALAPACK package :  Parallel linear algebra routines


Your calculation utilizes the atom-pairwise dispersion correction
with the Becke-Johnson damping scheme (D3BJ)
Cite in your paper:
S.Grimme, S.Ehrlich, L.Goerigk, J Comput Chem, (2011), 32, 1456–1465 
S.Grimme, J.Antony, S.Ehrlich and H.Krieg, J.Chem.Phys., 132, (2010), 154104 
   

----- Orbital basis set information -----
Your calculation utilizes the basis: def2-TZVPPD
   F. Weigend and R. Ahlrichs, Phys. Chem. Chem. Phys. 7, 3297 (2005).
   D. Rappoport and F. Furche, J. Chem. Phys. 133 134105 (2010).

----- AuxC basis set information -----
Your calculation utilizes the auxiliary basis: def2-TZVPPD/C
   A. Hellweg, C. Hattig, S. Hofener and W. Klopper, Theor. Chem. Acc. 117, 587 (2007).

----- AuxJK basis set information -----
Your calculation utilizes the auxiliary basis: def2/JK
   H-Ba, Hf-Rn: F. Weigend, J. Comput. Chem. 29, 167 (2008).

================================================================================
                                        WARNINGS
                       Please study these warnings very carefully!
================================================================================


WARNING: your system is open-shell and RHF/RKS was chosen
  ===> : WILL SWITCH to UHF/UKS


WARNING: No MP2 level density has been requested!
         To caclulate MP2 level properties use
         %mp2 Density relaxed end
         or
         %mp2 Density unrelaxed end
         Otherwise for double-hybrid DFT only the energy is correct!

WARNING: The frozen-core approximation is turned on by default for 
         the MP2 part of double-hybrid DFT.

INFO   : the flag for use of LIBINT has been found!

================================================================================
                                       INPUT FILE
================================================================================
NAME = Cu04C2_H_F.in
|  1> #
|  2> # Cu04C2_H_F ri-B2PLYP-D3BJ/Def2-TZVPPD
|  3> #
|  4> ! rijk ri-b2plyp d3bj def2-tzvppd def2/jk def2-tzvppd/c grid4 nofinalgrid
|  5> 
|  6> *xyz 2 2
|  7> Cu      -0.000000    1.387730   -0.507533 
|  8> Cu       1.201809   -0.693865   -0.507533 
|  9> Cu      -1.201809   -0.693865   -0.507533 
| 10> Cu       0.000000    0.000000    1.576640 
| 11> H        0.000000    0.000000   -1.567185 
| 12> *
| 13> 
| 14> %maxcore 5000
| 15> 
| 16> %pal
| 17> nprocs = 24
| 18> end
| 19> 
| 20> 
| 21>                          ****END OF INPUT****
================================================================================

                       ****************************
                       * Single Point Calculation *
                       ****************************

---------------------------------
CARTESIAN COORDINATES (ANGSTROEM)
---------------------------------
  Cu    -0.000000    1.387730   -0.507533
  Cu     1.201809   -0.693865   -0.507533
  Cu    -1.201809   -0.693865   -0.507533
  Cu     0.000000    0.000000    1.576640
  H      0.000000    0.000000   -1.567185

----------------------------
CARTESIAN COORDINATES (A.U.)
----------------------------
  NO LB      ZA    FRAG     MASS         X           Y           Z
   0 Cu   29.0000    0    63.550   -0.000000    2.622430   -0.959098
   1 Cu   29.0000    0    63.550    2.271090   -1.311215   -0.959098
   2 Cu   29.0000    0    63.550   -2.271090   -1.311215   -0.959098
   3 Cu   29.0000    0    63.550    0.000000    0.000000    2.979418
   4 H     1.0000    0     1.008    0.000000    0.000000   -2.961550

--------------------------------
INTERNAL COORDINATES (ANGSTROEM)
--------------------------------
 Cu     0   0   0     0.000000000000     0.00000000     0.00000000
 Cu     1   0   0     2.403618650391     0.00000000     0.00000000
 Cu     2   1   0     2.403618000000    60.00000895     0.00000000
 Cu     2   1   3     2.503911061646    61.31637692   288.41368009
 H      2   1   3     1.746040054469    46.50387012    56.78304359

---------------------------
INTERNAL COORDINATES (A.U.)
---------------------------
 Cu     0   0   0     0.000000000000     0.00000000     0.00000000
 Cu     1   0   0     4.542180979624     0.00000000     0.00000000
 Cu     2   1   0     4.542179750564    60.00000895     0.00000000
 Cu     2   1   3     4.731706170208    61.31637692   288.41368009
 H      2   1   3     3.299537521803    46.50387012    56.78304359

---------------------
BASIS SET INFORMATION
---------------------
There are 2 groups of distinct atoms

 Group   1 Type Cu  : 17s13p7d2f1g contracted to 6s6p4d2f1g pattern {842111/631111/4111/11/1}
 Group   2 Type H   : 5s3p1d contracted to 3s3p1d pattern {311/111/1}

Atom   0Cu   basis set group =>   1
Atom   1Cu   basis set group =>   1
Atom   2Cu   basis set group =>   1
Atom   3Cu   basis set group =>   1
Atom   4H    basis set group =>   2
---------------------------------
AUXILIARY/C BASIS SET INFORMATION
---------------------------------
There are 2 groups of distinct atoms

 Group   1 Type Cu  : 10s10p9d7f5g3h1i contracted to 10s10p9d7f5g3h1i pattern {1111111111/1111111111/111111111/1111111/11111/111/1}
 Group   2 Type H   : 5s4p3d1f contracted to 5s4p3d1f pattern {11111/1111/111/1}

Atom   0Cu   basis set group =>   1
Atom   1Cu   basis set group =>   1
Atom   2Cu   basis set group =>   1
Atom   3Cu   basis set group =>   1
Atom   4H    basis set group =>   2
----------------------------------
AUXILIARY/JK BASIS SET INFORMATION
----------------------------------
There are 2 groups of distinct atoms

 Group   1 Type Cu  : 19s14p12d10f7g3h1i contracted to 16s13p11d9f5g3h1i pattern {4111111111111111/2111111111111/21111111111/211111111/31111/111/1}
 Group   2 Type H   : 4s2p2d contracted to 2s2p2d pattern {31/11/11}

Atom   0Cu   basis set group =>   1
Atom   1Cu   basis set group =>   1
Atom   2Cu   basis set group =>   1
Atom   3Cu   basis set group =>   1
Atom   4H    basis set group =>   2


           ************************************************************
           *        Program running with 24 parallel MPI-processes    *
           *              working on a common directory               *
           ************************************************************
------------------------------------------------------------------------------
                           ORCA GTO INTEGRAL CALCULATION
                           -- RI-GTO INTEGRALS CHOSEN --
------------------------------------------------------------------------------

                         BASIS SET STATISTICS AND STARTUP INFO

Gaussian basis set:
 # of primitive gaussian shells          ...  169
 # of primitive gaussian functions       ...  475
 # of contracted shells                  ...   83
 # of contracted basis functions         ...  285
 Highest angular momentum                ...    4
 Maximum contraction depth               ...    8
Auxiliary gaussian basis set:
 # of primitive gaussian shells          ...  272
 # of primitive gaussian functions       ... 1220
 # of contracted shells                  ...  238
 # of contracted aux-basis functions     ... 1074
 Highest angular momentum                ...    6
 Maximum contraction depth               ...    4
Ratio of auxiliary to basis functions    ...  3.77
Integral package used                  ... LIBINT
 One Electron integrals                  ... done
 Ordering auxiliary basis shells         ... done
 Integral threshhold             Thresh  ...  1.000e-10
 Primitive cut-off               TCut    ...  1.000e-11
 Pre-screening matrix                    ... done
 Shell pair data                         ... 
 Ordering of the shell pairs             ... done (   0.000 sec) 3203 of 3486 pairs
 Determination of significant pairs      ... done (   0.000 sec)
 Creation of shell pair data             ... done (   0.000 sec)
 Storage of shell pair data              ... done (   0.015 sec)
 Shell pair data done in (   0.016 sec)
 Computing two index integrals           ... done
 Cholesky decomposition of the V-matrix  ... done


Timings:
 Total evaluation time                   ...   0.587 sec (  0.010 min)
 One electron matrix time                ...   0.048 sec (  0.001 min) =  8.2%
 Schwartz matrix evaluation time         ...   0.246 sec (  0.004 min) = 41.9%
 Two index repulsion integral time       ...   0.196 sec (  0.003 min) = 33.4%
 Cholesky decomposition of V             ...   0.052 sec (  0.001 min) =  8.8%
 Three index repulsion integral time     ...   0.000 sec (  0.000 min) =  0.0%



           ************************************************************
           *        Program running with 24 parallel MPI-processes    *
           *              working on a common directory               *
           ************************************************************
-------------------------------------------------------------------------------
                                 ORCA SCF
-------------------------------------------------------------------------------

------------
SCF SETTINGS
------------
Hamiltonian:
 Density Functional     Method          .... DFT(GTOs)
 Exchange Functional    Exchange        .... B88
   X-Alpha parameter    XAlpha          ....  0.666667
   Becke's b parameter  XBeta           ....  0.004200
 Correlation Functional Correlation     .... LYP
 LDA part of GGA corr.  LDAOpt          .... VWN-3
 Gradients option       PostSCFGGA      .... off
 Hybrid DFT is turned on
   Fraction HF Exchange ScalHFX         ....  0.530000
   Scaling of DF-GGA-X  ScalDFX         ....  0.470000
   Scaling of DF-GGA-C  ScalDFC         ....  0.730000
   Scaling of DF-LDA-C  ScalLDAC        ....  0.730000
   Perturbative correction              ....  0.270000
   Density functional embedding theory  .... OFF
 RI-approximation to the Coulomb term is turned on
   Number of auxiliary basis functions  .... 1074
   RI-JK (J+K treated both via RI)      .... on


General Settings:
 Integral files         IntName         .... Cu04C2_H_F
 Hartree-Fock type      HFTyp           .... UHF
 Total Charge           Charge          ....    2
 Multiplicity           Mult            ....    2
 Number of Electrons    NEL             ....  115
 Basis Dimension        Dim             ....  285
 Nuclear Repulsion      ENuc            ....   1119.9202277639 Eh

Convergence Acceleration:
 DIIS                   CNVDIIS         .... on
   Start iteration      DIISMaxIt       ....    12
   Startup error        DIISStart       ....  0.200000
   # of expansion vecs  DIISMaxEq       ....     5
   Bias factor          DIISBfac        ....   1.050
   Max. coefficient     DIISMaxC        ....  10.000
 Newton-Raphson         CNVNR           .... off
 SOSCF                  CNVSOSCF        .... off
 Level Shifting         CNVShift        .... on
   Level shift para.    LevelShift      ....    0.2500
   Turn off err/grad.   ShiftErr        ....    0.0010
 Zerner damping         CNVZerner       .... off
 Static damping         CNVDamp         .... on
   Fraction old density DampFac         ....    0.7000
   Max. Damping (<1)    DampMax         ....    0.9800
   Min. Damping (>=0)   DampMin         ....    0.0000
   Turn off err/grad.   DampErr         ....    0.1000
 Fernandez-Rico         CNVRico         .... off

SCF Procedure:
 Maximum # iterations   MaxIter         ....   125
 SCF integral mode      SCFMode         .... Direct
   Integral package                     .... LIBINT
 Reset frequency        DirectResetFreq ....    20
 Integral Threshold     Thresh          ....  1.000e-10 Eh
 Primitive CutOff       TCut            ....  1.000e-11 Eh

Convergence Tolerance:
 Convergence Check Mode ConvCheckMode   .... Total+1el-Energy
 Convergence forced     ConvForced      .... 0
 Energy Change          TolE            ....  1.000e-06 Eh
 1-El. energy change                    ....  1.000e-03 Eh
 DIIS Error             TolErr          ....  1.000e-06


Diagonalization of the overlap matrix:
Smallest eigenvalue                        ... 6.380e-04
Time for diagonalization                   ...    0.012 sec
Threshold for overlap eigenvalues          ... 1.000e-08
Number of eigenvalues below threshold      ... 0
Time for construction of square roots      ...    0.010 sec
Total time needed                          ...    0.023 sec

-------------------
DFT GRID GENERATION
-------------------

General Integration Accuracy     IntAcc      ...  4.670
Radial Grid Type                 RadialGrid  ... Gauss-Chebyshev
Angular Grid (max. acc.)         AngularGrid ... Lebedev-302
Angular grid pruning method      GridPruning ... 3 (G Style)
Weight generation scheme         WeightScheme... Becke
Basis function cutoff            BFCut       ...    1.0000e-10
Integration weight cutoff        WCut        ...    1.0000e-14
Grids for H and He will be reduced by one unit

# of grid points (after initial pruning)     ...  41618 (   0.0 sec)
# of grid points (after weights+screening)   ...  40798 (   0.0 sec)
nearest neighbour list constructed           ...    0.0 sec
Grid point re-assignment to atoms done       ...    0.0 sec
Grid point division into batches done        ...    0.2 sec
Reduced shell lists constructed in    0.3 sec

Total number of grid points                  ...    40798
Total number of batches                      ...      640
Average number of points per batch           ...       63
Average number of grid points per atom       ...     8160
Average number of shells per batch           ...    23.54 (28.36%)
Average number of basis functions per batch  ...    65.96 (23.15%)
Average number of large shells per batch     ...    17.86 (75.87%)
Average number of large basis fcns per batch ...    49.07 (74.39%)
Average number of aux-shells per batch       ...    23.54 ( 9.89%)
Average number of aux functions per batch    ...    65.96 ( 6.14%)
Maximum spatial batch extension              ...  20.21, 15.25, 22.17 au
Average spatial batch extension              ...   0.39,  0.33,  0.38 au

Time for grid setup =    0.384 sec

------------------------------
INITIAL GUESS: MODEL POTENTIAL
------------------------------
Loading Hartree-Fock densities                     ... done
Calculating cut-offs                               ... done
Setting up the integral package                    ... done
Initializing the effective Hamiltonian             ... done
Starting the Coulomb interaction                   ... done (   0.0 sec)
Reading the grid                                   ... done
Mapping shells                                     ... done
Starting the XC term evaluation                    ... done (   0.0 sec)
  promolecular density results
     # of electrons  =    116.999555128
     EX              =   -263.621129203
     EC              =     -2.119892591
     EX+EC           =   -265.741021793
Transforming the Hamiltonian                       ... done (   0.0 sec)
Diagonalizing the Hamiltonian                      ... done (   0.0 sec)
Back transforming the eigenvectors                 ... done (   0.0 sec)
Now organizing SCF variables                       ... done
                      ------------------
                      INITIAL GUESS DONE (   0.5 sec)
                      ------------------
--------------
SCF ITERATIONS
--------------
ITER       Energy         Delta-E        Max-DP      RMS-DP      [F,P]     Damp
  0  -6560.1551017754   0.000000000000 0.04006102  0.00046507  0.0791642 0.7000
  1  -6560.4227662382  -0.267664462818 0.04046416  0.00048827  0.0480885 0.7000
                               ***Turning on DIIS***
  2  -6560.3856693132   0.037096924997 0.11193694  0.00132248  0.0452157 0.0000
  3  -6560.2582855976   0.127383715627 0.00972027  0.00019724  0.0344071 0.0000
  4  -6560.2650720832  -0.006786485595 0.00417975  0.00009915  0.0263676 0.0000
  5  -6560.2666291980  -0.001557114743 0.00286792  0.00004866  0.0121117 0.0000
  6  -6560.2671712083  -0.000542010392 0.00167973  0.00002827  0.0018361 0.0000
  7  -6560.2672691290  -0.000097920667 0.00115764  0.00001719  0.0018383 0.0000
  8  -6560.2673071853  -0.000038056292 0.00105145  0.00001326  0.0026013 0.0000
  9  -6560.2673325915  -0.000025406143 0.00207689  0.00001988  0.0004590 0.0000
 10  -6560.2673506168  -0.000018025383 0.00099278  0.00000597  0.0001757 0.0000
 11  -6560.2673522403  -0.000001623449 0.00049171  0.00000257  0.0000901 0.0000
 12  -6560.2673525526  -0.000000312306 0.00031861  0.00000159  0.0000593 0.0000
 13  -6560.2673526493  -0.000000096663 0.00017853  0.00000092  0.0000393 0.0000
 14  -6560.2673526752  -0.000000025991 0.00008179  0.00000041  0.0000378 0.0000
 15  -6560.2673526814  -0.000000006178 0.00004205  0.00000022  0.0000355 0.0000
                 **** Energy Check signals convergence ****

               *****************************************************
               *                     SUCCESS                       *
               *           SCF CONVERGED AFTER  16 CYCLES          *
               *****************************************************


----------------
TOTAL SCF ENERGY
----------------

Total Energy       :        -6560.26735268 Eh         -178513.95014 eV

Components:
Nuclear Repulsion  :         1119.92022776 Eh           30474.57870 eV
Electronic Energy  :        -7680.18758045 Eh         -208988.52884 eV
One Electron Energy:       -11344.90093400 Eh         -308710.44895 eV
Two Electron Energy:         3664.71335356 Eh           99721.92011 eV

Virial components:
Potential Energy   :       -13113.90562477 Eh         -356847.51383 eV
Kinetic Energy     :         6553.63827208 Eh          178333.56369 eV
Virial Ratio       :            2.00101151


DFT components:
N(Alpha)           :       57.999978248679 electrons
N(Beta)            :       56.999975611501 electrons
N(Total)           :      114.999953860180 electrons
E(X)               :     -124.050643795815 Eh       
E(C)               :       -4.035249181198 Eh       
E(XC)              :     -128.085892977013 Eh       
DFET-embed. en.    :        0.000000000000 Eh       

---------------
SCF CONVERGENCE
---------------

  Last Energy change         ...   -2.0764e-09  Tolerance :   1.0000e-06
  Last MAX-Density change    ...    2.6559e-05  Tolerance :   1.0000e-05
  Last RMS-Density change    ...    2.0211e-07  Tolerance :   1.0000e-06
  Last DIIS Error            ...    7.3268e-06  Tolerance :   1.0000e-06

             **** THE GBW FILE WAS UPDATED (Cu04C2_H_F.gbw) ****
             **** DENSITY FILE WAS UPDATED (Cu04C2_H_F.scfp) ****
             **** ENERGY FILE WAS UPDATED (Cu04C2_H_F.en.tmp) ****
----------------------
UHF SPIN CONTAMINATION
----------------------

Warning: in a DFT calculation there is little theoretical justification to 
         calculate <S**2> as in Hartree-Fock theory. We will do it anyways
         but you should keep in mind that the values have only limited relevance

Expectation value of <S**2>     :     0.763358
Ideal value S*(S+1) for S=0.5   :     0.750000
Deviation                       :     0.013358

             **** THE GBW FILE WAS UPDATED (Cu04C2_H_F.gbw) ****
             **** DENSITY FILE WAS UPDATED (Cu04C2_H_F.scfp) ****
----------------
ORBITAL ENERGIES
----------------
                 SPIN UP ORBITALS
  NO   OCC          E(Eh)            E(eV) 
   0   1.0000    -325.852033     -8866.8846 
   1   1.0000    -325.852032     -8866.8846 
   2   1.0000    -325.852025     -8866.8844 
   3   1.0000    -325.827315     -8866.2120 
   4   1.0000     -40.061570     -1090.1307 
   5   1.0000     -40.061569     -1090.1307 
   6   1.0000     -40.061545     -1090.1301 
   7   1.0000     -40.034615     -1089.3973 
   8   1.0000     -35.097804      -955.0598 
   9   1.0000     -35.097804      -955.0598 
  10   1.0000     -35.097795      -955.0595 
  11   1.0000     -35.097382      -955.0483 
  12   1.0000     -35.097382      -955.0483 
  13   1.0000     -35.097373      -955.0481 
  14   1.0000     -35.096808      -955.0327 
  15   1.0000     -35.096795      -955.0323 
  16   1.0000     -35.096794      -955.0323 
  17   1.0000     -35.070223      -954.3093 
  18   1.0000     -35.070034      -954.3041 
  19   1.0000     -35.070034      -954.3041 
  20   1.0000      -5.013181      -136.4156 
  21   1.0000      -5.012736      -136.4035 
  22   1.0000      -5.012735      -136.4035 
  23   1.0000      -4.984834      -135.6442 
  24   1.0000      -3.436488       -93.5116 
  25   1.0000      -3.433504       -93.4304 
  26   1.0000      -3.433503       -93.4304 
  27   1.0000      -3.432161       -93.3939 
  28   1.0000      -3.431751       -93.3827 
  29   1.0000      -3.431749       -93.3826 
  30   1.0000      -3.429512       -93.3218 
  31   1.0000      -3.429510       -93.3217 
  32   1.0000      -3.428475       -93.2935 
  33   1.0000      -3.403033       -92.6012 
  34   1.0000      -3.401605       -92.5624 
  35   1.0000      -3.401604       -92.5623 
  36   1.0000      -0.905517       -24.6404 
  37   1.0000      -0.835901       -22.7460 
  38   1.0000      -0.809203       -22.0195 
  39   1.0000      -0.809193       -22.0193 
  40   1.0000      -0.802675       -21.8419 
  41   1.0000      -0.802671       -21.8418 
  42   1.0000      -0.799522       -21.7561 
  43   1.0000      -0.787012       -21.4157 
  44   1.0000      -0.787006       -21.4155 
  45   1.0000      -0.779245       -21.2043 
  46   1.0000      -0.779240       -21.2042 
  47   1.0000      -0.775867       -21.1124 
  48   1.0000      -0.775433       -21.1006 
  49   1.0000      -0.773272       -21.0418 
  50   1.0000      -0.773264       -21.0416 
  51   1.0000      -0.756221       -20.5778 
  52   1.0000      -0.756215       -20.5777 
  53   1.0000      -0.753235       -20.4966 
  54   1.0000      -0.746725       -20.3194 
  55   1.0000      -0.743162       -20.2225 
  56   1.0000      -0.743145       -20.2220 
  57   1.0000      -0.616497       -16.7757 
  58   0.0000      -0.421512       -11.4699 
  59   0.0000      -0.421511       -11.4699 
  60   0.0000      -0.340689        -9.2706 
  61   0.0000      -0.314882        -8.5684 
  62   0.0000      -0.290475        -7.9042 
  63   0.0000      -0.290475        -7.9042 
  64   0.0000      -0.284814        -7.7502 
  65   0.0000      -0.284814        -7.7502 
  66   0.0000      -0.193719        -5.2714 
  67   0.0000      -0.177953        -4.8423 
  68   0.0000      -0.177953        -4.8423 
  69   0.0000      -0.162682        -4.4268 
  70   0.0000      -0.162681        -4.4268 
  71   0.0000      -0.157797        -4.2939 
  72   0.0000      -0.157392        -4.2829 
  73   0.0000      -0.135314        -3.6821 
  74   0.0000      -0.126200        -3.4341 
  75   0.0000      -0.116586        -3.1725 
  76   0.0000      -0.116584        -3.1724 
  77   0.0000      -0.111373        -3.0306 
  78   0.0000      -0.111373        -3.0306 
  79   0.0000      -0.109349        -2.9755 
  80   0.0000      -0.102195        -2.7809 
  81   0.0000      -0.102194        -2.7808 
  82   0.0000      -0.048645        -1.3237 
  83   0.0000      -0.046268        -1.2590 
  84   0.0000      -0.046266        -1.2590 
  85   0.0000      -0.040804        -1.1103 
  86   0.0000      -0.040799        -1.1102 
  87   0.0000      -0.039380        -1.0716 
  88   0.0000      -0.019600        -0.5333 
  89   0.0000      -0.007847        -0.2135 
  90   0.0000      -0.007846        -0.2135 
  91   0.0000       0.001403         0.0382 
  92   0.0000       0.010362         0.2820 
  93   0.0000       0.010364         0.2820 
  94   0.0000       0.017193         0.4678 
  95   0.0000       0.017193         0.4679 
  96   0.0000       0.023012         0.6262 
  97   0.0000       0.038042         1.0352 
  98   0.0000       0.053934         1.4676 
  99   0.0000       0.081856         2.2274 
 100   0.0000       0.081856         2.2274 
 101   0.0000       0.085041         2.3141 
 102   0.0000       0.085042         2.3141 
 103   0.0000       0.111384         3.0309 
 104   0.0000       0.148951         4.0532 
 105   0.0000       0.148953         4.0532 
 106   0.0000       0.162635         4.4255 
 107   0.0000       0.163519         4.4496 
 108   0.0000       0.163521         4.4496 
 109   0.0000       0.170347         4.6354 
 110   0.0000       0.185590         5.0502 
 111   0.0000       0.185594         5.0503 
 112   0.0000       0.328378         8.9356 
 113   0.0000       0.406578        11.0635 
 114   0.0000       0.419165        11.4061 
 115   0.0000       0.419168        11.4061 
 116   0.0000       0.434530        11.8242 
 117   0.0000       0.434531        11.8242 
 118   0.0000       0.439247        11.9525 
 119   0.0000       0.494833        13.4651 
 120   0.0000       0.494833        13.4651 
 121   0.0000       0.522928        14.2296 
 122   0.0000       0.530231        14.4283 
 123   0.0000       0.530234        14.4284 
 124   0.0000       0.574296        15.6274 
 125   0.0000       0.609173        16.5764 
 126   0.0000       0.609175        16.5765 
 127   0.0000       0.609470        16.5845 
 128   0.0000       0.621360        16.9081 
 129   0.0000       0.621361        16.9081 
 130   0.0000       0.650031        17.6882 
 131   0.0000       0.673001        18.3133 
 132   0.0000       0.673003        18.3133 
 133   0.0000       0.709118        19.2961 
 134   0.0000       0.722083        19.6489 
 135   0.0000       0.722087        19.6490 
 136   0.0000       0.756911        20.5966 
 137   0.0000       0.763590        20.7784 
 138   0.0000       0.763593        20.7784 
 139   0.0000       0.912431        24.8285 
 140   0.0000       0.912434        24.8286 
 141   0.0000       0.918626        24.9971 
 142   0.0000       0.934402        25.4264 
 143   0.0000       0.934415        25.4267 
 144   0.0000       0.965873        26.2828 
 145   0.0000       1.086044        29.5528 
 146   0.0000       1.086067        29.5534 
 147   0.0000       1.148377        31.2489 
 148   0.0000       2.404217        65.4221 
 149   0.0000       2.705581        73.6226 
 150   0.0000       2.705585        73.6227 
 151   0.0000       2.740407        74.5703 
 152   0.0000       2.758254        75.0559 
 153   0.0000       2.758276        75.0565 
 154   0.0000       2.807749        76.4027 
 155   0.0000       2.820498        76.7496 
 156   0.0000       2.820507        76.7499 
 157   0.0000       2.910261        79.1922 
 158   0.0000       2.910268        79.1924 
 159   0.0000       2.940213        80.0073 
 160   0.0000       2.940215        80.0073 
 161   0.0000       2.941180        80.0336 
 162   0.0000       2.986729        81.2730 
 163   0.0000       3.054384        83.1140 
 164   0.0000       3.054387        83.1141 
 165   0.0000       3.057400        83.1961 
 166   0.0000       3.123133        84.9848 
 167   0.0000       3.160819        86.0103 
 168   0.0000       3.160824        86.0104 
 169   0.0000       3.169642        86.2503 
 170   0.0000       3.172003        86.3146 
 171   0.0000       3.172021        86.3151 
 172   0.0000       3.173714        86.3611 
 173   0.0000       3.175227        86.4023 
 174   0.0000       3.177996        86.4777 
 175   0.0000       3.178011        86.4781 
 176   0.0000       3.189218        86.7830 
 177   0.0000       3.189223        86.7832 
 178   0.0000       3.192589        86.8748 
 179   0.0000       3.195315        86.9489 
 180   0.0000       3.195319        86.9490 
 181   0.0000       3.195648        86.9580 
 182   0.0000       3.221768        87.6688 
 183   0.0000       3.249588        88.4258 
 184   0.0000       3.249589        88.4258 
 185   0.0000       3.254898        88.5703 
 186   0.0000       3.254902        88.5704 
 187   0.0000       3.255521        88.5872 
 188   0.0000       3.271306        89.0168 
 189   0.0000       3.374802        91.8330 
 190   0.0000       3.383358        92.0658 
 191   0.0000       3.405563        92.6701 
 192   0.0000       3.405568        92.6702 
 193   0.0000       3.415053        92.9283 
 194   0.0000       3.415060        92.9285 
 195   0.0000       3.482013        94.7504 
 196   0.0000       3.482024        94.7507 
 197   0.0000       3.559100        96.8480 
 198   0.0000       3.559430        96.8570 
 199   0.0000       3.564623        96.9983 
 200   0.0000       3.564653        96.9991 
 201   0.0000       3.592233        97.7496 
 202   0.0000       3.592241        97.7498 
 203   0.0000       3.630760        98.7980 
 204   0.0000       3.630788        98.7988 
 205   0.0000       3.665883        99.7537 
 206   0.0000       3.688653       100.3733 
 207   0.0000       3.728750       101.4645 
 208   0.0000       3.728767       101.4649 
 209   0.0000       3.765297       102.4590 
 210   0.0000       3.765300       102.4590 
 211   0.0000       3.773682       102.6871 
 212   0.0000       3.823290       104.0370 
 213   0.0000       3.823310       104.0376 
 214   0.0000       3.839832       104.4871 
 215   0.0000       4.128197       112.3340 
 216   0.0000       4.275161       116.3330 
 217   0.0000       4.275281       116.3363 
 218   0.0000       4.427749       120.4852 
 219   0.0000       4.558789       124.0509 
 220   0.0000       4.558815       124.0517 
 221   0.0000      12.875302       350.3548 
 222   0.0000      12.875576       350.3622 
 223   0.0000      12.875577       350.3623 
 224   0.0000      12.876473       350.3866 
 225   0.0000      12.876490       350.3871 
 226   0.0000      12.876534       350.3883 
 227   0.0000      12.876763       350.3945 
 228   0.0000      12.876786       350.3952 
 229   0.0000      12.876819       350.3961 
 230   0.0000      12.877068       350.4028 
 231   0.0000      12.877223       350.4071 
 232   0.0000      12.877418       350.4124 
 233   0.0000      12.877455       350.4134 
 234   0.0000      12.877473       350.4139 
 235   0.0000      12.877617       350.4178 
 236   0.0000      12.878457       350.4406 
 237   0.0000      12.878470       350.4410 
 238   0.0000      12.878516       350.4422 
 239   0.0000      12.879574       350.4710 
 240   0.0000      12.879616       350.4722 
 241   0.0000      12.879648       350.4730 
 242   0.0000      12.879864       350.4789 
 243   0.0000      12.879926       350.4806 
 244   0.0000      12.880008       350.4828 
 245   0.0000      12.882248       350.5438 
 246   0.0000      12.882268       350.5443 
 247   0.0000      12.883136       350.5679 
 248   0.0000      12.903853       351.1317 
 249   0.0000      12.904083       351.1379 
 250   0.0000      12.904195       351.1410 
 251   0.0000      12.904714       351.1551 
 252   0.0000      12.904856       351.1590 
 253   0.0000      12.905005       351.1630 
 254   0.0000      12.905275       351.1704 
 255   0.0000      12.905759       351.1836 
 256   0.0000      12.905765       351.1837 
 257   0.0000      13.083407       356.0176 
 258   0.0000      13.085320       356.0696 
 259   0.0000      13.085336       356.0701 
 260   0.0000      13.086220       356.0942 
 261   0.0000      13.086391       356.0988 
 262   0.0000      13.089839       356.1926 
 263   0.0000      13.089844       356.1928 
 264   0.0000      13.091657       356.2421 
 265   0.0000      13.091675       356.2426 
 266   0.0000      13.093592       356.2948 
 267   0.0000      13.093594       356.2948 
 268   0.0000      13.100379       356.4794 
 269   0.0000      13.101894       356.5207 
 270   0.0000      13.101898       356.5208 
 271   0.0000      13.112083       356.7979 
 272   0.0000      13.112144       356.7996 
 273   0.0000      13.115633       356.8945 
 274   0.0000      13.115661       356.8953 
 275   0.0000      13.116433       356.9163 
 276   0.0000      13.142214       357.6178 
 277   0.0000      13.150453       357.8420 
 278   0.0000      13.150486       357.8429 
 279   0.0000      13.155376       357.9760 
 280   0.0000      13.165981       358.2646 
 281   0.0000      13.165998       358.2650 
 282   0.0000      13.241657       360.3238 
 283   0.0000      13.241668       360.3241 
 284   0.0000      13.325266       362.5989 

                 SPIN DOWN ORBITALS
  NO   OCC          E(Eh)            E(eV) 
   0   1.0000    -325.851834     -8866.8792 
   1   1.0000    -325.851833     -8866.8792 
   2   1.0000    -325.851826     -8866.8790 
   3   1.0000    -325.826320     -8866.1849 
   4   1.0000     -40.059472     -1090.0737 
   5   1.0000     -40.059471     -1090.0736 
   6   1.0000     -40.059447     -1090.0730 
   7   1.0000     -40.035210     -1089.4135 
   8   1.0000     -35.096241      -955.0173 
   9   1.0000     -35.096228      -955.0169 
  10   1.0000     -35.096227      -955.0169 
  11   1.0000     -35.095208      -954.9892 
  12   1.0000     -35.095207      -954.9891 
  13   1.0000     -35.095196      -954.9888 
  14   1.0000     -35.094483      -954.9694 
  15   1.0000     -35.094483      -954.9694 
  16   1.0000     -35.094469      -954.9690 
  17   1.0000     -35.071428      -954.3421 
  18   1.0000     -35.071089      -954.3328 
  19   1.0000     -35.071089      -954.3328 
  20   1.0000      -5.008721      -136.2942 
  21   1.0000      -5.008277      -136.2822 
  22   1.0000      -5.008276      -136.2821 
  23   1.0000      -4.984986      -135.6484 
  24   1.0000      -3.429804       -93.3297 
  25   1.0000      -3.428872       -93.3044 
  26   1.0000      -3.428872       -93.3043 
  27   1.0000      -3.427086       -93.2558 
  28   1.0000      -3.426075       -93.2282 
  29   1.0000      -3.426071       -93.2281 
  30   1.0000      -3.424756       -93.1923 
  31   1.0000      -3.424453       -93.1841 
  32   1.0000      -3.424450       -93.1840 
  33   1.0000      -3.405920       -92.6798 
  34   1.0000      -3.403596       -92.6165 
  35   1.0000      -3.403595       -92.6165 
  36   1.0000      -0.874228       -23.7889 
  37   1.0000      -0.825047       -22.4507 
  38   1.0000      -0.807683       -21.9782 
  39   1.0000      -0.807674       -21.9779 
  40   1.0000      -0.796887       -21.6844 
  41   1.0000      -0.796880       -21.6842 
  42   1.0000      -0.795576       -21.6487 
  43   1.0000      -0.784989       -21.3607 
  44   1.0000      -0.784983       -21.3605 
  45   1.0000      -0.774129       -21.0651 
  46   1.0000      -0.772196       -21.0125 
  47   1.0000      -0.772183       -21.0122 
  48   1.0000      -0.764967       -20.8158 
  49   1.0000      -0.759376       -20.6637 
  50   1.0000      -0.759374       -20.6636 
  51   1.0000      -0.756648       -20.5894 
  52   1.0000      -0.756643       -20.5893 
  53   1.0000      -0.751095       -20.4383 
  54   1.0000      -0.739612       -20.1259 
  55   1.0000      -0.739597       -20.1255 
  56   1.0000      -0.734696       -19.9921 
  57   0.0000      -0.460922       -12.5423 
  58   0.0000      -0.411965       -11.2101 
  59   0.0000      -0.411965       -11.2101 
  60   0.0000      -0.327024        -8.8988 
  61   0.0000      -0.304277        -8.2798 
  62   0.0000      -0.283490        -7.7142 
  63   0.0000      -0.283489        -7.7141 
  64   0.0000      -0.277137        -7.5413 
  65   0.0000      -0.277136        -7.5413 
  66   0.0000      -0.187102        -5.0913 
  67   0.0000      -0.177082        -4.8186 
  68   0.0000      -0.177082        -4.8186 
  69   0.0000      -0.160246        -4.3605 
  70   0.0000      -0.160246        -4.3605 
  71   0.0000      -0.158104        -4.3022 
  72   0.0000      -0.149822        -4.0769 
  73   0.0000      -0.133516        -3.6332 
  74   0.0000      -0.124571        -3.3897 
  75   0.0000      -0.114112        -3.1051 
  76   0.0000      -0.114111        -3.1051 
  77   0.0000      -0.109937        -2.9915 
  78   0.0000      -0.109937        -2.9915 
  79   0.0000      -0.107414        -2.9229 
  80   0.0000      -0.099324        -2.7028 
  81   0.0000      -0.099324        -2.7027 
  82   0.0000      -0.043949        -1.1959 
  83   0.0000      -0.043947        -1.1959 
  84   0.0000      -0.042771        -1.1639 
  85   0.0000      -0.039226        -1.0674 
  86   0.0000      -0.039100        -1.0640 
  87   0.0000      -0.039098        -1.0639 
  88   0.0000      -0.016769        -0.4563 
  89   0.0000      -0.007981        -0.2172 
  90   0.0000      -0.007981        -0.2172 
  91   0.0000       0.010253         0.2790 
  92   0.0000       0.010255         0.2791 
  93   0.0000       0.011743         0.3195 
  94   0.0000       0.017827         0.4851 
  95   0.0000       0.017827         0.4851 
  96   0.0000       0.023265         0.6331 
  97   0.0000       0.039650         1.0789 
  98   0.0000       0.057868         1.5747 
  99   0.0000       0.083038         2.2596 
 100   0.0000       0.083039         2.2596 
 101   0.0000       0.087073         2.3694 
 102   0.0000       0.087074         2.3694 
 103   0.0000       0.112820         3.0700 
 104   0.0000       0.150586         4.0977 
 105   0.0000       0.150589         4.0977 
 106   0.0000       0.166378         4.5274 
 107   0.0000       0.166379         4.5274 
 108   0.0000       0.170330         4.6349 
 109   0.0000       0.171248         4.6599 
 110   0.0000       0.186233         5.0677 
 111   0.0000       0.186237         5.0678 
 112   0.0000       0.337356         9.1799 
 113   0.0000       0.411499        11.1975 
 114   0.0000       0.424712        11.5570 
 115   0.0000       0.424717        11.5571 
 116   0.0000       0.437332        11.9004 
 117   0.0000       0.437333        11.9004 
 118   0.0000       0.445375        12.1193 
 119   0.0000       0.499647        13.5961 
 120   0.0000       0.499647        13.5961 
 121   0.0000       0.526178        14.3180 
 122   0.0000       0.532271        14.4838 
 123   0.0000       0.532272        14.4839 
 124   0.0000       0.578140        15.7320 
 125   0.0000       0.609403        16.5827 
 126   0.0000       0.613304        16.6888 
 127   0.0000       0.613307        16.6889 
 128   0.0000       0.626095        17.0369 
 129   0.0000       0.626097        17.0370 
 130   0.0000       0.661897        18.0111 
 131   0.0000       0.679620        18.4934 
 132   0.0000       0.679623        18.4935 
 133   0.0000       0.711925        19.3725 
 134   0.0000       0.724762        19.7218 
 135   0.0000       0.724765        19.7219 
 136   0.0000       0.761221        20.7139 
 137   0.0000       0.769189        20.9307 
 138   0.0000       0.769194        20.9308 
 139   0.0000       0.917228        24.9590 
 140   0.0000       0.917230        24.9591 
 141   0.0000       0.929501        25.2930 
 142   0.0000       0.939529        25.5659 
 143   0.0000       0.939543        25.5663 
 144   0.0000       0.966375        26.2964 
 145   0.0000       1.095687        29.8152 
 146   0.0000       1.095712        29.8158 
 147   0.0000       1.159044        31.5392 
 148   0.0000       2.433332        66.2143 
 149   0.0000       2.713329        73.8334 
 150   0.0000       2.713337        73.8336 
 151   0.0000       2.751276        74.8660 
 152   0.0000       2.767176        75.2987 
 153   0.0000       2.767198        75.2993 
 154   0.0000       2.813009        76.5459 
 155   0.0000       2.827318        76.9352 
 156   0.0000       2.827328        76.9355 
 157   0.0000       2.914824        79.3164 
 158   0.0000       2.914830        79.3166 
 159   0.0000       2.941966        80.0550 
 160   0.0000       2.941968        80.0550 
 161   0.0000       2.948004        80.2193 
 162   0.0000       2.987200        81.2858 
 163   0.0000       3.058075        83.2145 
 164   0.0000       3.058077        83.2145 
 165   0.0000       3.059573        83.2552 
 166   0.0000       3.125400        85.0465 
 167   0.0000       3.161588        86.0312 
 168   0.0000       3.161593        86.0313 
 169   0.0000       3.171908        86.3120 
 170   0.0000       3.174469        86.3817 
 171   0.0000       3.174488        86.3822 
 172   0.0000       3.174512        86.3829 
 173   0.0000       3.176528        86.4377 
 174   0.0000       3.178314        86.4863 
 175   0.0000       3.178331        86.4868 
 176   0.0000       3.190919        86.8293 
 177   0.0000       3.190924        86.8295 
 178   0.0000       3.195755        86.9609 
 179   0.0000       3.197416        87.0061 
 180   0.0000       3.197418        87.0062 
 181   0.0000       3.198815        87.0442 
 182   0.0000       3.224334        87.7386 
 183   0.0000       3.251821        88.4866 
 184   0.0000       3.251822        88.4866 
 185   0.0000       3.257119        88.6307 
 186   0.0000       3.258239        88.6612 
 187   0.0000       3.258242        88.6613 
 188   0.0000       3.271350        89.0180 
 189   0.0000       3.378631        91.9372 
 190   0.0000       3.393487        92.3415 
 191   0.0000       3.413351        92.8820 
 192   0.0000       3.413361        92.8823 
 193   0.0000       3.419591        93.0518 
 194   0.0000       3.419613        93.0524 
 195   0.0000       3.484217        94.8104 
 196   0.0000       3.484229        94.8107 
 197   0.0000       3.561523        96.9140 
 198   0.0000       3.568341        97.0995 
 199   0.0000       3.568372        97.1003 
 200   0.0000       3.570647        97.1622 
 201   0.0000       3.595729        97.8448 
 202   0.0000       3.595734        97.8449 
 203   0.0000       3.647586        99.2558 
 204   0.0000       3.647616        99.2567 
 205   0.0000       3.672249        99.9270 
 206   0.0000       3.695656       100.5639 
 207   0.0000       3.732425       101.5645 
 208   0.0000       3.732442       101.5649 
 209   0.0000       3.766574       102.4937 
 210   0.0000       3.766576       102.4937 
 211   0.0000       3.774722       102.7154 
 212   0.0000       3.829206       104.1980 
 213   0.0000       3.829223       104.1985 
 214   0.0000       3.846094       104.6576 
 215   0.0000       4.132707       112.4567 
 216   0.0000       4.289283       116.7173 
 217   0.0000       4.289384       116.7201 
 218   0.0000       4.447637       121.0264 
 219   0.0000       4.568215       124.3075 
 220   0.0000       4.568243       124.3082 
 221   0.0000      12.877130       350.4045 
 222   0.0000      12.877245       350.4076 
 223   0.0000      12.877292       350.4089 
 224   0.0000      12.877293       350.4089 
 225   0.0000      12.878241       350.4348 
 226   0.0000      12.878263       350.4354 
 227   0.0000      12.878656       350.4461 
 228   0.0000      12.879118       350.4586 
 229   0.0000      12.879192       350.4606 
 230   0.0000      12.879695       350.4743 
 231   0.0000      12.879756       350.4760 
 232   0.0000      12.879824       350.4778 
 233   0.0000      12.879835       350.4781 
 234   0.0000      12.879900       350.4799 
 235   0.0000      12.879930       350.4807 
 236   0.0000      12.880223       350.4887 
 237   0.0000      12.880332       350.4916 
 238   0.0000      12.880394       350.4933 
 239   0.0000      12.880736       350.5027 
 240   0.0000      12.880762       350.5034 
 241   0.0000      12.880814       350.5048 
 242   0.0000      12.880920       350.5077 
 243   0.0000      12.881205       350.5154 
 244   0.0000      12.881849       350.5329 
 245   0.0000      12.886474       350.6588 
 246   0.0000      12.886474       350.6588 
 247   0.0000      12.887616       350.6899 
 248   0.0000      12.902403       351.0922 
 249   0.0000      12.902708       351.1005 
 250   0.0000      12.902738       351.1013 
 251   0.0000      12.903084       351.1108 
 252   0.0000      12.903217       351.1144 
 253   0.0000      12.903387       351.1190 
 254   0.0000      12.903621       351.1254 
 255   0.0000      12.904754       351.1562 
 256   0.0000      12.904762       351.1564 
 257   0.0000      13.085474       356.0738 
 258   0.0000      13.087673       356.1337 
 259   0.0000      13.088041       356.1437 
 260   0.0000      13.088055       356.1441 
 261   0.0000      13.091783       356.2455 
 262   0.0000      13.091790       356.2457 
 263   0.0000      13.092276       356.2589 
 264   0.0000      13.093273       356.2861 
 265   0.0000      13.093291       356.2866 
 266   0.0000      13.097116       356.3906 
 267   0.0000      13.097123       356.3908 
 268   0.0000      13.102314       356.5321 
 269   0.0000      13.107256       356.6666 
 270   0.0000      13.107259       356.6666 
 271   0.0000      13.111140       356.7722 
 272   0.0000      13.111613       356.7851 
 273   0.0000      13.113422       356.8344 
 274   0.0000      13.113449       356.8351 
 275   0.0000      13.115417       356.8886 
 276   0.0000      13.148060       357.7769 
 277   0.0000      13.150916       357.8546 
 278   0.0000      13.150952       357.8556 
 279   0.0000      13.156094       357.9955 
 280   0.0000      13.167924       358.3174 
 281   0.0000      13.167937       358.3178 
 282   0.0000      13.248491       360.5098 
 283   0.0000      13.248501       360.5100 
 284   0.0000      13.332320       362.7909 

                    ********************************
                    * MULLIKEN POPULATION ANALYSIS *
                    ********************************

--------------------------------------------
MULLIKEN ATOMIC CHARGES AND SPIN POPULATIONS
--------------------------------------------
   0 Cu:    0.458720    0.041291
   1 Cu:    0.458642    0.041283
   2 Cu:    0.458657    0.041295
   3 Cu:    0.396782    0.563063
   4 H :    0.227199    0.313068
Sum of atomic charges         :    2.0000000
Sum of atomic spin populations:    1.0000000

-----------------------------------------------------
MULLIKEN REDUCED ORBITAL CHARGES AND SPIN POPULATIONS
-----------------------------------------------------
CHARGE
  0 Cus       :     6.424427  s :     6.424427
      pz      :     4.070964  p :    12.231770
      px      :     4.010848
      py      :     4.149958
      dz2     :     1.983583  d :     9.884795
      dxz     :     1.995210
      dyz     :     1.945126
      dx2y2   :     1.994796
      dxy     :     1.966079
      f0      :     0.000045  f :     0.000288
      f+1     :     0.000013
      f-1     :     0.000032
      f+2     :     0.000084
      f-2     :     0.000029
      f+3     :     0.000032
      f-3     :     0.000054
      g0      :     0.000000  g :     0.000001
      g+1     :     0.000000
      g-1     :     0.000000
      g+2     :     0.000000
      g-2     :     0.000000
      g+3     :     0.000000
      g-3     :     0.000000
      g+4     :     0.000000
      g-4     :     0.000000
  1 Cus       :     6.424489  s :     6.424489
      pz      :     4.070952  p :    12.231789
      px      :     4.115201
      py      :     4.045636
      dz2     :     1.983583  d :     9.884791
      dxz     :     1.957639
      dyz     :     1.982685
      dx2y2   :     1.973265
      dxy     :     1.987618
      f0      :     0.000045  f :     0.000288
      f+1     :     0.000027
      f-1     :     0.000017
      f+2     :     0.000043
      f-2     :     0.000070
      f+3     :     0.000032
      f-3     :     0.000054
      g0      :     0.000000  g :     0.000001
      g+1     :     0.000000
      g-1     :     0.000000
      g+2     :     0.000000
      g-2     :     0.000000
      g+3     :     0.000000
      g-3     :     0.000000
      g+4     :     0.000000
      g-4     :     0.000000
  2 Cus       :     6.424478  s :     6.424478
      pz      :     4.070953  p :    12.231785
      px      :     4.115197
      py      :     4.045635
      dz2     :     1.983583  d :     9.884791
      dxz     :     1.957639
      dyz     :     1.982685
      dx2y2   :     1.973265
      dxy     :     1.987618
      f0      :     0.000045  f :     0.000288
      f+1     :     0.000027
      f-1     :     0.000017
      f+2     :     0.000043
      f-2     :     0.000070
      f+3     :     0.000032
      f-3     :     0.000054
      g0      :     0.000000  g :     0.000001
      g+1     :     0.000000
      g-1     :     0.000000
      g+2     :     0.000000
      g-2     :     0.000000
      g+3     :     0.000000
      g-3     :     0.000000
      g+4     :     0.000000
      g-4     :     0.000000
  3 Cus       :     6.614480  s :     6.614480
      pz      :     4.064616  p :    12.084575
      px      :     4.009980
      py      :     4.009979
      dz2     :     1.978503  d :     9.904036
      dxz     :     1.968383
      dyz     :     1.968390
      dx2y2   :     1.994380
      dxy     :     1.994380
      f0      :     0.000034  f :     0.000126
      f+1     :     0.000023
      f-1     :     0.000023
      f+2     :     0.000019
      f-2     :     0.000019
      f+3     :     0.000004
      f-3     :     0.000005
      g0      :     0.000000  g :     0.000000
      g+1     :     0.000000
      g-1     :     0.000000
      g+2     :     0.000000
      g-2     :     0.000000
      g+3     :     0.000000
      g-3     :     0.000000
      g+4     :     0.000000
      g-4     :     0.000000
  4 H s       :     0.806641  s :     0.806641
      pz      :    -0.040719  p :    -0.036556
      px      :     0.002083
      py      :     0.002080
      dz2     :     0.000392  d :     0.002715
      dxz     :     0.000745
      dyz     :     0.000745
      dx2y2   :     0.000416
      dxy     :     0.000416

SPIN
  0 Cus       :    -0.029112  s :    -0.029112
      pz      :     0.053356  p :     0.038009
      px      :     0.000115
      py      :    -0.015463
      dz2     :    -0.002088  d :     0.032361
      dxz     :    -0.000707
      dyz     :     0.033500
      dx2y2   :     0.001664
      dxy     :    -0.000007
      f0      :     0.000004  f :     0.000033
      f+1     :     0.000000
      f-1     :     0.000002
      f+2     :     0.000026
      f-2     :    -0.000001
      f+3     :    -0.000000
      f-3     :     0.000002
      g0      :     0.000000  g :     0.000000
      g+1     :     0.000000
      g-1     :    -0.000000
      g+2     :     0.000000
      g-2     :    -0.000000
      g+3     :     0.000000
      g-3     :     0.000000
      g+4     :     0.000000
      g-4     :     0.000000
  1 Cus       :    -0.029116  s :    -0.029116
      pz      :     0.053347  p :     0.037999
      px      :    -0.011569
      py      :    -0.003779
      dz2     :    -0.002088  d :     0.032366
      dxz     :     0.024951
      dyz     :     0.007846
      dx2y2   :     0.000410
      dxy     :     0.001247
      f0      :     0.000004  f :     0.000033
      f+1     :     0.000001
      f-1     :     0.000001
      f+2     :     0.000006
      f-2     :     0.000019
      f+3     :    -0.000000
      f-3     :     0.000002
      g0      :     0.000000  g :     0.000000
      g+1     :    -0.000000
      g-1     :    -0.000000
      g+2     :    -0.000000
      g-2     :     0.000000
      g+3     :     0.000000
      g-3     :     0.000000
      g+4     :     0.000000
      g-4     :     0.000000
  2 Cus       :    -0.029107  s :    -0.029107
      pz      :     0.053347  p :     0.038002
      px      :    -0.011567
      py      :    -0.003778
      dz2     :    -0.002087  d :     0.032366
      dxz     :     0.024951
      dyz     :     0.007846
      dx2y2   :     0.000410
      dxy     :     0.001247
      f0      :     0.000004  f :     0.000033
      f+1     :     0.000001
      f-1     :     0.000001
      f+2     :     0.000006
      f-2     :     0.000019
      f+3     :    -0.000000
      f-3     :     0.000002
      g0      :     0.000000  g :     0.000000
      g+1     :    -0.000000
      g-1     :    -0.000000
      g+2     :    -0.000000
      g-2     :     0.000000
      g+3     :     0.000000
      g-3     :     0.000000
      g+4     :     0.000000
      g-4     :     0.000000
  3 Cus       :     0.522003  s :     0.522003
      pz      :     0.052836  p :     0.058781
      px      :     0.002972
      py      :     0.002972
      dz2     :    -0.004253  d :    -0.017728
      dxz     :    -0.005896
      dyz     :    -0.005895
      dx2y2   :    -0.000842
      dxy     :    -0.000842
      f0      :     0.000004  f :     0.000007
      f+1     :     0.000000
      f-1     :     0.000000
      f+2     :     0.000001
      f-2     :     0.000001
      f+3     :     0.000000
      f-3     :     0.000001
      g0      :     0.000000  g :    -0.000000
      g+1     :    -0.000000
      g-1     :    -0.000000
      g+2     :    -0.000000
      g-2     :    -0.000000
      g+3     :     0.000000
      g-3     :     0.000000
      g+4     :    -0.000000
      g-4     :     0.000000
  4 H s       :     0.334799  s :     0.334799
      pz      :    -0.023209  p :    -0.021702
      px      :     0.000754
      py      :     0.000753
      dz2     :     0.000026  d :    -0.000029
      dxz     :    -0.000029
      dyz     :    -0.000029
      dx2y2   :     0.000002
      dxy     :     0.000002


                     *******************************
                     * LOEWDIN POPULATION ANALYSIS *
                     *******************************

-------------------------------------------
LOEWDIN ATOMIC CHARGES AND SPIN POPULATIONS
-------------------------------------------
   0 Cu:    0.478337    0.218309
   1 Cu:    0.478332    0.218312
   2 Cu:    0.478333    0.218312
   3 Cu:    0.547383    0.189402
   4 H :    0.017615    0.155664

----------------------------------------------------
LOEWDIN REDUCED ORBITAL CHARGES AND SPIN POPULATIONS
----------------------------------------------------
CHARGE
  0 Cus       :     6.178793  s :     6.178793
      pz      :     4.165295  p :    12.361272
      px      :     4.018734
      py      :     4.177243
      dz2     :     1.993625  d :     9.980782
      dxz     :     1.993855
      dyz     :     2.004648
      dx2y2   :     2.003642
      dxy     :     1.985013
      f0      :     0.000095  f :     0.000813
      f+1     :     0.000035
      f-1     :     0.000122
      f+2     :     0.000269
      f-2     :     0.000049
      f+3     :     0.000124
      f-3     :     0.000120
      g0      :     0.000000  g :     0.000003
      g+1     :     0.000000
      g-1     :     0.000000
      g+2     :     0.000000
      g-2     :     0.000000
      g+3     :     0.000000
      g-3     :     0.000000
      g+4     :     0.000000
      g-4     :     0.000000
  1 Cus       :     6.178799  s :     6.178799
      pz      :     4.165293  p :    12.361272
      px      :     4.137617
      py      :     4.058362
      dz2     :     1.993625  d :     9.980780
      dxz     :     2.001945
      dyz     :     1.996550
      dx2y2   :     1.989677
      dxy     :     1.998983
      f0      :     0.000095  f :     0.000813
      f+1     :     0.000100
      f-1     :     0.000056
      f+2     :     0.000104
      f-2     :     0.000214
      f+3     :     0.000124
      f-3     :     0.000120
      g0      :     0.000000  g :     0.000003
      g+1     :     0.000000
      g-1     :     0.000000
      g+2     :     0.000000
      g-2     :     0.000000
      g+3     :     0.000000
      g-3     :     0.000000
      g+4     :     0.000000
      g-4     :     0.000000
  2 Cus       :     6.178799  s :     6.178799
      pz      :     4.165293  p :    12.361272
      px      :     4.137617
      py      :     4.058362
      dz2     :     1.993625  d :     9.980780
      dxz     :     2.001945
      dyz     :     1.996550
      dx2y2   :     1.989677
      dxy     :     1.998983
      f0      :     0.000095  f :     0.000813
      f+1     :     0.000100
      f-1     :     0.000056
      f+2     :     0.000104
      f-2     :     0.000214
      f+3     :     0.000124
      f-3     :     0.000120
      g0      :     0.000000  g :     0.000003
      g+1     :     0.000000
      g-1     :     0.000000
      g+2     :     0.000000
      g-2     :     0.000000
      g+3     :     0.000000
      g-3     :     0.000000
      g+4     :     0.000000
      g-4     :     0.000000
  3 Cus       :     6.284108  s :     6.284108
      pz      :     4.145644  p :    12.176819
      px      :     4.015588
      py      :     4.015587
      dz2     :     2.027356  d :     9.991335
      dxz     :     1.985126
      dyz     :     1.985133
      dx2y2   :     1.996860
      dxy     :     1.996860
      f0      :     0.000065  f :     0.000354
      f+1     :     0.000089
      f-1     :     0.000089
      f+2     :     0.000048
      f-2     :     0.000048
      f+3     :     0.000008
      f-3     :     0.000008
      g0      :     0.000000  g :     0.000001
      g+1     :     0.000000
      g-1     :     0.000000
      g+2     :     0.000000
      g-2     :     0.000000
      g+3     :     0.000000
      g-3     :     0.000000
      g+4     :     0.000000
      g-4     :     0.000000
  4 H s       :     0.753314  s :     0.753314
      pz      :     0.107848  p :     0.214316
      px      :     0.053236
      py      :     0.053232
      dz2     :     0.002392  d :     0.014755
      dxz     :     0.003697
      dyz     :     0.003696
      dx2y2   :     0.002484
      dxy     :     0.002484

SPIN
  0 Cus       :     0.006612  s :     0.006612
      pz      :     0.130526  p :     0.133404
      px      :     0.000465
      py      :     0.002413
      dz2     :    -0.000534  d :     0.078142
      dxz     :    -0.000446
      dyz     :     0.075154
      dx2y2   :     0.003498
      dxy     :     0.000470
      f0      :     0.000012  f :     0.000151
      f+1     :     0.000000
      f-1     :     0.000013
      f+2     :     0.000111
      f-2     :    -0.000001
      f+3     :    -0.000000
      f-3     :     0.000015
      g0      :     0.000000  g :     0.000000
      g+1     :     0.000000
      g-1     :    -0.000000
      g+2     :     0.000000
      g-2     :    -0.000000
      g+3     :     0.000000
      g-3     :     0.000000
      g+4     :     0.000000
      g-4     :     0.000000
  1 Cus       :     0.006608  s :     0.006608
      pz      :     0.130524  p :     0.133402
      px      :     0.001926
      py      :     0.000952
      dz2     :    -0.000533  d :     0.078150
      dxz     :     0.056258
      dyz     :     0.018456
      dx2y2   :     0.001227
      dxy     :     0.002742
      f0      :     0.000012  f :     0.000151
      f+1     :     0.000010
      f-1     :     0.000004
      f+2     :     0.000027
      f-2     :     0.000083
      f+3     :    -0.000000
      f-3     :     0.000015
      g0      :     0.000000  g :     0.000000
      g+1     :    -0.000000
      g-1     :    -0.000000
      g+2     :     0.000000
      g-2     :     0.000000
      g+3     :     0.000000
      g-3     :     0.000000
      g+4     :     0.000000
      g-4     :     0.000000
  2 Cus       :     0.006608  s :     0.006608
      pz      :     0.130524  p :     0.133402
      px      :     0.001926
      py      :     0.000952
      dz2     :    -0.000533  d :     0.078150
      dxz     :     0.056258
      dyz     :     0.018456
      dx2y2   :     0.001227
      dxy     :     0.002742
      f0      :     0.000012  f :     0.000151
      f+1     :     0.000010
      f-1     :     0.000004
      f+2     :     0.000027
      f-2     :     0.000083
      f+3     :    -0.000000
      f-3     :     0.000015
      g0      :     0.000000  g :     0.000000
      g+1     :    -0.000000
      g-1     :    -0.000000
      g+2     :     0.000000
      g-2     :     0.000000
      g+3     :     0.000000
      g-3     :     0.000000
      g+4     :     0.000000
      g-4     :     0.000000
  3 Cus       :     0.198334  s :     0.198334
      pz      :     0.000600  p :     0.004383
      px      :     0.001891
      py      :     0.001891
      dz2     :     0.000312  d :    -0.013309
      dxz     :    -0.006393
      dyz     :    -0.006391
      dx2y2   :    -0.000418
      dxy     :    -0.000418
      f0      :     0.000006  f :    -0.000006
      f+1     :    -0.000006
      f-1     :    -0.000006
      f+2     :    -0.000001
      f-2     :    -0.000001
      f+3     :     0.000000
      f-3     :     0.000001
      g0      :     0.000000  g :    -0.000000
      g+1     :    -0.000000
      g-1     :    -0.000000
      g+2     :    -0.000000
      g-2     :    -0.000000
      g+3     :     0.000000
      g-3     :    -0.000000
      g+4     :     0.000000
      g-4     :     0.000000
  4 H s       :     0.139858  s :     0.139858
      pz      :     0.016886  p :     0.015872
      px      :    -0.000507
      py      :    -0.000507
      dz2     :     0.000052  d :    -0.000065
      dxz     :    -0.000041
      dyz     :    -0.000041
      dx2y2   :    -0.000018
      dxy     :    -0.000018


                      *****************************
                      * MAYER POPULATION ANALYSIS *
                      *****************************

  NA   - Mulliken gross atomic population
  ZA   - Total nuclear charge
  QA   - Mulliken gross atomic charge
  VA   - Mayer's total valence
  BVA  - Mayer's bonded valence
  FA   - Mayer's free valence

  ATOM       NA         ZA         QA         VA         BVA        FA
  0 Cu    28.5413    29.0000     0.4587     1.1728     1.1408     0.0320
  1 Cu    28.5414    29.0000     0.4586     1.1729     1.1409     0.0320
  2 Cu    28.5413    29.0000     0.4587     1.1729     1.1408     0.0320
  3 Cu    28.6032    29.0000     0.3968     1.0245     0.7060     0.3186
  4 H      0.7728     1.0000     0.2272     0.6992     0.6029     0.0963

  Mayer bond orders larger than 0.100000
B(  0-Cu,  1-Cu) :   0.3529 B(  0-Cu,  2-Cu) :   0.3529 B(  0-Cu,  3-Cu) :   0.2347 
B(  0-Cu,  4-H ) :   0.2003 B(  1-Cu,  2-Cu) :   0.3529 B(  1-Cu,  3-Cu) :   0.2347 
B(  1-Cu,  4-H ) :   0.2003 B(  2-Cu,  3-Cu) :   0.2347 B(  2-Cu,  4-H ) :   0.2003 


-------
TIMINGS
-------

Total SCF time: 0 days 0 hours 0 min 20 sec 

Total time                  ....      20.825 sec
Sum of individual times     ....      20.565 sec  ( 98.8%)

Fock matrix formation       ....      19.374 sec  ( 93.0%)
  XC integration            ....       1.238 sec  (  6.4% of F)
    Basis function eval.    ....       0.118 sec  (  9.6% of XC)
    Density eval.           ....       0.186 sec  ( 15.0% of XC)
    XC-Functional eval.     ....       0.029 sec  (  2.4% of XC)
    XC-Potential eval.      ....       0.327 sec  ( 26.4% of XC)
Diagonalization             ....       0.448 sec  (  2.2%)
Density matrix formation    ....       0.039 sec  (  0.2%)
Population analysis         ....       0.024 sec  (  0.1%)
Initial guess               ....       0.125 sec  (  0.6%)
Orbital Transformation      ....       0.000 sec  (  0.0%)
Orbital Orthonormalization  ....       0.000 sec  (  0.0%)
DIIS solution               ....       0.171 sec  (  0.8%)
Grid generation             ....       0.384 sec  (  1.8%)


           ************************************************************
           *        Program running with 24 parallel MPI-processes    *
           *              working on a common directory               *
           ************************************************************

------------------------------------------------------------------------------
                                ORCA  MP2 
------------------------------------------------------------------------------

Freezing NCore=40 chemical core electrons

-------------
RI-MP2 ENERGY
-------------
Dimension of the basis                    ...  285
Memory devoted to MP2                     ... 5000 MB   
Data format for buffers                   ... DOUBLE
Compression type for matrix containers    ... UNCOMPRESSED
Overall scaling of the MP2 energy         ...   2.700e-01
Calculating two index integrals           ... done (    0.015 sec)
Cholesky decomposition of V**-1           ... done (    0.043 sec)

-----------------
RI-TRANSFORMATION (AUX index driven)
-----------------

Dimension of the orbital-basis         ... 285
Dimension of the aux-basis             ... 939
Transformation of internal/external MOs...   20-  57 to   58- 284
Number Format for Storage              ... Double (8 Byte)
Integral mode                          ... Direct

First Phase: integral generation and transformation of MO indices
  Aux angular momentum 0               ... done (    0.004 sec)
  Aux angular momentum 1               ... done (    0.007 sec)
  Aux angular momentum 2               ... done (    0.013 sec)
  Aux angular momentum 3               ... done (    0.021 sec)
  Aux angular momentum 4               ... done (    0.014 sec)
  Aux angular momentum 5               ... done (    0.021 sec)
  Aux angular momentum 6               ... done (    0.028 sec)
Closing buffer VIA ( 0.06 GB; CompressionRatio= 1.00)
  Phase 1 completed in     0.181 sec
Second Phase: sorting and transformation of aux index

IA-Transformation
Memory available                       ... 4986 MB 
Max. # MO pairs treated in a batch     ... 2    
# of internal orbitals                 ... 38
# batches for internal orbitals        ... 1
Closing buffer IAV ( 0.00 GB; CompressionRatio= 1.00)
(ia|v) transformation done in     0.041 sec

  Phase 2 completed in     0.096 sec
RI-Integral transformation completed in     0.279 sec

-----------------
RI-TRANSFORMATION (AUX index driven)
-----------------

Dimension of the orbital-basis         ... 285
Dimension of the aux-basis             ... 939
Transformation of internal/external MOs...   20-  56 to   57- 284
Number Format for Storage              ... Double (8 Byte)
Integral mode                          ... Direct

First Phase: integral generation and transformation of MO indices
  Aux angular momentum 0               ... done (    0.004 sec)
  Aux angular momentum 1               ... done (    0.008 sec)
  Aux angular momentum 2               ... done (    0.013 sec)
  Aux angular momentum 3               ... done (    0.021 sec)
  Aux angular momentum 4               ... done (    0.014 sec)
  Aux angular momentum 5               ... done (    0.020 sec)
  Aux angular momentum 6               ... done (    0.028 sec)
Closing buffer VIA ( 0.06 GB; CompressionRatio= 1.00)
  Phase 1 completed in     0.186 sec
Second Phase: sorting and transformation of aux index

IA-Transformation
Memory available                       ... 4986 MB 
Max. # MO pairs treated in a batch     ... 2    
# of internal orbitals                 ... 37
# batches for internal orbitals        ... 1
Closing buffer IAV ( 0.00 GB; CompressionRatio= 1.00)
(ia|v) transformation done in     0.040 sec

  Phase 2 completed in     0.093 sec
RI-Integral transformation completed in     0.280 sec
Opening buffers                              ... done

Starting loop over batches of integrals:

Operator 0  - window                       ... ( 20- 57)x( 58-284)
Operator 0  - Memory available             ...  5000 MB
Operator 0  - Memory needed per MO         ...   1.6 MB
Operator 0  - Number of orbitals per batch ... 2
Operator 0  - Number of batches            ... 1

OPERATOR  0   PASS   0:  MOs    20 ...   21 +   22 ...   23 +   24 ...   25 +   26 ...   27
                            +   28 ...   29 +   30 ...   31 +   32 ...   33 +   34 ...   35
                            +   36 ...   37 +   38 ...   39 +   40 ...   41 +   42 ...   43
                            +   44 ...   45 +   46 ...   47 +   48 ...   49 +   50 ...   51
                            +   52 ...   53 +   54 ...   55 +   56 ...   57
  Reading integrals       ... ok

Operator 1  - window                       ... ( 20- 56)x( 57-284)
Operator 1  - Memory available             ...  5000 MB
Operator 1  - Memory needed per MO         ...   1.6 MB
Operator 1  - Number of orbitals per batch ... 2
Operator 1  - Number of batches            ... 1

OPERATOR  1   PASS   0:  MOs    20 ...   21 +   22 ...   23 +   24 ...   25 +   26 ...   27
                            +   28 ...   29 +   30 ...   31 +   32 ...   33 +   34 ...   35
                            +   36 ...   37 +   38 ...   39 +   40 ...   41 +   42 ...   43
                            +   44 ...   45 +   46 ...   47 +   48 ...   49 +   50 ...   51
                            +   52 ...   53 +   54 ...   55 +   56 ...   56
  Reading integrals       ... ok
Time spent in pair loops =     0.616 sec
Deleting buffer (Ka|jb)[aa] ...done
Deleting buffer (Ka|jb)[ab] ...done
Deleting buffer (Ka|jb)[ba] ...done
Deleting buffer (Ka|jb)[bb] ...done

Correlation energy components}
 E2 and T2 for alpha/alpha pairs :     -0.188811350 Eh      0.000000000
 E2 and T2 for beta/beta   pairs :     -0.189268798 Eh      0.000000000
 E2 and T2 for alpha/beta  pairs :     -0.708935670 Eh      0.000000000


-----------------------------------------------
 RI-MP2 CORRELATION ENERGY:     -1.087015818 Eh
-----------------------------------------------


-------
TIMINGS
-------

Total time                :    1.404 sec
Integral trafo            :    0.569 sec ( 40.5%)
I/O of integrals          :    0.004 sec (  0.3%)
K(i,j) Operators          :    0.318 sec ( 22.6%)
T(i,j) pair energies      :    0.015 sec (  1.1%)
V-calculation             :    0.015 sec (  1.1%)
V**(-1/2)                 :    0.043 sec (  3.1%)
Gamma(ia|P)               :    0.000 sec (  0.0%)
Gamma-Trafo               :    0.000 sec (  0.0%)
D(virtual)                :    0.000 sec (  0.0%)
D(internal)               :    0.000 sec (  0.0%)
W(virtual)                :    0.000 sec (  0.0%)
W(internal)               :    0.000 sec (  0.0%)
L(virtual)                :    0.000 sec (  0.0%)
L(internal)               :    0.000 sec (  0.0%)
G(D)                      :    0.000 sec (  0.0%)
G(Z)                      :    0.000 sec (  0.0%)
Z-Vector Solution         :    0.000 sec (  0.0%)
Z-Vector Solution         :    0.000 sec (  0.0%)
3-Index Derivative 
+ Separable RIJ part      :    0.000 sec (  0.0%)
2-Index Derivative 
+ Separable RIJ part      :    0.000 sec (  0.0%)
Separable Gradient (X)    :    0.000 sec (  0.0%)


---------------------------------------
MP2 TOTAL ENERGY:    -6561.354368501 Eh
---------------------------------------


-------------------------------------------------------------------------------
                          DFT DISPERSION CORRECTION                            
                                                                               
                              DFTD3 V3.1  Rev 1                                
                          USING Becke-Johnson damping                          
-------------------------------------------------------------------------------
The B2PLYP functional is recognized
Active option DFTDOPT                   ...         4   

molecular C6(AA) [au] = 2980.231818 


            DFT-D V3
 parameters
 s6 scaling factor         :     0.6400 
 a1 scaling factor         :     0.3065 
 s8 scaling factor         :     0.9147 
 a2 scaling factor         :     5.0570 
 ad hoc parameters k1-k3   :    16.0000     1.3333    -4.0000 

 Edisp/kcal,au: -5.860968176070  -0.009340046315 
 E6   /kcal   :  -2.087340373 
 E8   /kcal   :  -3.773627803 
 % E8         :  64.385741231 

-------------------------   ----------------
Dispersion correction           -0.009340046
-------------------------   ----------------


-------------------------   --------------------
FINAL SINGLE POINT ENERGY     -6561.363708547768
-------------------------   --------------------


                            ***************************************
                            *     ORCA property calculations      *
                            ***************************************


  WARNING: The energy has been calculated at the MP2 level but the densities
           used in the property calculations are still SCF densities
           MP2 response densities have not been calculated 
           use %mp2 Density relaxed end
           or  %mp2 Density unrelaxed end

                                    ---------------------
                                    Active property flags
                                    ---------------------
   (+) Dipole Moment


------------------------------------------------------------------------------
                       ORCA ELECTRIC PROPERTIES CALCULATION
------------------------------------------------------------------------------

Dipole Moment Calculation                       ... on
Quadrupole Moment Calculation                   ... off
Polarizability Calculation                      ... off
GBWName                                         ... Cu04C2_H_F.gbw
Electron density file                           ... Cu04C2_H_F.scfp
The origin for moment calculation is the CENTER OF MASS  = ( 0.000000,  0.000000  0.013733)

-------------
DIPOLE MOMENT
-------------
                                X             Y             Z
Electronic contribution:     -0.00000       0.00001       1.67238
Nuclear contribution   :      0.00000       0.00000      -1.60670
                        -----------------------------------------
Total Dipole Moment    :     -0.00000       0.00001       0.06568
                        -----------------------------------------
Magnitude (a.u.)       :      0.06568
Magnitude (Debye)      :      0.16695



--------------------
Rotational spectrum 
--------------------
 
Rotational constants in cm-1:     0.045915     0.042882     0.042882 
Rotational constants in MHz :  1376.483459  1285.559854  1285.559421 

 Dipole components along the rotational axes: 
x,y,z [a.u.] :     0.065683     0.000011    -0.000000 
x,y,z [Debye]:     0.166953     0.000029    -0.000000 

 

Timings for individual modules:

Sum of individual times         ...       24.049 sec (=   0.401 min)
GTO integral calculation        ...        0.954 sec (=   0.016 min)   4.0 %
SCF iterations                  ...       21.177 sec (=   0.353 min)  88.1 %
MP2 module                      ...        1.918 sec (=   0.032 min)   8.0 %
                             ****ORCA TERMINATED NORMALLY****
TOTAL RUN TIME: 0 days 0 hours 0 minutes 24 seconds 561 msec
