
                                 *****************
                                 * O   R   C   A *
                                 *****************

           --- An Ab Initio, DFT and Semiempirical electronic structure package ---

                  #######################################################
                  #                        -***-                        #
                  #          Department of theory and spectroscopy      #
                  #               Directorship: Frank Neese             #
                  #        Max Planck Institute fuer Kohlenforschung    #
                  #                Kaiser Wilhelm Platz 1               #
                  #                 D-45470 Muelheim/Ruhr               #
                  #                      Germany                        #
                  #                                                     #
                  #                  All rights reserved                #
                  #                        -***-                        #
                  #######################################################


                         Program Version 4.2.0 -  RELEASE  -


 With contributions from (in alphabetic order):
   Daniel Aravena         : Magnetic Suceptibility
   Michael Atanasov       : Ab Initio Ligand Field Theory (pilot matlab implementation)
   Alexander A. Auer      : GIAO ZORA, VPT2
   Ute Becker             : Parallelization
   Giovanni Bistoni       : ED, misc. LED, open-shell LED, HFLED
   Martin Brehm           : Molecular dynamics
   Dmytro Bykov           : SCF Hessian
   Vijay G. Chilkuri      : MRCI spin determinant printing, contributions to CSF-ICE
   Dipayan Datta          : RHF DLPNO-CCSD density
   Achintya Kumar Dutta   : EOM-CC, STEOM-CC
   Dmitry Ganyushin       : Spin-Orbit,Spin-Spin,Magnetic field MRCI
   Miquel Garcia          : C-PCM Hessian, Gaussian charge scheme
   Yang Guo               : DLPNO-NEVPT2, CIM, IAO-localization
   Andreas Hansen         : Spin unrestricted coupled pair/coupled cluster methods
   Benjamin Helmich-Paris : CASSCF linear response (MC-RPA)
   Lee Huntington         : MR-EOM, pCC
   Robert Izsak           : Overlap fitted RIJCOSX, COSX-SCS-MP3, EOM
   Christian Kollmar      : KDIIS, OOCD, Brueckner-CCSD(T), CCSD density
   Simone Kossmann        : Meta GGA functionals, TD-DFT gradient, OOMP2, MP2 Hessian
   Martin Krupicka        : AUTO-CI
   Lucas Lang             : DCDCAS
   Dagmar Lenk            : GEPOL surface, SMD
   Dimitrios Liakos       : Extrapolation schemes; Compound Job, initial MDCI parallelization
   Dimitrios Manganas     : Further ROCIS development; embedding schemes
   Dimitrios Pantazis     : SARC Basis sets
   Taras Petrenko         : DFT Hessian,TD-DFT gradient, ASA, ECA, R-Raman, ABS, FL, XAS/XES, NRVS
   Peter Pinski           : DLPNO-MP2, DLPNO-MP2 Gradient
   Christoph Reimann      : Effective Core Potentials
   Marius Retegan         : Local ZFS, SOC
   Christoph Riplinger    : Optimizer, TS searches, QM/MM, DLPNO-CCSD(T), (RO)-DLPNO pert. Triples
   Tobias Risthaus        : Range-separated hybrids, TD-DFT gradient, RPA, STAB
   Michael Roemelt        : Original ROCIS implementation
   Masaaki Saitow         : Open-shell DLPNO-CCSD energy and density
   Barbara Sandhoefer     : DKH picture change effects
   Avijit Sen             : IP-ROCIS
   Kantharuban Sivalingam : CASSCF convergence, NEVPT2, FIC-MRCI
   Bernardo de Souza      : ESD, SOC TD-DFT
   Georgi Stoychev        : AutoAux, RI-MP2 NMR
   Willem Van den Heuvel  : Paramagnetic NMR
   Boris Wezisla          : Elementary symmetry handling
   Frank Wennmohs         : Technical directorship


 We gratefully acknowledge several colleagues who have allowed us to
 interface, adapt or use parts of their codes:
   Stefan Grimme, W. Hujo, H. Kruse,             : VdW corrections, initial TS optimization,
                  C. Bannwarth                     DFT functionals, gCP, sTDA/sTD-DF
   Ed Valeev, F. Pavosevic, A. Kumar             : LibInt (2-el integral package), F12 methods
   Garnet Chan, S. Sharma, J. Yang, R. Olivares  : DMRG
   Ulf Ekstrom                                   : XCFun DFT Library
   Mihaly Kallay                                 : mrcc  (arbitrary order and MRCC methods)
   Andreas Klamt, Michael Diedenhofen            : otool_cosmo (COSMO solvation model)
   Jiri Pittner, Ondrej Demel                    : Mk-CCSD
   Frank Weinhold                                : gennbo (NPA and NBO analysis)
   Christopher J. Cramer and Donald G. Truhlar   : smd solvation model
   Lars Goerigk                                  : TD-DFT with DH, B97 family of functionals
   V. Asgeirsson, H. Jonsson                     : NEB implementation
   FAccTs GmbH                                   : IRC, NEB, NEB-TS, Multilevel, MM, QM/MM, CI optimization
   S Lehtola, MJT Oliveira, MAL Marques          : LibXC Library


 Your calculation uses the libint2 library for the computation of 2-el integrals
 For citations please refer to: http://libint.valeyev.net

 Your ORCA version has been built with support for libXC version: 4.2.3
 For citations please refer to: https://tddft.org/programs/libxc/

 This ORCA versions uses:
   CBLAS   interface :  Fast vector & matrix operations
   LAPACKE interface :  Fast linear algebra routines
   SCALAPACK package :  Parallel linear algebra routines


Your calculation utilizes the atom-pairwise dispersion correction
with the zero-damping scheme (D30)
Cite in your paper:
S.Grimme, J.Antony, S.Ehrlich and H.Krieg, J.Chem.Phys., 132, (2010), 154104 
   

XCFun DFT library Copyright 2009-2010 Ulf Ekstrom and contributors.
See http://admol.org/xcfun for more information. This is free soft-
ware; see the source code for copying conditions. There is ABSOLUTELY
NO WARRANTY; not even for MERCHANTABILITY or FITNESS FOR A PARTICULAR
PURPOSE. For details see the documentation. Scientific users of this 
library should cite U. Ekstrom, L. Visscher, R. Bast, A. J. Thorvald-
sen and K. Ruud; J.Chem.Theor.Comp. 2010, DOI: 10.1021/ct100117s
XCFun Version 0.99 
----- Orbital basis set information -----
Your calculation utilizes the basis: def2-TZVPPD
   F. Weigend and R. Ahlrichs, Phys. Chem. Chem. Phys. 7, 3297 (2005).
   D. Rappoport and F. Furche, J. Chem. Phys. 133 134105 (2010).

----- AuxJK basis set information -----
Your calculation utilizes the auxiliary basis: def2/JK
   H-Ba, Hf-Rn: F. Weigend, J. Comput. Chem. 29, 167 (2008).

cite the ECPs for Ag [Def2-ECP] as follows:
Ce-Yb(ecp-28): M. Dolg, H. Stoll, H.Preuss, J. Chem. Phys., 1989, 90, 1730-1734.
Y-Cd(ecp-28), Hf-Hg(ecp-46): D. Andrae,U. Haeussermann, M. Dolg, H. Stoll, H. Preuss, Theor. Chim. Acta, 1990, 77, 123-141.
In-Sb(ecp-28), Tl-Bi(ecp-46): B. Metz, H. Stoll, M. Dolg, J. Chem. Phys., 2000, 113, 2563-2569.
Te-Xe(ecp-28), Po-Rn(ecp-46): K. A. Peterson, D. Figgen, E. Goll, H. Stoll, M. Dolg, J. Chem. Phys., 2003, 119, 11113-11123.
Rb(ecp-28), Cs(ecp-46): T. Leininger, A. Nicklass, W. Kuechle, H. Stoll, M. Dolg, A. Bergner, Chem. Phys. Lett., 1996, 255, 274-280.
Sr(ecp-28), Ba(ecp-46): M. Kaupp, P. V. Schleyer, H. Stoll and H. Preuss, J. Chem. Phys., 1991, 94, 1360-1366.
La(ecp-46): M. Dolg, H. Stoll, A. Savin, H. Preuss, Theor. Chim. Acta, 1989, 75, 173-194.
Lu(ecp-28): X. Cao, M. Dolg, J. Chem. Phys., 2001, 115, 7348-7355.

ECP parameters for Ag [Def2-ECP] have been obtained from:
TURBOMOLE (7.0.2)

================================================================================
                                        WARNINGS
                       Please study these warnings very carefully!
================================================================================


WARNING: Minnesota functionals are quite sensitive to the integration grid.
         see SE Wheeler, KN Houk, JCTC 2010, 6, 395,
             N Mardirossian, M Head-Gordon, JCTC 2016, 12, 4303.
         Grid6 seems to be a minimum grid for reliable results with these functionals!
  ===> : Please increase the integration grid!


INFO   : the flag for use of LIBINT has been found!

================================================================================
                                       INPUT FILE
================================================================================
NAME = Ag01N0_H.in
|  1> #
|  2> # Ag01N0_H M06-D3BJ/Def2-TZVPPD
|  3> #
|  4> ! m06 d3zero def2-tzvppd def2/jk grid4 nofinalgrid
|  5> 
|  6> *xyz 0 1
|  7> Ag       0.000000    0.000000    0.033547 
|  8> H        0.000000    0.000000   -1.576706 
|  9> *
| 10> 
| 11> %maxcore 5000
| 12> 
| 13> %pal
| 14> nprocs = 24
| 15> end
| 16> 
| 17> 
| 18>                          ****END OF INPUT****
================================================================================

                       ****************************
                       * Single Point Calculation *
                       ****************************

---------------------------------
CARTESIAN COORDINATES (ANGSTROEM)
---------------------------------
  Ag     0.000000    0.000000    0.033547
  H      0.000000    0.000000   -1.576706

----------------------------
CARTESIAN COORDINATES (A.U.)
----------------------------
  NO LB      ZA    FRAG     MASS         X           Y           Z
   0 Ag   19.0000*   0   107.870    0.000000    0.000000    0.063395
   1 H     1.0000    0     1.008    0.000000    0.000000   -2.979543
* core charge reduced due to ECP

--------------------------------
INTERNAL COORDINATES (ANGSTROEM)
--------------------------------
 Ag     0   0   0     0.000000000000     0.00000000     0.00000000
 H      1   0   0     1.610253000000     0.00000000     0.00000000

---------------------------
INTERNAL COORDINATES (A.U.)
---------------------------
 Ag     0   0   0     0.000000000000     0.00000000     0.00000000
 H      1   0   0     3.042937176325     0.00000000     0.00000000

---------------------
BASIS SET INFORMATION
---------------------
There are 2 groups of distinct atoms

 Group   1 Type Ag  : 7s7p6d2f1g contracted to 6s4p3d2f1g pattern {211111/4111/411/11/1}
 Group   2 Type H   : 5s3p1d contracted to 3s3p1d pattern {311/111/1}

Atom   0Ag   basis set group =>   1
Atom   1H    basis set group =>   2
----------------------------------
AUXILIARY/JK BASIS SET INFORMATION
----------------------------------
There are 2 groups of distinct atoms

 Group   1 Type Ag  : 13s12p10d9f6g3h2i contracted to 11s10p9d8f6g3h2i pattern {31111111111/3111111111/211111111/21111111/111111/111/11}
 Group   2 Type H   : 4s2p2d contracted to 2s2p2d pattern {31/11/11}

Atom   0Ag   basis set group =>   1
Atom   1H    basis set group =>   2
-------------------------
ECP PARAMETER INFORMATION
-------------------------

 Group 1, Type Ag ECP Def2-ECP (replacing 28 core electrons, lmax=3)

Atom   0Ag   ECP group =>   1



           ************************************************************
           *        Program running with 24 parallel MPI-processes    *
           *              working on a common directory               *
           ************************************************************
------------------------------------------------------------------------------
                           ORCA GTO INTEGRAL CALCULATION
------------------------------------------------------------------------------

                         BASIS SET STATISTICS AND STARTUP INFO

 # of primitive gaussian shells          ...   32
 # of primitive gaussian functions       ...  100
 # of contracted shells                  ...   23
 # of contracted basis functions         ...   73
 Highest angular momentum                ...    4
 Maximum contraction depth               ...    4
 Integral package used                   ... LIBINT
 Integral threshhold            Thresh   ...  1.000e-10
 Primitive cut-off              TCut     ...  1.000e-11


------------------------------ INTEGRAL EVALUATION ----------------------------


 * One electron integrals 

   ECP integrals                         ... done
 Pre-screening matrix                    ... done
 Shell pair data                         ... done (   0.000 sec)



           ************************************************************
           *        Program running with 24 parallel MPI-processes    *
           *              working on a common directory               *
           ************************************************************
-------------------------------------------------------------------------------
                                 ORCA SCF
-------------------------------------------------------------------------------

------------
SCF SETTINGS
------------
Hamiltonian:
 Density Functional     Method          .... DFT(GTOs)
 Exchange Functional    Exchange        .... M06
 Correlation Functional Correlation     .... M06
 Gradients option       PostSCFGGA      .... off
 Hybrid DFT is turned on
   Fraction HF Exchange ScalHFX         ....  0.270000
   Scaling of DF-GGA-X  ScalDFX         ....  0.730000
   Scaling of DF-GGA-C  ScalDFC         ....  1.000000
   Scaling of DF-LDA-C  ScalLDAC        ....  1.000000
   Perturbative correction              ....  0.000000
   Density functional embedding theory  .... OFF


General Settings:
 Integral files         IntName         .... Ag01N0_H
 Hartree-Fock type      HFTyp           .... RHF
 Total Charge           Charge          ....    0
 Multiplicity           Mult            ....    1
 Number of Electrons    NEL             ....   20
 Basis Dimension        Dim             ....   73
 Nuclear Repulsion      ENuc            ....      6.2439672261 Eh

Convergence Acceleration:
 DIIS                   CNVDIIS         .... on
   Start iteration      DIISMaxIt       ....    12
   Startup error        DIISStart       ....  0.200000
   # of expansion vecs  DIISMaxEq       ....     5
   Bias factor          DIISBfac        ....   1.050
   Max. coefficient     DIISMaxC        ....  10.000
 Newton-Raphson         CNVNR           .... off
 SOSCF                  CNVSOSCF        .... off
 Level Shifting         CNVShift        .... on
   Level shift para.    LevelShift      ....    0.2500
   Turn off err/grad.   ShiftErr        ....    0.0010
 Zerner damping         CNVZerner       .... off
 Static damping         CNVDamp         .... on
   Fraction old density DampFac         ....    0.7000
   Max. Damping (<1)    DampMax         ....    0.9800
   Min. Damping (>=0)   DampMin         ....    0.0000
   Turn off err/grad.   DampErr         ....    0.1000
 Fernandez-Rico         CNVRico         .... off

SCF Procedure:
 Maximum # iterations   MaxIter         ....   125
 SCF integral mode      SCFMode         .... Direct
   Integral package                     .... LIBINT
 Reset frequency        DirectResetFreq ....    20
 Integral Threshold     Thresh          ....  1.000e-10 Eh
 Primitive CutOff       TCut            ....  1.000e-11 Eh

Convergence Tolerance:
 Convergence Check Mode ConvCheckMode   .... Total+1el-Energy
 Convergence forced     ConvForced      .... 0
 Energy Change          TolE            ....  1.000e-06 Eh
 1-El. energy change                    ....  1.000e-03 Eh
 DIIS Error             TolErr          ....  1.000e-06


Diagonalization of the overlap matrix:
Smallest eigenvalue                        ... 3.316e-03
Time for diagonalization                   ...    0.018 sec
Threshold for overlap eigenvalues          ... 1.000e-08
Number of eigenvalues below threshold      ... 0
Time for construction of square roots      ...    0.001 sec
Total time needed                          ...    0.019 sec

-------------------
DFT GRID GENERATION
-------------------

General Integration Accuracy     IntAcc      ...  4.670
Radial Grid Type                 RadialGrid  ... Gauss-Chebyshev
Angular Grid (max. acc.)         AngularGrid ... Lebedev-302
Angular grid pruning method      GridPruning ... 3 (G Style)
Weight generation scheme         WeightScheme... Becke
Basis function cutoff            BFCut       ...    1.0000e-10
Integration weight cutoff        WCut        ...    1.0000e-14
Grids for H and He will be reduced by one unit

# of grid points (after initial pruning)     ...  14052 (   0.0 sec)
# of grid points (after weights+screening)   ...  13996 (   0.0 sec)
nearest neighbour list constructed           ...    0.0 sec
Grid point re-assignment to atoms done       ...    0.0 sec
Grid point division into batches done        ...    0.1 sec
Reduced shell lists constructed in    0.1 sec

Total number of grid points                  ...    13996
Total number of batches                      ...      220
Average number of points per batch           ...       63
Average number of grid points per atom       ...     6998
Average number of shells per batch           ...     2.27 ( 9.88%)
Average number of basis functions per batch  ...     4.82 ( 6.60%)
Average number of large shells per batch     ...     1.82 (80.00%)
Average number of large basis fcns per batch ...     3.82 (79.25%)
Maximum spatial batch extension              ...  40.43, 36.77, 24.60 au
Average spatial batch extension              ...   1.31,  1.23,  0.88 au

Time for grid setup =    0.125 sec

------------------------------
INITIAL GUESS: MODEL POTENTIAL
------------------------------
Loading Hartree-Fock densities                     ... done
  calling /sw/apps/orca/orca_4_2_0_linux_x86-64_openmpi314/orca Ag01N0_H_atom47.inp > Ag01N0_H_atom47.out in order to generate an atomic fitting density for atom 0 (Ag with ECP) on-the-fly... 
    atom 0 (Ag), assumed electronic state with S=2: 1s2 2s2 2p6 3s2 3p6 4s2 3d10 4p6 5s2 4d9           ... done
Calculating cut-offs                               ... done
Setting up the integral package                    ... done
Initializing the effective Hamiltonian             ... done
Starting the Coulomb interaction                   ... done (   0.0 sec)
Reading the grid                                   ... done
Mapping shells                                     ... done
Starting the XC term evaluation                    ... done (   0.0 sec)
  promolecular density results
     # of electrons  =     48.000708496
     EX              =   -143.701119977
     EC              =     -2.507503173
     EX+EC           =   -146.208623150
Transforming the Hamiltonian                       ... done (   0.0 sec)
Diagonalizing the Hamiltonian                      ... done (   0.0 sec)
Back transforming the eigenvectors                 ... done (   0.0 sec)
Now organizing SCF variables                       ... done
                      ------------------
                      INITIAL GUESS DONE (   1.8 sec)
                      ------------------
--------------
SCF ITERATIONS
--------------
ITER       Energy         Delta-E        Max-DP      RMS-DP      [F,P]     Damp
               ***  Starting incremental Fock matrix formation  ***
  0   -147.4910930947   0.000000000000 0.11542717  0.00335163  0.5002416 0.7000
  1   -147.5402516034  -0.049158508695 0.05703004  0.00189268  0.3271448 0.7000
  2   -147.5587616866  -0.018510083229 0.02315394  0.00091063  0.2170222 0.7000
                               ***Turning on DIIS***
  3   -147.5703358262  -0.011574139566 0.01178275  0.00055334  0.1491276 0.7000
  4   -147.5785222047  -0.008186378540 0.01844331  0.00051713  0.1046133 0.7000
  5   -147.5842692886  -0.005747083860 0.05876627  0.00148786  0.0737131 0.0000
  6   -147.5977074383  -0.013438149747 0.00333454  0.00008658  0.0021032 0.0000
  7   -147.5977138640  -0.000006425663 0.00107841  0.00003555  0.0009899 0.0000
  8   -147.5977165356  -0.000002671600 0.00039417  0.00001455  0.0004350 0.0000
  9   -147.5977167716  -0.000000236057 0.00011626  0.00000534  0.0002332 0.0000
                 **** Energy Check signals convergence ****

               *****************************************************
               *                     SUCCESS                       *
               *           SCF CONVERGED AFTER  10 CYCLES          *
               *****************************************************


----------------
TOTAL SCF ENERGY
----------------

Total Energy       :         -147.59771686 Eh           -4016.33806 eV

Components:
Nuclear Repulsion  :            6.24396723 Eh             169.90699 eV
Electronic Energy  :         -153.84168409 Eh           -4186.24505 eV
One Electron Energy:         -273.91925364 Eh           -7453.72183 eV
Two Electron Energy:          120.07756955 Eh            3267.47678 eV

Virial components:
Potential Energy   :         -204.37246558 Eh           -5561.25752 eV
Kinetic Energy     :           56.77474871 Eh            1544.91945 eV
Virial Ratio       :            3.59970709


DFT components:
N(Alpha)           :        9.999999091365 electrons
N(Beta)            :        9.999999091365 electrons
N(Total)           :       19.999998182729 electrons
E(XC)              :      -10.845834790113 Eh       
DFET-embed. en.    :        0.000000000000 Eh       

---------------
SCF CONVERGENCE
---------------

  Last Energy change         ...   -9.2470e-08  Tolerance :   1.0000e-06
  Last MAX-Density change    ...    4.6633e-05  Tolerance :   1.0000e-05
  Last RMS-Density change    ...    1.4851e-06  Tolerance :   1.0000e-06
  Last DIIS Error            ...    3.3631e-05  Tolerance :   1.0000e-06

             **** THE GBW FILE WAS UPDATED (Ag01N0_H.gbw) ****
             **** DENSITY FILE WAS UPDATED (Ag01N0_H.scfp) ****
             **** ENERGY FILE WAS UPDATED (Ag01N0_H.en.tmp) ****
             **** THE GBW FILE WAS UPDATED (Ag01N0_H.gbw) ****
             **** DENSITY FILE WAS UPDATED (Ag01N0_H.scfp) ****
----------------
ORBITAL ENERGIES
----------------

  NO   OCC          E(Eh)            E(eV) 
   0   2.0000      -3.739070      -101.7453 
   1   2.0000      -2.348728       -63.9121 
   2   2.0000      -2.343930       -63.7816 
   3   2.0000      -2.343930       -63.7816 
   4   2.0000      -0.403052       -10.9676 
   5   2.0000      -0.360442        -9.8081 
   6   2.0000      -0.360442        -9.8081 
   7   2.0000      -0.354681        -9.6514 
   8   2.0000      -0.354680        -9.6513 
   9   2.0000      -0.257167        -6.9979 
  10   0.0000      -0.078144        -2.1264 
  11   0.0000      -0.018439        -0.5018 
  12   0.0000      -0.018439        -0.5018 
  13   0.0000       0.040555         1.1036 
  14   0.0000       0.056129         1.5273 
  15   0.0000       0.135773         3.6946 
  16   0.0000       0.135773         3.6946 
  17   0.0000       0.161242         4.3876 
  18   0.0000       0.202334         5.5058 
  19   0.0000       0.202334         5.5058 
  20   0.0000       0.367286         9.9944 
  21   0.0000       0.393679        10.7126 
  22   0.0000       0.393681        10.7126 
  23   0.0000       0.402652        10.9567 
  24   0.0000       0.501372        13.6430 
  25   0.0000       0.501372        13.6430 
  26   0.0000       0.571638        15.5551 
  27   0.0000       0.849171        23.1071 
  28   0.0000       0.849171        23.1071 
  29   0.0000       1.038504        28.2591 
  30   0.0000       1.585717        43.1495 
  31   0.0000       1.585725        43.1498 
  32   0.0000       1.600496        43.5517 
  33   0.0000       1.600496        43.5517 
  34   0.0000       1.622912        44.1617 
  35   0.0000       1.622912        44.1617 
  36   0.0000       1.664463        45.2923 
  37   0.0000       1.664463        45.2923 
  38   0.0000       1.690394        45.9980 
  39   0.0000       1.843153        50.1547 
  40   0.0000       2.012535        54.7639 
  41   0.0000       2.046708        55.6938 
  42   0.0000       2.046717        55.6940 
  43   0.0000       2.099308        57.1251 
  44   0.0000       2.099308        57.1251 
  45   0.0000       2.219649        60.3997 
  46   0.0000       2.639059        71.8125 
  47   0.0000       3.207126        87.2703 
  48   0.0000       3.208642        87.3116 
  49   0.0000       3.423168        93.1491 
  50   0.0000       3.423168        93.1491 
  51   0.0000       3.864620       105.1617 
  52   0.0000       3.864620       105.1617 
  53   0.0000       3.891392       105.8902 
  54   0.0000       4.475787       121.7924 
  55   0.0000       4.778263       130.0231 
  56   0.0000       4.778263       130.0231 
  57   0.0000       4.788537       130.3027 
  58   0.0000       4.788547       130.3030 
  59   0.0000       4.959262       134.9484 
  60   0.0000       4.959262       134.9484 
  61   0.0000       5.169965       140.6819 
  62   0.0000       5.528517       150.4386 
  63   0.0000       5.528517       150.4386 
  64   0.0000       5.530474       150.4919 
  65   0.0000       5.530479       150.4920 
  66   0.0000       5.532937       150.5589 
  67   0.0000       5.532958       150.5594 
  68   0.0000       5.656540       153.9223 
  69   0.0000       5.656540       153.9223 
  70   0.0000       6.096836       165.9033 
  71   0.0000      33.673514       916.3029 
  72   0.0000     110.325105      3002.0987 

                    ********************************
                    * MULLIKEN POPULATION ANALYSIS *
                    ********************************

-----------------------
MULLIKEN ATOMIC CHARGES
-----------------------
   0 Ag:    0.057901
   1 H :   -0.057901
Sum of atomic charges:    0.0000000

--------------------------------
MULLIKEN REDUCED ORBITAL CHARGES
--------------------------------
  0 Ags       :     2.977757  s :     2.977757
      pz      :     2.086685  p :     6.087611
      px      :     2.000463
      py      :     2.000463
      dz2     :     1.885089  d :     9.875044
      dxz     :     1.995081
      dyz     :     1.995081
      dx2y2   :     1.999897
      dxy     :     1.999896
      f0      :     0.001318  f :     0.001644
      f+1     :     0.000078
      f-1     :     0.000078
      f+2     :     0.000085
      f-2     :     0.000085
      f+3     :     0.000000
      f-3     :     0.000000
      g0      :     0.000034  g :     0.000044
      g+1     :     0.000004
      g-1     :     0.000004
      g+2     :     0.000001
      g-2     :     0.000001
      g+3     :     0.000000
      g-3     :     0.000000
      g+4     :     0.000000
      g-4     :     0.000000
  1 H s       :     1.048869  s :     1.048869
      pz      :    -0.000481  p :     0.007257
      px      :     0.003869
      py      :     0.003869
      dz2     :     0.000729  d :     0.001775
      dxz     :     0.000505
      dyz     :     0.000505
      dx2y2   :     0.000018
      dxy     :     0.000018


                     *******************************
                     * LOEWDIN POPULATION ANALYSIS *
                     *******************************

----------------------
LOEWDIN ATOMIC CHARGES
----------------------
   0 Ag:    0.314289
   1 H :   -0.314289

-------------------------------
LOEWDIN REDUCED ORBITAL CHARGES
-------------------------------
  0 Ags       :     2.776550  s :     2.776550
      pz      :     2.078609  p :     6.076562
      px      :     1.998977
      py      :     1.998977
      dz2     :     1.887459  d :     9.829411
      dxz     :     1.971302
      dyz     :     1.971302
      dx2y2   :     1.999674
      dxy     :     1.999674
      f0      :     0.002492  f :     0.003144
      f+1     :     0.000239
      f-1     :     0.000239
      f+2     :     0.000088
      f-2     :     0.000088
      f+3     :     0.000000
      f-3     :     0.000000
      g0      :     0.000042  g :     0.000044
      g+1     :     0.000000
      g-1     :     0.000000
      g+2     :     0.000001
      g-2     :     0.000001
      g+3     :     0.000000
      g-3     :     0.000000
      g+4     :     0.000000
      g-4     :     0.000000
  1 H s       :     1.127727  s :     1.127727
      pz      :     0.117018  p :     0.167247
      px      :     0.025114
      py      :     0.025114
      dz2     :     0.010103  d :     0.019316
      dxz     :     0.004369
      dyz     :     0.004369
      dx2y2   :     0.000238
      dxy     :     0.000238


                      *****************************
                      * MAYER POPULATION ANALYSIS *
                      *****************************

  NA   - Mulliken gross atomic population
  ZA   - Total nuclear charge
  QA   - Mulliken gross atomic charge
  VA   - Mayer's total valence
  BVA  - Mayer's bonded valence
  FA   - Mayer's free valence

  ATOM       NA         ZA         QA         VA         BVA        FA
  0 Ag    18.9421    19.0000     0.0579     1.0675     1.0675     0.0000
  1 H      1.0579     1.0000    -0.0579     1.0675     1.0675     0.0000

  Mayer bond orders larger than 0.100000
B(  0-Ag,  1-H ) :   1.0675 

-------
TIMINGS
-------

Total SCF time: 0 days 0 hours 0 min 3 sec 

Total time                  ....       3.360 sec
Sum of individual times     ....       3.168 sec  ( 94.3%)

Fock matrix formation       ....       1.351 sec  ( 40.2%)
  XC integration            ....       0.146 sec  ( 10.8% of F)
    Basis function eval.    ....       0.010 sec  (  6.6% of XC)
    Density eval.           ....       0.014 sec  (  9.2% of XC)
    XC-Functional eval.     ....       0.042 sec  ( 29.0% of XC)
    XC-Potential eval.      ....       0.022 sec  ( 14.7% of XC)
Diagonalization             ....       0.009 sec  (  0.3%)
Density matrix formation    ....       0.003 sec  (  0.1%)
Population analysis         ....       0.002 sec  (  0.1%)
Initial guess               ....       1.672 sec  ( 49.8%)
Orbital Transformation      ....       0.000 sec  (  0.0%)
Orbital Orthonormalization  ....       0.000 sec  (  0.0%)
DIIS solution               ....       0.005 sec  (  0.2%)
Grid generation             ....       0.125 sec  (  3.7%)


-------------------------------------------------------------------------------
                          DFT DISPERSION CORRECTION                            
                                                                               
                              DFTD3 V3.1  Rev 1                                
                              USING zero damping                               
-------------------------------------------------------------------------------
The M06 functional is recognized
Active option DFTDOPT                   ...         3   

molecular C6(AA) [au] = 331.597041 


            DFT-D V3
 parameters
 s6 scaling factor         :     1.0000 
 rs6 scaling factor        :     1.3250 
 s8 scaling factor         :     0.0000 
 rs8 scaling factor        :     1.0000 
 Damping factor alpha6     :    14.0000 
 Damping factor alpha8     :    16.0000 
 ad hoc parameters k1-k3   :    16.0000     1.3333    -4.0000 

 Edisp/kcal,au: -0.000034109885  -0.000000054358 
 E6   /kcal   :  -0.000034110 
 E8   /kcal   :  -0.000000000 
 % E8         :   0.000000000 

-------------------------   ----------------
Dispersion correction           -0.000000054
-------------------------   ----------------


-------------------------   --------------------
FINAL SINGLE POINT ENERGY      -147.597716918471
-------------------------   --------------------


                            ***************************************
                            *     ORCA property calculations      *
                            ***************************************

                                    ---------------------
                                    Active property flags
                                    ---------------------
   (+) Dipole Moment


------------------------------------------------------------------------------
                       ORCA ELECTRIC PROPERTIES CALCULATION
------------------------------------------------------------------------------

Dipole Moment Calculation                       ... on
Quadrupole Moment Calculation                   ... off
Polarizability Calculation                      ... off
GBWName                                         ... Ag01N0_H.gbw
Electron density file                           ... Ag01N0_H.scfp
The origin for moment calculation is the CENTER OF MASS  = ( 0.000000,  0.000000  0.035223)

-------------
DIPOLE MOMENT
-------------
                                X             Y             Z
Electronic contribution:     -0.00000      -0.00000       3.55092
Nuclear contribution   :      0.00000       0.00000      -2.47950
                        -----------------------------------------
Total Dipole Moment    :     -0.00000      -0.00000       1.07141
                        -----------------------------------------
Magnitude (a.u.)       :      1.07141
Magnitude (Debye)      :      2.72331



--------------------
Rotational spectrum 
--------------------
 
Rotational constants in cm-1:     0.000000     6.510099     6.510099 
Rotational constants in MHz :     0.000000 195167.857171 195167.857171 

 Dipole components along the rotational axes: 
x,y,z [a.u.] :     1.071412    -0.000000    -0.000000 
x,y,z [Debye]:     2.723314    -0.000001    -0.000001 

 

Timings for individual modules:

Sum of individual times         ...        5.093 sec (=   0.085 min)
GTO integral calculation        ...        1.113 sec (=   0.019 min)  21.9 %
SCF iterations                  ...        3.980 sec (=   0.066 min)  78.1 %
                             ****ORCA TERMINATED NORMALLY****
TOTAL RUN TIME: 0 days 0 hours 0 minutes 5 seconds 728 msec
