
                                 *****************
                                 * O   R   C   A *
                                 *****************

           --- An Ab Initio, DFT and Semiempirical electronic structure package ---

                  #######################################################
                  #                        -***-                        #
                  #          Department of theory and spectroscopy      #
                  #               Directorship: Frank Neese             #
                  #        Max Planck Institute fuer Kohlenforschung    #
                  #                Kaiser Wilhelm Platz 1               #
                  #                 D-45470 Muelheim/Ruhr               #
                  #                      Germany                        #
                  #                                                     #
                  #                  All rights reserved                #
                  #                        -***-                        #
                  #######################################################


                         Program Version 4.2.0 -  RELEASE  -


 With contributions from (in alphabetic order):
   Daniel Aravena         : Magnetic Suceptibility
   Michael Atanasov       : Ab Initio Ligand Field Theory (pilot matlab implementation)
   Alexander A. Auer      : GIAO ZORA, VPT2
   Ute Becker             : Parallelization
   Giovanni Bistoni       : ED, misc. LED, open-shell LED, HFLED
   Martin Brehm           : Molecular dynamics
   Dmytro Bykov           : SCF Hessian
   Vijay G. Chilkuri      : MRCI spin determinant printing, contributions to CSF-ICE
   Dipayan Datta          : RHF DLPNO-CCSD density
   Achintya Kumar Dutta   : EOM-CC, STEOM-CC
   Dmitry Ganyushin       : Spin-Orbit,Spin-Spin,Magnetic field MRCI
   Miquel Garcia          : C-PCM Hessian, Gaussian charge scheme
   Yang Guo               : DLPNO-NEVPT2, CIM, IAO-localization
   Andreas Hansen         : Spin unrestricted coupled pair/coupled cluster methods
   Benjamin Helmich-Paris : CASSCF linear response (MC-RPA)
   Lee Huntington         : MR-EOM, pCC
   Robert Izsak           : Overlap fitted RIJCOSX, COSX-SCS-MP3, EOM
   Christian Kollmar      : KDIIS, OOCD, Brueckner-CCSD(T), CCSD density
   Simone Kossmann        : Meta GGA functionals, TD-DFT gradient, OOMP2, MP2 Hessian
   Martin Krupicka        : AUTO-CI
   Lucas Lang             : DCDCAS
   Dagmar Lenk            : GEPOL surface, SMD
   Dimitrios Liakos       : Extrapolation schemes; Compound Job, initial MDCI parallelization
   Dimitrios Manganas     : Further ROCIS development; embedding schemes
   Dimitrios Pantazis     : SARC Basis sets
   Taras Petrenko         : DFT Hessian,TD-DFT gradient, ASA, ECA, R-Raman, ABS, FL, XAS/XES, NRVS
   Peter Pinski           : DLPNO-MP2, DLPNO-MP2 Gradient
   Christoph Reimann      : Effective Core Potentials
   Marius Retegan         : Local ZFS, SOC
   Christoph Riplinger    : Optimizer, TS searches, QM/MM, DLPNO-CCSD(T), (RO)-DLPNO pert. Triples
   Tobias Risthaus        : Range-separated hybrids, TD-DFT gradient, RPA, STAB
   Michael Roemelt        : Original ROCIS implementation
   Masaaki Saitow         : Open-shell DLPNO-CCSD energy and density
   Barbara Sandhoefer     : DKH picture change effects
   Avijit Sen             : IP-ROCIS
   Kantharuban Sivalingam : CASSCF convergence, NEVPT2, FIC-MRCI
   Bernardo de Souza      : ESD, SOC TD-DFT
   Georgi Stoychev        : AutoAux, RI-MP2 NMR
   Willem Van den Heuvel  : Paramagnetic NMR
   Boris Wezisla          : Elementary symmetry handling
   Frank Wennmohs         : Technical directorship


 We gratefully acknowledge several colleagues who have allowed us to
 interface, adapt or use parts of their codes:
   Stefan Grimme, W. Hujo, H. Kruse,             : VdW corrections, initial TS optimization,
                  C. Bannwarth                     DFT functionals, gCP, sTDA/sTD-DF
   Ed Valeev, F. Pavosevic, A. Kumar             : LibInt (2-el integral package), F12 methods
   Garnet Chan, S. Sharma, J. Yang, R. Olivares  : DMRG
   Ulf Ekstrom                                   : XCFun DFT Library
   Mihaly Kallay                                 : mrcc  (arbitrary order and MRCC methods)
   Andreas Klamt, Michael Diedenhofen            : otool_cosmo (COSMO solvation model)
   Jiri Pittner, Ondrej Demel                    : Mk-CCSD
   Frank Weinhold                                : gennbo (NPA and NBO analysis)
   Christopher J. Cramer and Donald G. Truhlar   : smd solvation model
   Lars Goerigk                                  : TD-DFT with DH, B97 family of functionals
   V. Asgeirsson, H. Jonsson                     : NEB implementation
   FAccTs GmbH                                   : IRC, NEB, NEB-TS, Multilevel, MM, QM/MM, CI optimization
   S Lehtola, MJT Oliveira, MAL Marques          : LibXC Library


 Your calculation uses the libint2 library for the computation of 2-el integrals
 For citations please refer to: http://libint.valeyev.net

 Your ORCA version has been built with support for libXC version: 4.2.3
 For citations please refer to: https://tddft.org/programs/libxc/

 This ORCA versions uses:
   CBLAS   interface :  Fast vector & matrix operations
   LAPACKE interface :  Fast linear algebra routines
   SCALAPACK package :  Parallel linear algebra routines


Your calculation utilizes the atom-pairwise dispersion correction
with the zero-damping scheme (D30)
Cite in your paper:
S.Grimme, J.Antony, S.Ehrlich and H.Krieg, J.Chem.Phys., 132, (2010), 154104 
   

XCFun DFT library Copyright 2009-2010 Ulf Ekstrom and contributors.
See http://admol.org/xcfun for more information. This is free soft-
ware; see the source code for copying conditions. There is ABSOLUTELY
NO WARRANTY; not even for MERCHANTABILITY or FITNESS FOR A PARTICULAR
PURPOSE. For details see the documentation. Scientific users of this 
library should cite U. Ekstrom, L. Visscher, R. Bast, A. J. Thorvald-
sen and K. Ruud; J.Chem.Theor.Comp. 2010, DOI: 10.1021/ct100117s
XCFun Version 0.99 
----- Orbital basis set information -----
Your calculation utilizes the basis: def2-TZVPPD
   F. Weigend and R. Ahlrichs, Phys. Chem. Chem. Phys. 7, 3297 (2005).
   D. Rappoport and F. Furche, J. Chem. Phys. 133 134105 (2010).

----- AuxJK basis set information -----
Your calculation utilizes the auxiliary basis: def2/JK
   H-Ba, Hf-Rn: F. Weigend, J. Comput. Chem. 29, 167 (2008).

cite the ECPs for Ag [Def2-ECP] as follows:
Ce-Yb(ecp-28): M. Dolg, H. Stoll, H.Preuss, J. Chem. Phys., 1989, 90, 1730-1734.
Y-Cd(ecp-28), Hf-Hg(ecp-46): D. Andrae,U. Haeussermann, M. Dolg, H. Stoll, H. Preuss, Theor. Chim. Acta, 1990, 77, 123-141.
In-Sb(ecp-28), Tl-Bi(ecp-46): B. Metz, H. Stoll, M. Dolg, J. Chem. Phys., 2000, 113, 2563-2569.
Te-Xe(ecp-28), Po-Rn(ecp-46): K. A. Peterson, D. Figgen, E. Goll, H. Stoll, M. Dolg, J. Chem. Phys., 2003, 119, 11113-11123.
Rb(ecp-28), Cs(ecp-46): T. Leininger, A. Nicklass, W. Kuechle, H. Stoll, M. Dolg, A. Bergner, Chem. Phys. Lett., 1996, 255, 274-280.
Sr(ecp-28), Ba(ecp-46): M. Kaupp, P. V. Schleyer, H. Stoll and H. Preuss, J. Chem. Phys., 1991, 94, 1360-1366.
La(ecp-46): M. Dolg, H. Stoll, A. Savin, H. Preuss, Theor. Chim. Acta, 1989, 75, 173-194.
Lu(ecp-28): X. Cao, M. Dolg, J. Chem. Phys., 2001, 115, 7348-7355.

ECP parameters for Ag [Def2-ECP] have been obtained from:
TURBOMOLE (7.0.2)

================================================================================
                                        WARNINGS
                       Please study these warnings very carefully!
================================================================================


WARNING: Minnesota functionals are quite sensitive to the integration grid.
         see SE Wheeler, KN Houk, JCTC 2010, 6, 395,
             N Mardirossian, M Head-Gordon, JCTC 2016, 12, 4303.
         Grid6 seems to be a minimum grid for reliable results with these functionals!
  ===> : Please increase the integration grid!


INFO   : the flag for use of LIBINT has been found!

================================================================================
                                       INPUT FILE
================================================================================
NAME = Ag02N0.in
|  1> #
|  2> # Ag02N0 M06-D3BJ/Def2-TZVPPD
|  3> #
|  4> ! m06 d3zero def2-tzvppd def2/jk grid4 nofinalgrid
|  5> 
|  6> *xyz 0 1
|  7> Ag       0.000000    0.000000    1.261821 
|  8> Ag       0.000000    0.000000   -1.261821 
|  9> *
| 10> 
| 11> %maxcore 5000
| 12> 
| 13> %pal
| 14> nprocs = 24
| 15> end
| 16> 
| 17> 
| 18>                          ****END OF INPUT****
================================================================================

                       ****************************
                       * Single Point Calculation *
                       ****************************

---------------------------------
CARTESIAN COORDINATES (ANGSTROEM)
---------------------------------
  Ag     0.000000    0.000000    1.261821
  Ag     0.000000    0.000000   -1.261821

----------------------------
CARTESIAN COORDINATES (A.U.)
----------------------------
  NO LB      ZA    FRAG     MASS         X           Y           Z
   0 Ag   19.0000*   0   107.870    0.000000    0.000000    2.384496
   1 Ag   19.0000*   0   107.870    0.000000    0.000000   -2.384496
* core charge reduced due to ECP

--------------------------------
INTERNAL COORDINATES (ANGSTROEM)
--------------------------------
 Ag     0   0   0     0.000000000000     0.00000000     0.00000000
 Ag     1   0   0     2.523642000000     0.00000000     0.00000000

---------------------------
INTERNAL COORDINATES (A.U.)
---------------------------
 Ag     0   0   0     0.000000000000     0.00000000     0.00000000
 Ag     1   0   0     4.768992240061     0.00000000     0.00000000

---------------------
BASIS SET INFORMATION
---------------------
There are 1 groups of distinct atoms

 Group   1 Type Ag  : 7s7p6d2f1g contracted to 6s4p3d2f1g pattern {211111/4111/411/11/1}

Atom   0Ag   basis set group =>   1
Atom   1Ag   basis set group =>   1
----------------------------------
AUXILIARY/JK BASIS SET INFORMATION
----------------------------------
There are 1 groups of distinct atoms

 Group   1 Type Ag  : 13s12p10d9f6g3h2i contracted to 11s10p9d8f6g3h2i pattern {31111111111/3111111111/211111111/21111111/111111/111/11}

Atom   0Ag   basis set group =>   1
Atom   1Ag   basis set group =>   1
-------------------------
ECP PARAMETER INFORMATION
-------------------------

 Group 1, Type Ag ECP Def2-ECP (replacing 28 core electrons, lmax=3)

Atom   0Ag   ECP group =>   1
Atom   1Ag   ECP group =>   1



           ************************************************************
           *        Program running with 24 parallel MPI-processes    *
           *              working on a common directory               *
           ************************************************************
------------------------------------------------------------------------------
                           ORCA GTO INTEGRAL CALCULATION
------------------------------------------------------------------------------

                         BASIS SET STATISTICS AND STARTUP INFO

 # of primitive gaussian shells          ...   46
 # of primitive gaussian functions       ...  162
 # of contracted shells                  ...   32
 # of contracted basis functions         ...  112
 Highest angular momentum                ...    4
 Maximum contraction depth               ...    4
 Integral package used                   ... LIBINT
 Integral threshhold            Thresh   ...  1.000e-10
 Primitive cut-off              TCut     ...  1.000e-11


------------------------------ INTEGRAL EVALUATION ----------------------------


 * One electron integrals 

   ECP integrals                         ... done
 Pre-screening matrix                    ... done
 Shell pair data                         ... done (   0.000 sec)



           ************************************************************
           *        Program running with 24 parallel MPI-processes    *
           *              working on a common directory               *
           ************************************************************
-------------------------------------------------------------------------------
                                 ORCA SCF
-------------------------------------------------------------------------------

------------
SCF SETTINGS
------------
Hamiltonian:
 Density Functional     Method          .... DFT(GTOs)
 Exchange Functional    Exchange        .... M06
 Correlation Functional Correlation     .... M06
 Gradients option       PostSCFGGA      .... off
 Hybrid DFT is turned on
   Fraction HF Exchange ScalHFX         ....  0.270000
   Scaling of DF-GGA-X  ScalDFX         ....  0.730000
   Scaling of DF-GGA-C  ScalDFC         ....  1.000000
   Scaling of DF-LDA-C  ScalLDAC        ....  1.000000
   Perturbative correction              ....  0.000000
   Density functional embedding theory  .... OFF


General Settings:
 Integral files         IntName         .... Ag02N0
 Hartree-Fock type      HFTyp           .... RHF
 Total Charge           Charge          ....    0
 Multiplicity           Mult            ....    1
 Number of Electrons    NEL             ....   38
 Basis Dimension        Dim             ....  112
 Nuclear Repulsion      ENuc            ....     75.6973343273 Eh

Convergence Acceleration:
 DIIS                   CNVDIIS         .... on
   Start iteration      DIISMaxIt       ....    12
   Startup error        DIISStart       ....  0.200000
   # of expansion vecs  DIISMaxEq       ....     5
   Bias factor          DIISBfac        ....   1.050
   Max. coefficient     DIISMaxC        ....  10.000
 Newton-Raphson         CNVNR           .... off
 SOSCF                  CNVSOSCF        .... off
 Level Shifting         CNVShift        .... on
   Level shift para.    LevelShift      ....    0.2500
   Turn off err/grad.   ShiftErr        ....    0.0010
 Zerner damping         CNVZerner       .... off
 Static damping         CNVDamp         .... on
   Fraction old density DampFac         ....    0.7000
   Max. Damping (<1)    DampMax         ....    0.9800
   Min. Damping (>=0)   DampMin         ....    0.0000
   Turn off err/grad.   DampErr         ....    0.1000
 Fernandez-Rico         CNVRico         .... off

SCF Procedure:
 Maximum # iterations   MaxIter         ....   125
 SCF integral mode      SCFMode         .... Direct
   Integral package                     .... LIBINT
 Reset frequency        DirectResetFreq ....    20
 Integral Threshold     Thresh          ....  1.000e-10 Eh
 Primitive CutOff       TCut            ....  1.000e-11 Eh

Convergence Tolerance:
 Convergence Check Mode ConvCheckMode   .... Total+1el-Energy
 Convergence forced     ConvForced      .... 0
 Energy Change          TolE            ....  1.000e-06 Eh
 1-El. energy change                    ....  1.000e-03 Eh
 DIIS Error             TolErr          ....  1.000e-06


Diagonalization of the overlap matrix:
Smallest eigenvalue                        ... 4.183e-03
Time for diagonalization                   ...    0.021 sec
Threshold for overlap eigenvalues          ... 1.000e-08
Number of eigenvalues below threshold      ... 0
Time for construction of square roots      ...    0.001 sec
Total time needed                          ...    0.022 sec

-------------------
DFT GRID GENERATION
-------------------

General Integration Accuracy     IntAcc      ...  4.670
Radial Grid Type                 RadialGrid  ... Gauss-Chebyshev
Angular Grid (max. acc.)         AngularGrid ... Lebedev-302
Angular grid pruning method      GridPruning ... 3 (G Style)
Weight generation scheme         WeightScheme... Becke
Basis function cutoff            BFCut       ...    1.0000e-10
Integration weight cutoff        WCut        ...    1.0000e-14
Grids for H and He will be reduced by one unit

# of grid points (after initial pruning)     ...  21316 (   0.0 sec)
# of grid points (after weights+screening)   ...  21280 (   0.0 sec)
nearest neighbour list constructed           ...    0.0 sec
Grid point re-assignment to atoms done       ...    0.0 sec
Grid point division into batches done        ...    0.2 sec
Reduced shell lists constructed in    0.2 sec

Total number of grid points                  ...    21280
Total number of batches                      ...      334
Average number of points per batch           ...       63
Average number of grid points per atom       ...    10640
Average number of shells per batch           ...     1.47 ( 4.58%)
Average number of basis functions per batch  ...     2.93 ( 2.62%)
Average number of large shells per batch     ...     1.27 (86.36%)
Average number of large basis fcns per batch ...     2.73 (93.18%)
Maximum spatial batch extension              ...  31.14, 31.14, 19.99 au
Average spatial batch extension              ...   0.98,  0.98,  0.74 au

Time for grid setup =    0.293 sec

------------------------------
INITIAL GUESS: MODEL POTENTIAL
------------------------------
Loading Hartree-Fock densities                     ... done
  calling /sw/apps/orca/orca_4_2_0_linux_x86-64_openmpi314/orca Ag02N0_atom47.inp > Ag02N0_atom47.out in order to generate an atomic fitting density for atom 0 (Ag with ECP) on-the-fly... 
    atom 0 (Ag), assumed electronic state with S=2: 1s2 2s2 2p6 3s2 3p6 4s2 3d10 4p6 5s2 4d9           ... done
Calculating cut-offs                               ... done
Setting up the integral package                    ... done
Initializing the effective Hamiltonian             ... done
Starting the Coulomb interaction                   ... done (   0.0 sec)
Reading the grid                                   ... done
Mapping shells                                     ... done
Starting the XC term evaluation                    ... done (   0.0 sec)
  promolecular density results
     # of electrons  =     94.001400707
     EX              =   -286.846358084
     EC              =     -4.972493760
     EX+EC           =   -291.818851844
Transforming the Hamiltonian                       ... done (   0.0 sec)
Diagonalizing the Hamiltonian                      ... done (   0.0 sec)
Back transforming the eigenvectors                 ... done (   0.0 sec)
Now organizing SCF variables                       ... done
                      ------------------
                      INITIAL GUESS DONE (   2.1 sec)
                      ------------------
--------------
SCF ITERATIONS
--------------
ITER       Energy         Delta-E        Max-DP      RMS-DP      [F,P]     Damp
               ***  Starting incremental Fock matrix formation  ***
  0   -293.8708803402   0.000000000000 0.13121533  0.00350310  0.5019063 0.7000
  1   -293.9752876816  -0.104407341418 0.06972042  0.00205010  0.3263566 0.7000
  2   -294.0109289116  -0.035641230018 0.03227312  0.00091150  0.2155520 0.7000
                               ***Turning on DIIS***
  3   -294.0339356715  -0.023006759883 0.01780931  0.00044306  0.1480744 0.7000
  4   -294.0508112886  -0.016875617083 0.01289329  0.00030745  0.1041100 0.7000
  5   -294.0627130587  -0.011901770106 0.03455314  0.00082416  0.0734009 0.0000
  6   -294.0904770629  -0.027764004189 0.00451207  0.00012422  0.0008595 0.0000
  7   -294.0904797013  -0.000002638457 0.00064845  0.00002174  0.0012427 0.0000
  8   -294.0904840170  -0.000004315609 0.00061349  0.00001294  0.0001245 0.0000
  9   -294.0904841480  -0.000000131075 0.00007110  0.00000241  0.0000873 0.0000
                 **** Energy Check signals convergence ****

               *****************************************************
               *                     SUCCESS                       *
               *           SCF CONVERGED AFTER  10 CYCLES          *
               *****************************************************


----------------
TOTAL SCF ENERGY
----------------

Total Energy       :         -294.09048417 Eh           -8002.60892 eV

Components:
Nuclear Repulsion  :           75.69733433 Eh            2059.82919 eV
Electronic Energy  :         -369.78781850 Eh          -10062.43811 eV
One Electron Energy:         -673.84538387 Eh          -18336.26509 eV
Two Electron Energy:          304.05756537 Eh            8273.82699 eV

Virial components:
Potential Energy   :         -406.73533765 Eh          -11067.83122 eV
Kinetic Energy     :          112.64485348 Eh            3065.22230 eV
Virial Ratio       :            3.61077604


DFT components:
N(Alpha)           :       18.999989692216 electrons
N(Beta)            :       18.999989692216 electrons
N(Total)           :       37.999979384432 electrons
E(XC)              :      -21.227935018389 Eh       
DFET-embed. en.    :        0.000000000000 Eh       

---------------
SCF CONVERGENCE
---------------

  Last Energy change         ...   -2.2582e-08  Tolerance :   1.0000e-06
  Last MAX-Density change    ...    2.5636e-05  Tolerance :   1.0000e-05
  Last RMS-Density change    ...    9.0788e-07  Tolerance :   1.0000e-06
  Last DIIS Error            ...    2.3165e-05  Tolerance :   1.0000e-06

             **** THE GBW FILE WAS UPDATED (Ag02N0.gbw) ****
             **** DENSITY FILE WAS UPDATED (Ag02N0.scfp) ****
             **** ENERGY FILE WAS UPDATED (Ag02N0.en.tmp) ****
             **** THE GBW FILE WAS UPDATED (Ag02N0.gbw) ****
             **** DENSITY FILE WAS UPDATED (Ag02N0.scfp) ****
----------------
ORBITAL ENERGIES
----------------

  NO   OCC          E(Eh)            E(eV) 
   0   2.0000      -3.717856      -101.1680 
   1   2.0000      -3.717176      -101.1495 
   2   2.0000      -2.329849       -63.3984 
   3   2.0000      -2.323949       -63.2379 
   4   2.0000      -2.323949       -63.2379 
   5   2.0000      -2.323310       -63.2205 
   6   2.0000      -2.323310       -63.2205 
   7   2.0000      -2.322580       -63.2006 
   8   2.0000      -0.378260       -10.2930 
   9   2.0000      -0.361053        -9.8247 
  10   2.0000      -0.361053        -9.8247 
  11   2.0000      -0.341260        -9.2862 
  12   2.0000      -0.341253        -9.2860 
  13   2.0000      -0.333367        -9.0714 
  14   2.0000      -0.333361        -9.0712 
  15   2.0000      -0.321774        -8.7559 
  16   2.0000      -0.321774        -8.7559 
  17   2.0000      -0.314971        -8.5708 
  18   2.0000      -0.219292        -5.9672 
  19   0.0000      -0.092016        -2.5039 
  20   0.0000      -0.026205        -0.7131 
  21   0.0000      -0.026205        -0.7131 
  22   0.0000      -0.007306        -0.1988 
  23   0.0000       0.025595         0.6965 
  24   0.0000       0.025595         0.6965 
  25   0.0000       0.051533         1.4023 
  26   0.0000       0.092399         2.5143 
  27   0.0000       0.120757         3.2860 
  28   0.0000       0.153568         4.1788 
  29   0.0000       0.153568         4.1788 
  30   0.0000       0.153576         4.1790 
  31   0.0000       0.201179         5.4744 
  32   0.0000       0.201179         5.4744 
  33   0.0000       0.356093         9.6898 
  34   0.0000       0.360619         9.8129 
  35   0.0000       0.360628         9.8132 
  36   0.0000       0.412336        11.2202 
  37   0.0000       0.412336        11.2202 
  38   0.0000       0.446979        12.1629 
  39   0.0000       0.446981        12.1630 
  40   0.0000       0.558850        15.2071 
  41   0.0000       0.565377        15.3847 
  42   0.0000       0.565377        15.3847 
  43   0.0000       0.690661        18.7938 
  44   0.0000       1.405735        38.2520 
  45   0.0000       1.545313        42.0501 
  46   0.0000       1.545313        42.0501 
  47   0.0000       1.595420        43.4136 
  48   0.0000       1.595437        43.4141 
  49   0.0000       1.614043        43.9203 
  50   0.0000       1.614043        43.9203 
  51   0.0000       1.616336        43.9827 
  52   0.0000       1.616336        43.9827 
  53   0.0000       1.626336        44.2549 
  54   0.0000       1.626344        44.2551 
  55   0.0000       1.642062        44.6828 
  56   0.0000       1.642062        44.6828 
  57   0.0000       1.642105        44.6839 
  58   0.0000       1.642105        44.6839 
  59   0.0000       1.668524        45.4028 
  60   0.0000       1.742607        47.4187 
  61   0.0000       1.751294        47.6551 
  62   0.0000       1.751294        47.6551 
  63   0.0000       1.773502        48.2594 
  64   0.0000       1.947318        52.9892 
  65   0.0000       2.046798        55.6962 
  66   0.0000       2.046867        55.6981 
  67   0.0000       2.061139        56.0864 
  68   0.0000       2.061139        56.0864 
  69   0.0000       2.085558        56.7509 
  70   0.0000       2.085623        56.7527 
  71   0.0000       2.139132        58.2087 
  72   0.0000       2.148193        58.4553 
  73   0.0000       2.148193        58.4553 
  74   0.0000       2.304712        62.7144 
  75   0.0000       2.353209        64.0341 
  76   0.0000       4.739382       128.9651 
  77   0.0000       4.739382       128.9651 
  78   0.0000       4.749496       129.2404 
  79   0.0000       4.781356       130.1073 
  80   0.0000       4.781484       130.1108 
  81   0.0000       4.795389       130.4892 
  82   0.0000       4.795390       130.4892 
  83   0.0000       4.797341       130.5423 
  84   0.0000       4.797341       130.5423 
  85   0.0000       4.808732       130.8523 
  86   0.0000       4.808863       130.8558 
  87   0.0000       4.895024       133.2004 
  88   0.0000       4.895024       133.2004 
  89   0.0000       5.096813       138.6913 
  90   0.0000       5.543024       150.8334 
  91   0.0000       5.543024       150.8334 
  92   0.0000       5.545100       150.8898 
  93   0.0000       5.545104       150.8900 
  94   0.0000       5.545271       150.8945 
  95   0.0000       5.545676       150.9055 
  96   0.0000       5.545845       150.9101 
  97   0.0000       5.547565       150.9569 
  98   0.0000       5.547565       150.9569 
  99   0.0000       5.547593       150.9577 
 100   0.0000       5.547593       150.9577 
 101   0.0000       5.547808       150.9635 
 102   0.0000       5.547808       150.9635 
 103   0.0000       5.549731       151.0158 
 104   0.0000       5.549731       151.0159 
 105   0.0000       5.550201       151.0287 
 106   0.0000       5.550202       151.0287 
 107   0.0000       5.562695       151.3686 
 108   0.0000      33.470430       910.7767 
 109   0.0000      33.719353       917.5502 
 110   0.0000     110.280682      3000.8899 
 111   0.0000     110.358898      3003.0183 

                    ********************************
                    * MULLIKEN POPULATION ANALYSIS *
                    ********************************

-----------------------
MULLIKEN ATOMIC CHARGES
-----------------------
   0 Ag:   -0.000001
   1 Ag:    0.000001
Sum of atomic charges:   -0.0000000

--------------------------------
MULLIKEN REDUCED ORBITAL CHARGES
--------------------------------
  0 Ags       :     2.989434  s :     2.989434
      pz      :     2.030010  p :     6.042409
      px      :     2.006200
      py      :     2.006200
      dz2     :     1.979907  d :     9.966795
      dxz     :     1.993487
      dyz     :     1.993487
      dx2y2   :     1.999956
      dxy     :     1.999956
      f0      :     0.000641  f :     0.001343
      f+1     :     0.000308
      f-1     :     0.000308
      f+2     :     0.000043
      f-2     :     0.000043
      f+3     :     0.000000
      f-3     :     0.000000
      g0      :     0.000009  g :     0.000020
      g+1     :     0.000005
      g-1     :     0.000005
      g+2     :     0.000001
      g-2     :     0.000001
      g+3     :     0.000000
      g-3     :     0.000000
      g+4     :     0.000000
      g-4     :     0.000000
  1 Ags       :     2.989433  s :     2.989433
      pz      :     2.030009  p :     6.042409
      px      :     2.006200
      py      :     2.006200
      dz2     :     1.979907  d :     9.966795
      dxz     :     1.993487
      dyz     :     1.993487
      dx2y2   :     1.999956
      dxy     :     1.999956
      f0      :     0.000641  f :     0.001343
      f+1     :     0.000308
      f-1     :     0.000308
      f+2     :     0.000043
      f-2     :     0.000043
      f+3     :     0.000000
      f-3     :     0.000000
      g0      :     0.000009  g :     0.000020
      g+1     :     0.000005
      g-1     :     0.000005
      g+2     :     0.000001
      g-2     :     0.000001
      g+3     :     0.000000
      g-3     :     0.000000
      g+4     :     0.000000
      g-4     :     0.000000


                     *******************************
                     * LOEWDIN POPULATION ANALYSIS *
                     *******************************

----------------------
LOEWDIN ATOMIC CHARGES
----------------------
   0 Ag:   -0.000000
   1 Ag:    0.000000

-------------------------------
LOEWDIN REDUCED ORBITAL CHARGES
-------------------------------
  0 Ags       :     2.915311  s :     2.915311
      pz      :     2.089422  p :     6.107394
      px      :     2.008986
      py      :     2.008986
      dz2     :     1.994307  d :     9.975236
      dxz     :     1.990520
      dyz     :     1.990520
      dx2y2   :     1.999944
      dxy     :     1.999944
      f0      :     0.000947  f :     0.002033
      f+1     :     0.000487
      f-1     :     0.000487
      f+2     :     0.000055
      f-2     :     0.000055
      f+3     :     0.000000
      f-3     :     0.000000
      g0      :     0.000012  g :     0.000026
      g+1     :     0.000006
      g-1     :     0.000006
      g+2     :     0.000001
      g-2     :     0.000001
      g+3     :     0.000000
      g-3     :     0.000000
      g+4     :     0.000000
      g-4     :     0.000000
  1 Ags       :     2.915311  s :     2.915311
      pz      :     2.089422  p :     6.107394
      px      :     2.008986
      py      :     2.008986
      dz2     :     1.994307  d :     9.975236
      dxz     :     1.990520
      dyz     :     1.990520
      dx2y2   :     1.999944
      dxy     :     1.999944
      f0      :     0.000947  f :     0.002033
      f+1     :     0.000487
      f-1     :     0.000487
      f+2     :     0.000055
      f-2     :     0.000055
      f+3     :     0.000000
      f-3     :     0.000000
      g0      :     0.000012  g :     0.000026
      g+1     :     0.000006
      g-1     :     0.000006
      g+2     :     0.000001
      g-2     :     0.000001
      g+3     :     0.000000
      g-3     :     0.000000
      g+4     :     0.000000
      g-4     :     0.000000


                      *****************************
                      * MAYER POPULATION ANALYSIS *
                      *****************************

  NA   - Mulliken gross atomic population
  ZA   - Total nuclear charge
  QA   - Mulliken gross atomic charge
  VA   - Mayer's total valence
  BVA  - Mayer's bonded valence
  FA   - Mayer's free valence

  ATOM       NA         ZA         QA         VA         BVA        FA
  0 Ag    19.0000    19.0000    -0.0000     1.0409     1.0409    -0.0000
  1 Ag    19.0000    19.0000     0.0000     1.0409     1.0409    -0.0000

  Mayer bond orders larger than 0.100000
B(  0-Ag,  1-Ag) :   1.0409 

-------
TIMINGS
-------

Total SCF time: 0 days 0 hours 0 min 4 sec 

Total time                  ....       4.412 sec
Sum of individual times     ....       4.205 sec  ( 95.3%)

Fock matrix formation       ....       2.036 sec  ( 46.1%)
  XC integration            ....       0.219 sec  ( 10.8% of F)
    Basis function eval.    ....       0.015 sec  (  6.9% of XC)
    Density eval.           ....       0.021 sec  (  9.7% of XC)
    XC-Functional eval.     ....       0.054 sec  ( 24.6% of XC)
    XC-Potential eval.      ....       0.038 sec  ( 17.5% of XC)
Diagonalization             ....       0.018 sec  (  0.4%)
Density matrix formation    ....       0.003 sec  (  0.1%)
Population analysis         ....       0.003 sec  (  0.1%)
Initial guess               ....       1.845 sec  ( 41.8%)
Orbital Transformation      ....       0.000 sec  (  0.0%)
Orbital Orthonormalization  ....       0.000 sec  (  0.0%)
DIIS solution               ....       0.008 sec  (  0.2%)
Grid generation             ....       0.293 sec  (  6.6%)


-------------------------------------------------------------------------------
                          DFT DISPERSION CORRECTION                            
                                                                               
                              DFTD3 V3.1  Rev 1                                
                              USING zero damping                               
-------------------------------------------------------------------------------
The M06 functional is recognized
Active option DFTDOPT                   ...         3   

molecular C6(AA) [au] = 1086.308375 


            DFT-D V3
 parameters
 s6 scaling factor         :     1.0000 
 rs6 scaling factor        :     1.3250 
 s8 scaling factor         :     0.0000 
 rs8 scaling factor        :     1.0000 
 Damping factor alpha6     :    14.0000 
 Damping factor alpha8     :    16.0000 
 ad hoc parameters k1-k3   :    16.0000     1.3333    -4.0000 

 Edisp/kcal,au: -0.000964851696  -0.000001537589 
 E6   /kcal   :  -0.000964852 
 E8   /kcal   :  -0.000000000 
 % E8         :   0.000000000 

-------------------------   ----------------
Dispersion correction           -0.000001538
-------------------------   ----------------


-------------------------   --------------------
FINAL SINGLE POINT ENERGY      -294.090485708197
-------------------------   --------------------


                            ***************************************
                            *     ORCA property calculations      *
                            ***************************************

                                    ---------------------
                                    Active property flags
                                    ---------------------
   (+) Dipole Moment


------------------------------------------------------------------------------
                       ORCA ELECTRIC PROPERTIES CALCULATION
------------------------------------------------------------------------------

Dipole Moment Calculation                       ... on
Quadrupole Moment Calculation                   ... off
Polarizability Calculation                      ... off
GBWName                                         ... Ag02N0.gbw
Electron density file                           ... Ag02N0.scfp
The origin for moment calculation is the CENTER OF MASS  = ( 0.000000,  0.000000  0.000000)

-------------
DIPOLE MOMENT
-------------
                                X             Y             Z
Electronic contribution:      0.00000       0.00000       0.00000
Nuclear contribution   :      0.00000       0.00000       0.00000
                        -----------------------------------------
Total Dipole Moment    :      0.00000       0.00000       0.00000
                        -----------------------------------------
Magnitude (a.u.)       :      0.00000
Magnitude (Debye)      :      0.00000



--------------------
Rotational spectrum 
--------------------
 
Rotational constants in cm-1:     0.000000     0.049076     0.049076 
Rotational constants in MHz :     0.000000  1471.266775  1471.266775 

 Dipole components along the rotational axes: 
x,y,z [a.u.] :     0.000001     0.000001     0.000001 
x,y,z [Debye]:     0.000003     0.000002     0.000002 

 

Timings for individual modules:

Sum of individual times         ...        6.404 sec (=   0.107 min)
GTO integral calculation        ...        1.338 sec (=   0.022 min)  20.9 %
SCF iterations                  ...        5.066 sec (=   0.084 min)  79.1 %
                             ****ORCA TERMINATED NORMALLY****
TOTAL RUN TIME: 0 days 0 hours 0 minutes 7 seconds 86 msec
