
                                 *****************
                                 * O   R   C   A *
                                 *****************

           --- An Ab Initio, DFT and Semiempirical electronic structure package ---

                  #######################################################
                  #                        -***-                        #
                  #          Department of theory and spectroscopy      #
                  #               Directorship: Frank Neese             #
                  #        Max Planck Institute fuer Kohlenforschung    #
                  #                Kaiser Wilhelm Platz 1               #
                  #                 D-45470 Muelheim/Ruhr               #
                  #                      Germany                        #
                  #                                                     #
                  #                  All rights reserved                #
                  #                        -***-                        #
                  #######################################################


                         Program Version 4.2.0 -  RELEASE  -


 With contributions from (in alphabetic order):
   Daniel Aravena         : Magnetic Suceptibility
   Michael Atanasov       : Ab Initio Ligand Field Theory (pilot matlab implementation)
   Alexander A. Auer      : GIAO ZORA, VPT2
   Ute Becker             : Parallelization
   Giovanni Bistoni       : ED, misc. LED, open-shell LED, HFLED
   Martin Brehm           : Molecular dynamics
   Dmytro Bykov           : SCF Hessian
   Vijay G. Chilkuri      : MRCI spin determinant printing, contributions to CSF-ICE
   Dipayan Datta          : RHF DLPNO-CCSD density
   Achintya Kumar Dutta   : EOM-CC, STEOM-CC
   Dmitry Ganyushin       : Spin-Orbit,Spin-Spin,Magnetic field MRCI
   Miquel Garcia          : C-PCM Hessian, Gaussian charge scheme
   Yang Guo               : DLPNO-NEVPT2, CIM, IAO-localization
   Andreas Hansen         : Spin unrestricted coupled pair/coupled cluster methods
   Benjamin Helmich-Paris : CASSCF linear response (MC-RPA)
   Lee Huntington         : MR-EOM, pCC
   Robert Izsak           : Overlap fitted RIJCOSX, COSX-SCS-MP3, EOM
   Christian Kollmar      : KDIIS, OOCD, Brueckner-CCSD(T), CCSD density
   Simone Kossmann        : Meta GGA functionals, TD-DFT gradient, OOMP2, MP2 Hessian
   Martin Krupicka        : AUTO-CI
   Lucas Lang             : DCDCAS
   Dagmar Lenk            : GEPOL surface, SMD
   Dimitrios Liakos       : Extrapolation schemes; Compound Job, initial MDCI parallelization
   Dimitrios Manganas     : Further ROCIS development; embedding schemes
   Dimitrios Pantazis     : SARC Basis sets
   Taras Petrenko         : DFT Hessian,TD-DFT gradient, ASA, ECA, R-Raman, ABS, FL, XAS/XES, NRVS
   Peter Pinski           : DLPNO-MP2, DLPNO-MP2 Gradient
   Christoph Reimann      : Effective Core Potentials
   Marius Retegan         : Local ZFS, SOC
   Christoph Riplinger    : Optimizer, TS searches, QM/MM, DLPNO-CCSD(T), (RO)-DLPNO pert. Triples
   Tobias Risthaus        : Range-separated hybrids, TD-DFT gradient, RPA, STAB
   Michael Roemelt        : Original ROCIS implementation
   Masaaki Saitow         : Open-shell DLPNO-CCSD energy and density
   Barbara Sandhoefer     : DKH picture change effects
   Avijit Sen             : IP-ROCIS
   Kantharuban Sivalingam : CASSCF convergence, NEVPT2, FIC-MRCI
   Bernardo de Souza      : ESD, SOC TD-DFT
   Georgi Stoychev        : AutoAux, RI-MP2 NMR
   Willem Van den Heuvel  : Paramagnetic NMR
   Boris Wezisla          : Elementary symmetry handling
   Frank Wennmohs         : Technical directorship


 We gratefully acknowledge several colleagues who have allowed us to
 interface, adapt or use parts of their codes:
   Stefan Grimme, W. Hujo, H. Kruse,             : VdW corrections, initial TS optimization,
                  C. Bannwarth                     DFT functionals, gCP, sTDA/sTD-DF
   Ed Valeev, F. Pavosevic, A. Kumar             : LibInt (2-el integral package), F12 methods
   Garnet Chan, S. Sharma, J. Yang, R. Olivares  : DMRG
   Ulf Ekstrom                                   : XCFun DFT Library
   Mihaly Kallay                                 : mrcc  (arbitrary order and MRCC methods)
   Andreas Klamt, Michael Diedenhofen            : otool_cosmo (COSMO solvation model)
   Jiri Pittner, Ondrej Demel                    : Mk-CCSD
   Frank Weinhold                                : gennbo (NPA and NBO analysis)
   Christopher J. Cramer and Donald G. Truhlar   : smd solvation model
   Lars Goerigk                                  : TD-DFT with DH, B97 family of functionals
   V. Asgeirsson, H. Jonsson                     : NEB implementation
   FAccTs GmbH                                   : IRC, NEB, NEB-TS, Multilevel, MM, QM/MM, CI optimization
   S Lehtola, MJT Oliveira, MAL Marques          : LibXC Library


 Your calculation uses the libint2 library for the computation of 2-el integrals
 For citations please refer to: http://libint.valeyev.net

 Your ORCA version has been built with support for libXC version: 4.2.3
 For citations please refer to: https://tddft.org/programs/libxc/

 This ORCA versions uses:
   CBLAS   interface :  Fast vector & matrix operations
   LAPACKE interface :  Fast linear algebra routines
   SCALAPACK package :  Parallel linear algebra routines


Your calculation utilizes the atom-pairwise dispersion correction
with the zero-damping scheme (D30)
Cite in your paper:
S.Grimme, J.Antony, S.Ehrlich and H.Krieg, J.Chem.Phys., 132, (2010), 154104 
   

XCFun DFT library Copyright 2009-2010 Ulf Ekstrom and contributors.
See http://admol.org/xcfun for more information. This is free soft-
ware; see the source code for copying conditions. There is ABSOLUTELY
NO WARRANTY; not even for MERCHANTABILITY or FITNESS FOR A PARTICULAR
PURPOSE. For details see the documentation. Scientific users of this 
library should cite U. Ekstrom, L. Visscher, R. Bast, A. J. Thorvald-
sen and K. Ruud; J.Chem.Theor.Comp. 2010, DOI: 10.1021/ct100117s
XCFun Version 0.99 
----- Orbital basis set information -----
Your calculation utilizes the basis: def2-TZVPPD
   F. Weigend and R. Ahlrichs, Phys. Chem. Chem. Phys. 7, 3297 (2005).
   D. Rappoport and F. Furche, J. Chem. Phys. 133 134105 (2010).

----- AuxJK basis set information -----
Your calculation utilizes the auxiliary basis: def2/JK
   H-Ba, Hf-Rn: F. Weigend, J. Comput. Chem. 29, 167 (2008).

cite the ECPs for Ag [Def2-ECP] as follows:
Ce-Yb(ecp-28): M. Dolg, H. Stoll, H.Preuss, J. Chem. Phys., 1989, 90, 1730-1734.
Y-Cd(ecp-28), Hf-Hg(ecp-46): D. Andrae,U. Haeussermann, M. Dolg, H. Stoll, H. Preuss, Theor. Chim. Acta, 1990, 77, 123-141.
In-Sb(ecp-28), Tl-Bi(ecp-46): B. Metz, H. Stoll, M. Dolg, J. Chem. Phys., 2000, 113, 2563-2569.
Te-Xe(ecp-28), Po-Rn(ecp-46): K. A. Peterson, D. Figgen, E. Goll, H. Stoll, M. Dolg, J. Chem. Phys., 2003, 119, 11113-11123.
Rb(ecp-28), Cs(ecp-46): T. Leininger, A. Nicklass, W. Kuechle, H. Stoll, M. Dolg, A. Bergner, Chem. Phys. Lett., 1996, 255, 274-280.
Sr(ecp-28), Ba(ecp-46): M. Kaupp, P. V. Schleyer, H. Stoll and H. Preuss, J. Chem. Phys., 1991, 94, 1360-1366.
La(ecp-46): M. Dolg, H. Stoll, A. Savin, H. Preuss, Theor. Chim. Acta, 1989, 75, 173-194.
Lu(ecp-28): X. Cao, M. Dolg, J. Chem. Phys., 2001, 115, 7348-7355.

ECP parameters for Ag [Def2-ECP] have been obtained from:
TURBOMOLE (7.0.2)

================================================================================
                                        WARNINGS
                       Please study these warnings very carefully!
================================================================================


WARNING: your system is open-shell and RHF/RKS was chosen
  ===> : WILL SWITCH to UHF/UKS


WARNING: Minnesota functionals are quite sensitive to the integration grid.
         see SE Wheeler, KN Houk, JCTC 2010, 6, 395,
             N Mardirossian, M Head-Gordon, JCTC 2016, 12, 4303.
         Grid6 seems to be a minimum grid for reliable results with these functionals!
  ===> : Please increase the integration grid!


INFO   : the flag for use of LIBINT has been found!

================================================================================
                                       INPUT FILE
================================================================================
NAME = Ag03N0_LIN.in
|  1> #
|  2> # Ag03N0_LIN M06-D3BJ/Def2-TZVPPD
|  3> #
|  4> ! m06 d3zero def2-tzvppd def2/jk grid4 nofinalgrid
|  5> 
|  6> *xyz 0 2
|  7> Ag       0.000000    0.000000    0.000000 
|  8> Ag       0.000000    0.000000    2.592532 
|  9> Ag       0.000000    0.000000   -2.592532 
| 10> *
| 11> 
| 12> %maxcore 5000
| 13> 
| 14> %pal
| 15> nprocs = 24
| 16> end
| 17> 
| 18> 
| 19>                          ****END OF INPUT****
================================================================================

                       ****************************
                       * Single Point Calculation *
                       ****************************

---------------------------------
CARTESIAN COORDINATES (ANGSTROEM)
---------------------------------
  Ag     0.000000    0.000000    0.000000
  Ag     0.000000    0.000000    2.592532
  Ag     0.000000    0.000000   -2.592532

----------------------------
CARTESIAN COORDINATES (A.U.)
----------------------------
  NO LB      ZA    FRAG     MASS         X           Y           Z
   0 Ag   19.0000*   0   107.870    0.000000    0.000000    0.000000
   1 Ag   19.0000*   0   107.870    0.000000    0.000000    4.899175
   2 Ag   19.0000*   0   107.870    0.000000    0.000000   -4.899175
* core charge reduced due to ECP

--------------------------------
INTERNAL COORDINATES (ANGSTROEM)
--------------------------------
 Ag     0   0   0     0.000000000000     0.00000000     0.00000000
 Ag     1   0   0     2.592532000000     0.00000000     0.00000000
 Ag     1   2   0     2.592532000000   180.00000000     0.00000000

---------------------------
INTERNAL COORDINATES (A.U.)
---------------------------
 Ag     0   0   0     0.000000000000     0.00000000     0.00000000
 Ag     1   0   0     4.899175473427     0.00000000     0.00000000
 Ag     1   2   0     4.899175473427   180.00000000     0.00000000

---------------------
BASIS SET INFORMATION
---------------------
There are 1 groups of distinct atoms

 Group   1 Type Ag  : 7s7p6d2f1g contracted to 6s4p3d2f1g pattern {211111/4111/411/11/1}

Atom   0Ag   basis set group =>   1
Atom   1Ag   basis set group =>   1
Atom   2Ag   basis set group =>   1
----------------------------------
AUXILIARY/JK BASIS SET INFORMATION
----------------------------------
There are 1 groups of distinct atoms

 Group   1 Type Ag  : 13s12p10d9f6g3h2i contracted to 11s10p9d8f6g3h2i pattern {31111111111/3111111111/211111111/21111111/111111/111/11}

Atom   0Ag   basis set group =>   1
Atom   1Ag   basis set group =>   1
Atom   2Ag   basis set group =>   1
-------------------------
ECP PARAMETER INFORMATION
-------------------------

 Group 1, Type Ag ECP Def2-ECP (replacing 28 core electrons, lmax=3)

Atom   0Ag   ECP group =>   1
Atom   1Ag   ECP group =>   1
Atom   2Ag   ECP group =>   1



           ************************************************************
           *        Program running with 24 parallel MPI-processes    *
           *              working on a common directory               *
           ************************************************************
------------------------------------------------------------------------------
                           ORCA GTO INTEGRAL CALCULATION
------------------------------------------------------------------------------

                         BASIS SET STATISTICS AND STARTUP INFO

 # of primitive gaussian shells          ...   69
 # of primitive gaussian functions       ...  243
 # of contracted shells                  ...   48
 # of contracted basis functions         ...  168
 Highest angular momentum                ...    4
 Maximum contraction depth               ...    4
 Integral package used                   ... LIBINT
 Integral threshhold            Thresh   ...  1.000e-10
 Primitive cut-off              TCut     ...  1.000e-11


------------------------------ INTEGRAL EVALUATION ----------------------------


 * One electron integrals 

   ECP integrals                         ... done
 Pre-screening matrix                    ... done
 Shell pair data                         ... done (   0.000 sec)



           ************************************************************
           *        Program running with 24 parallel MPI-processes    *
           *              working on a common directory               *
           ************************************************************
-------------------------------------------------------------------------------
                                 ORCA SCF
-------------------------------------------------------------------------------

------------
SCF SETTINGS
------------
Hamiltonian:
 Density Functional     Method          .... DFT(GTOs)
 Exchange Functional    Exchange        .... M06
 Correlation Functional Correlation     .... M06
 Gradients option       PostSCFGGA      .... off
 Hybrid DFT is turned on
   Fraction HF Exchange ScalHFX         ....  0.270000
   Scaling of DF-GGA-X  ScalDFX         ....  0.730000
   Scaling of DF-GGA-C  ScalDFC         ....  1.000000
   Scaling of DF-LDA-C  ScalLDAC        ....  1.000000
   Perturbative correction              ....  0.000000
   Density functional embedding theory  .... OFF


General Settings:
 Integral files         IntName         .... Ag03N0_LIN
 Hartree-Fock type      HFTyp           .... UHF
 Total Charge           Charge          ....    0
 Multiplicity           Mult            ....    2
 Number of Electrons    NEL             ....   57
 Basis Dimension        Dim             ....  168
 Nuclear Repulsion      ENuc            ....    184.2146714065 Eh

Convergence Acceleration:
 DIIS                   CNVDIIS         .... on
   Start iteration      DIISMaxIt       ....    12
   Startup error        DIISStart       ....  0.200000
   # of expansion vecs  DIISMaxEq       ....     5
   Bias factor          DIISBfac        ....   1.050
   Max. coefficient     DIISMaxC        ....  10.000
 Newton-Raphson         CNVNR           .... off
 SOSCF                  CNVSOSCF        .... off
 Level Shifting         CNVShift        .... on
   Level shift para.    LevelShift      ....    0.2500
   Turn off err/grad.   ShiftErr        ....    0.0010
 Zerner damping         CNVZerner       .... off
 Static damping         CNVDamp         .... on
   Fraction old density DampFac         ....    0.7000
   Max. Damping (<1)    DampMax         ....    0.9800
   Min. Damping (>=0)   DampMin         ....    0.0000
   Turn off err/grad.   DampErr         ....    0.1000
 Fernandez-Rico         CNVRico         .... off

SCF Procedure:
 Maximum # iterations   MaxIter         ....   125
 SCF integral mode      SCFMode         .... Direct
   Integral package                     .... LIBINT
 Reset frequency        DirectResetFreq ....    20
 Integral Threshold     Thresh          ....  1.000e-10 Eh
 Primitive CutOff       TCut            ....  1.000e-11 Eh

Convergence Tolerance:
 Convergence Check Mode ConvCheckMode   .... Total+1el-Energy
 Convergence forced     ConvForced      .... 0
 Energy Change          TolE            ....  1.000e-06 Eh
 1-El. energy change                    ....  1.000e-03 Eh
 DIIS Error             TolErr          ....  1.000e-06


Diagonalization of the overlap matrix:
Smallest eigenvalue                        ... 1.205e-03
Time for diagonalization                   ...    0.004 sec
Threshold for overlap eigenvalues          ... 1.000e-08
Number of eigenvalues below threshold      ... 0
Time for construction of square roots      ...    0.003 sec
Total time needed                          ...    0.007 sec

-------------------
DFT GRID GENERATION
-------------------

General Integration Accuracy     IntAcc      ...  4.670
Radial Grid Type                 RadialGrid  ... Gauss-Chebyshev
Angular Grid (max. acc.)         AngularGrid ... Lebedev-302
Angular grid pruning method      GridPruning ... 3 (G Style)
Weight generation scheme         WeightScheme... Becke
Basis function cutoff            BFCut       ...    1.0000e-10
Integration weight cutoff        WCut        ...    1.0000e-14
Grids for H and He will be reduced by one unit

# of grid points (after initial pruning)     ...  31974 (   0.0 sec)
# of grid points (after weights+screening)   ...  31762 (   0.0 sec)
nearest neighbour list constructed           ...    0.0 sec
Grid point re-assignment to atoms done       ...    0.0 sec
Grid point division into batches done        ...    0.3 sec
Reduced shell lists constructed in    0.3 sec

Total number of grid points                  ...    31762
Total number of batches                      ...      498
Average number of points per batch           ...       63
Average number of grid points per atom       ...    10587
Average number of shells per batch           ...    11.91 (24.81%)
Average number of basis functions per batch  ...    30.45 (18.13%)
Average number of large shells per batch     ...     9.77 (82.06%)
Average number of large basis fcns per batch ...    24.32 (79.85%)
Maximum spatial batch extension              ...  36.77, 36.77,  4.81 au
Average spatial batch extension              ...   0.55,  0.56,  0.20 au

Time for grid setup =    0.406 sec

------------------------------
INITIAL GUESS: MODEL POTENTIAL
------------------------------
Loading Hartree-Fock densities                     ... done
  calling /sw/apps/orca/orca_4_2_0_linux_x86-64_openmpi314/orca Ag03N0_LIN_atom47.inp > Ag03N0_LIN_atom47.out in order to generate an atomic fitting density for atom 0 (Ag with ECP) on-the-fly... 
    atom 0 (Ag), assumed electronic state with S=2: 1s2 2s2 2p6 3s2 3p6 4s2 3d10 4p6 5s2 4d9           ... done
Calculating cut-offs                               ... done
Setting up the integral package                    ... done
Initializing the effective Hamiltonian             ... done
Starting the Coulomb interaction                   ... done (   0.0 sec)
Reading the grid                                   ... done
Mapping shells                                     ... done
Starting the XC term evaluation                    ... done (   0.0 sec)
  promolecular density results
     # of electrons  =    141.001771318
     EX              =   -430.283861762
     EC              =     -7.463897503
     EX+EC           =   -437.747759264
Transforming the Hamiltonian                       ... done (   0.0 sec)
Diagonalizing the Hamiltonian                      ... done (   0.0 sec)
Back transforming the eigenvectors                 ... done (   0.0 sec)
Now organizing SCF variables                       ... done
                      ------------------
                      INITIAL GUESS DONE (   2.0 sec)
                      ------------------
--------------
SCF ITERATIONS
--------------
ITER       Energy         Delta-E        Max-DP      RMS-DP      [F,P]     Damp
               ***  Starting incremental Fock matrix formation  ***
  0   -440.8249099948   0.000000000000 0.07089562  0.00152818  0.5039669 0.7000
  1   -440.9716769528  -0.146766957981 0.05224394  0.00093795  0.3287514 0.7000
  2   -441.0215519293  -0.049874976530 0.03250698  0.00044280  0.2174588 0.7000
                               ***Turning on DIIS***
  3   -441.0540319182  -0.032479988863 0.01843466  0.00023051  0.1491385 0.7000
  4   -441.0779147597  -0.023882841535 0.01005634  0.00016712  0.1045669 0.7000
  5   -441.0947613870  -0.016846627270 0.02318951  0.00045333  0.0738148 0.0000
  6   -441.1341158474  -0.039354460437 0.00646566  0.00008235  0.0009177 0.0000
  7   -441.1341484742  -0.000032626825 0.00063474  0.00001022  0.0012364 0.0000
  8   -441.1341570238  -0.000008549603 0.00173456  0.00001700  0.0001910 0.0000
  9   -441.1341599692  -0.000002945320 0.00077339  0.00000674  0.0001370 0.0000
 10   -441.1341604783  -0.000000509136 0.00029386  0.00000343  0.0001055 0.0000
                 **** Energy Check signals convergence ****

               *****************************************************
               *                     SUCCESS                       *
               *           SCF CONVERGED AFTER  11 CYCLES          *
               *****************************************************


----------------
TOTAL SCF ENERGY
----------------

Total Energy       :         -441.13416062 Eh          -12003.87078 eV

Components:
Nuclear Repulsion  :          184.21467141 Eh            5012.73605 eV
Electronic Energy  :         -625.34883203 Eh          -17016.60683 eV
One Electron Energy:        -1151.74733083 Eh          -31340.63820 eV
Two Electron Energy:          526.39849880 Eh           14324.03137 eV

Virial components:
Potential Energy   :         -610.09460243 Eh          -16601.51814 eV
Kinetic Energy     :          168.96044181 Eh            4597.64736 eV
Virial Ratio       :            3.61087244


DFT components:
N(Alpha)           :       28.999980932476 electrons
N(Beta)            :       27.999977561068 electrons
N(Total)           :       56.999958493544 electrons
E(XC)              :      -31.844545738324 Eh       
DFET-embed. en.    :        0.000000000000 Eh       

---------------
SCF CONVERGENCE
---------------

  Last Energy change         ...   -1.4590e-07  Tolerance :   1.0000e-06
  Last MAX-Density change    ...    1.3342e-04  Tolerance :   1.0000e-05
  Last RMS-Density change    ...    1.5952e-06  Tolerance :   1.0000e-06
  Last DIIS Error            ...    3.1249e-05  Tolerance :   1.0000e-06

             **** THE GBW FILE WAS UPDATED (Ag03N0_LIN.gbw) ****
             **** DENSITY FILE WAS UPDATED (Ag03N0_LIN.scfp) ****
             **** ENERGY FILE WAS UPDATED (Ag03N0_LIN.en.tmp) ****
----------------------
UHF SPIN CONTAMINATION
----------------------

Warning: in a DFT calculation there is little theoretical justification to 
         calculate <S**2> as in Hartree-Fock theory. We will do it anyways
         but you should keep in mind that the values have only limited relevance

Expectation value of <S**2>     :     0.761452
Ideal value S*(S+1) for S=0.5   :     0.750000
Deviation                       :     0.011452

             **** THE GBW FILE WAS UPDATED (Ag03N0_LIN.gbw) ****
             **** DENSITY FILE WAS UPDATED (Ag03N0_LIN.scfp) ****
----------------
ORBITAL ENERGIES
----------------
                 SPIN UP ORBITALS
  NO   OCC          E(Eh)            E(eV) 
   0   1.0000      -3.728629      -101.4612 
   1   1.0000      -3.728621      -101.4609 
   2   1.0000      -3.715795      -101.1119 
   3   1.0000      -2.338081       -63.6224 
   4   1.0000      -2.336932       -63.5912 
   5   1.0000      -2.334699       -63.5304 
   6   1.0000      -2.334699       -63.5304 
   7   1.0000      -2.334693       -63.5302 
   8   1.0000      -2.334693       -63.5302 
   9   1.0000      -2.323723       -63.2317 
  10   1.0000      -2.321498       -63.1712 
  11   1.0000      -2.321498       -63.1712 
  12   1.0000      -0.394260       -10.7284 
  13   1.0000      -0.371097       -10.0981 
  14   1.0000      -0.371097       -10.0981 
  15   1.0000      -0.356133        -9.6909 
  16   1.0000      -0.353325        -9.6145 
  17   1.0000      -0.353325        -9.6145 
  18   1.0000      -0.350383        -9.5344 
  19   1.0000      -0.350381        -9.5343 
  20   1.0000      -0.348993        -9.4966 
  21   1.0000      -0.348991        -9.4965 
  22   1.0000      -0.332559        -9.0494 
  23   1.0000      -0.332559        -9.0494 
  24   1.0000      -0.320141        -8.7115 
  25   1.0000      -0.320141        -8.7115 
  26   1.0000      -0.312740        -8.5101 
  27   1.0000      -0.241474        -6.5708 
  28   1.0000      -0.200930        -5.4676 
  29   0.0000      -0.079862        -2.1731 
  30   0.0000      -0.039368        -1.0713 
  31   0.0000      -0.039368        -1.0713 
  32   0.0000      -0.014152        -0.3851 
  33   0.0000      -0.007036        -0.1915 
  34   0.0000      -0.007036        -0.1915 
  35   0.0000       0.043854         1.1933 
  36   0.0000       0.045553         1.2396 
  37   0.0000       0.045553         1.2396 
  38   0.0000       0.063063         1.7160 
  39   0.0000       0.085948         2.3388 
  40   0.0000       0.095178         2.5899 
  41   0.0000       0.140348         3.8191 
  42   0.0000       0.140348         3.8191 
  43   0.0000       0.147118         4.0033 
  44   0.0000       0.165078         4.4920 
  45   0.0000       0.165078         4.4920 
  46   0.0000       0.219684         5.9779 
  47   0.0000       0.219684         5.9779 
  48   0.0000       0.242177         6.5900 
  49   0.0000       0.270872         7.3708 
  50   0.0000       0.345149         9.3920 
  51   0.0000       0.345155         9.3921 
  52   0.0000       0.388357        10.5677 
  53   0.0000       0.388357        10.5677 
  54   0.0000       0.389644        10.6027 
  55   0.0000       0.389649        10.6029 
  56   0.0000       0.419648        11.4192 
  57   0.0000       0.468211        12.7407 
  58   0.0000       0.468218        12.7408 
  59   0.0000       0.485323        13.2063 
  60   0.0000       0.485323        13.2063 
  61   0.0000       0.583874        15.8880 
  62   0.0000       0.660080        17.9617 
  63   0.0000       0.661021        17.9873 
  64   0.0000       0.661021        17.9873 
  65   0.0000       0.727483        19.7958 
  66   0.0000       1.437194        39.1080 
  67   0.0000       1.539711        41.8977 
  68   0.0000       1.539711        41.8977 
  69   0.0000       1.587350        43.1940 
  70   0.0000       1.587402        43.1954 
  71   0.0000       1.599226        43.5172 
  72   0.0000       1.599269        43.5183 
  73   0.0000       1.600880        43.5621 
  74   0.0000       1.600880        43.5621 
  75   0.0000       1.600943        43.5639 
  76   0.0000       1.600943        43.5639 
  77   0.0000       1.608427        43.7675 
  78   0.0000       1.612498        43.8783 
  79   0.0000       1.612498        43.8783 
  80   0.0000       1.620037        44.0834 
  81   0.0000       1.620037        44.0834 
  82   0.0000       1.622656        44.1547 
  83   0.0000       1.622714        44.1563 
  84   0.0000       1.627204        44.2785 
  85   0.0000       1.627204        44.2785 
  86   0.0000       1.641002        44.6539 
  87   0.0000       1.641002        44.6539 
  88   0.0000       1.688884        45.9569 
  89   0.0000       1.692651        46.0594 
  90   0.0000       1.692651        46.0594 
  91   0.0000       1.696735        46.1705 
  92   0.0000       1.758169        47.8422 
  93   0.0000       1.758169        47.8422 
  94   0.0000       1.768157        48.1140 
  95   0.0000       1.885429        51.3051 
  96   0.0000       1.949712        53.0544 
  97   0.0000       2.038747        55.4771 
  98   0.0000       2.038816        55.4790 
  99   0.0000       2.051791        55.8321 
 100   0.0000       2.051850        55.8337 
 101   0.0000       2.062069        56.1117 
 102   0.0000       2.062069        56.1117 
 103   0.0000       2.096455        57.0474 
 104   0.0000       2.096540        57.0497 
 105   0.0000       2.115256        57.5590 
 106   0.0000       2.115256        57.5590 
 107   0.0000       2.150637        58.5218 
 108   0.0000       2.174380        59.1679 
 109   0.0000       2.206621        60.0452 
 110   0.0000       2.206621        60.0452 
 111   0.0000       2.330403        63.4135 
 112   0.0000       2.357641        64.1547 
 113   0.0000       2.657142        72.3045 
 114   0.0000       4.719224       128.4166 
 115   0.0000       4.730895       128.7342 
 116   0.0000       4.730895       128.7342 
 117   0.0000       4.773584       129.8958 
 118   0.0000       4.773736       129.9000 
 119   0.0000       4.783855       130.1753 
 120   0.0000       4.783855       130.1753 
 121   0.0000       4.783909       130.1768 
 122   0.0000       4.783909       130.1768 
 123   0.0000       4.784680       130.1978 
 124   0.0000       4.784817       130.2015 
 125   0.0000       4.799228       130.5936 
 126   0.0000       4.799228       130.5936 
 127   0.0000       4.804582       130.7393 
 128   0.0000       4.804769       130.7444 
 129   0.0000       4.825149       131.2990 
 130   0.0000       4.825149       131.2990 
 131   0.0000       4.884014       132.9008 
 132   0.0000       4.884014       132.9008 
 133   0.0000       4.947976       134.6413 
 134   0.0000       5.101067       138.8071 
 135   0.0000       5.531937       150.5316 
 136   0.0000       5.531937       150.5316 
 137   0.0000       5.532365       150.5433 
 138   0.0000       5.532521       150.5476 
 139   0.0000       5.532588       150.5494 
 140   0.0000       5.532588       150.5494 
 141   0.0000       5.532704       150.5525 
 142   0.0000       5.532860       150.5568 
 143   0.0000       5.534148       150.5918 
 144   0.0000       5.534148       150.5918 
 145   0.0000       5.534148       150.5918 
 146   0.0000       5.534148       150.5918 
 147   0.0000       5.535073       150.6170 
 148   0.0000       5.535685       150.6337 
 149   0.0000       5.535691       150.6338 
 150   0.0000       5.536130       150.6458 
 151   0.0000       5.536130       150.6458 
 152   0.0000       5.537116       150.6726 
 153   0.0000       5.547225       150.9477 
 154   0.0000       5.547458       150.9540 
 155   0.0000       5.548837       150.9915 
 156   0.0000       5.548837       150.9915 
 157   0.0000       5.550367       151.0332 
 158   0.0000       5.550367       151.0332 
 159   0.0000       5.553276       151.1123 
 160   0.0000       5.553918       151.1298 
 161   0.0000       5.567258       151.4928 
 162   0.0000      33.469203       910.7433 
 163   0.0000      33.619905       914.8441 
 164   0.0000      34.015970       925.6216 
 165   0.0000     110.273660      3000.6988 
 166   0.0000     110.319346      3001.9420 
 167   0.0000     110.450389      3005.5079 

                 SPIN DOWN ORBITALS
  NO   OCC          E(Eh)            E(eV) 
   0   1.0000      -3.726857      -101.4129 
   1   1.0000      -3.726846      -101.4126 
   2   1.0000      -3.716245      -101.1242 
   3   1.0000      -2.337321       -63.6017 
   4   1.0000      -2.335960       -63.5647 
   5   1.0000      -2.333201       -63.4896 
   6   1.0000      -2.333201       -63.4896 
   7   1.0000      -2.333185       -63.4892 
   8   1.0000      -2.333185       -63.4892 
   9   1.0000      -2.324080       -63.2414 
  10   1.0000      -2.321732       -63.1775 
  11   1.0000      -2.321732       -63.1775 
  12   1.0000      -0.394204       -10.7268 
  13   1.0000      -0.370140       -10.0720 
  14   1.0000      -0.370140       -10.0720 
  15   1.0000      -0.354633        -9.6500 
  16   1.0000      -0.351548        -9.5661 
  17   1.0000      -0.351548        -9.5661 
  18   1.0000      -0.348596        -9.4858 
  19   1.0000      -0.348594        -9.4857 
  20   1.0000      -0.347023        -9.4430 
  21   1.0000      -0.347022        -9.4429 
  22   1.0000      -0.332459        -9.0467 
  23   1.0000      -0.332459        -9.0467 
  24   1.0000      -0.318893        -8.6775 
  25   1.0000      -0.318893        -8.6775 
  26   1.0000      -0.310752        -8.4560 
  27   1.0000      -0.228401        -6.2151 
  28   0.0000      -0.144919        -3.9435 
  29   0.0000      -0.065306        -1.7771 
  30   0.0000      -0.034084        -0.9275 
  31   0.0000      -0.034084        -0.9275 
  32   0.0000      -0.002143        -0.0583 
  33   0.0000       0.003480         0.0947 
  34   0.0000       0.003480         0.0947 
  35   0.0000       0.056612         1.5405 
  36   0.0000       0.056612         1.5405 
  37   0.0000       0.066739         1.8161 
  38   0.0000       0.085048         2.3143 
  39   0.0000       0.092960         2.5296 
  40   0.0000       0.120007         3.2656 
  41   0.0000       0.152612         4.1528 
  42   0.0000       0.152612         4.1528 
  43   0.0000       0.159925         4.3518 
  44   0.0000       0.185130         5.0376 
  45   0.0000       0.185130         5.0376 
  46   0.0000       0.230572         6.2742 
  47   0.0000       0.230572         6.2742 
  48   0.0000       0.249999         6.8028 
  49   0.0000       0.284536         7.7426 
  50   0.0000       0.343900         9.3580 
  51   0.0000       0.343901         9.3580 
  52   0.0000       0.387611        10.5474 
  53   0.0000       0.387618        10.5476 
  54   0.0000       0.391095        10.6422 
  55   0.0000       0.391096        10.6423 
  56   0.0000       0.428504        11.6602 
  57   0.0000       0.465133        12.6569 
  58   0.0000       0.465138        12.6571 
  59   0.0000       0.485753        13.2180 
  60   0.0000       0.485753        13.2180 
  61   0.0000       0.588710        16.0196 
  62   0.0000       0.660545        17.9744 
  63   0.0000       0.660545        17.9744 
  64   0.0000       0.664728        18.0882 
  65   0.0000       0.727620        19.7996 
  66   0.0000       1.440977        39.2110 
  67   0.0000       1.542141        41.9638 
  68   0.0000       1.542141        41.9638 
  69   0.0000       1.590210        43.2718 
  70   0.0000       1.590258        43.2731 
  71   0.0000       1.603536        43.6344 
  72   0.0000       1.603569        43.6353 
  73   0.0000       1.604639        43.6644 
  74   0.0000       1.604639        43.6644 
  75   0.0000       1.604723        43.6667 
  76   0.0000       1.604723        43.6667 
  77   0.0000       1.611011        43.8378 
  78   0.0000       1.616683        43.9922 
  79   0.0000       1.616683        43.9922 
  80   0.0000       1.619545        44.0701 
  81   0.0000       1.619545        44.0701 
  82   0.0000       1.624475        44.2042 
  83   0.0000       1.624530        44.2057 
  84   0.0000       1.628713        44.3195 
  85   0.0000       1.628713        44.3195 
  86   0.0000       1.642413        44.6923 
  87   0.0000       1.642413        44.6923 
  88   0.0000       1.689389        45.9706 
  89   0.0000       1.693646        46.0865 
  90   0.0000       1.693646        46.0865 
  91   0.0000       1.697757        46.1983 
  92   0.0000       1.758209        47.8433 
  93   0.0000       1.758209        47.8433 
  94   0.0000       1.771490        48.2047 
  95   0.0000       1.889489        51.4156 
  96   0.0000       1.953531        53.1583 
  97   0.0000       2.035006        55.3753 
  98   0.0000       2.035098        55.3778 
  99   0.0000       2.045995        55.6743 
 100   0.0000       2.046097        55.6771 
 101   0.0000       2.059036        56.0292 
 102   0.0000       2.059036        56.0292 
 103   0.0000       2.093228        56.9596 
 104   0.0000       2.093313        56.9619 
 105   0.0000       2.112346        57.4798 
 106   0.0000       2.112346        57.4798 
 107   0.0000       2.149997        58.5044 
 108   0.0000       2.177157        59.2434 
 109   0.0000       2.206995        60.0554 
 110   0.0000       2.206995        60.0554 
 111   0.0000       2.334477        63.5243 
 112   0.0000       2.364881        64.3517 
 113   0.0000       2.662712        72.4561 
 114   0.0000       4.720807       128.4597 
 115   0.0000       4.732775       128.7853 
 116   0.0000       4.732775       128.7853 
 117   0.0000       4.775748       129.9547 
 118   0.0000       4.775893       129.9587 
 119   0.0000       4.786055       130.2352 
 120   0.0000       4.786055       130.2352 
 121   0.0000       4.786123       130.2370 
 122   0.0000       4.786123       130.2370 
 123   0.0000       4.787472       130.2737 
 124   0.0000       4.787597       130.2771 
 125   0.0000       4.798660       130.5782 
 126   0.0000       4.798660       130.5782 
 127   0.0000       4.805817       130.7729 
 128   0.0000       4.806000       130.7779 
 129   0.0000       4.827919       131.3743 
 130   0.0000       4.827919       131.3743 
 131   0.0000       4.886544       132.9696 
 132   0.0000       4.886544       132.9696 
 133   0.0000       4.951160       134.7279 
 134   0.0000       5.104717       138.9064 
 135   0.0000       5.537419       150.6808 
 136   0.0000       5.537419       150.6808 
 137   0.0000       5.537677       150.6879 
 138   0.0000       5.537677       150.6879 
 139   0.0000       5.538032       150.6975 
 140   0.0000       5.538184       150.7016 
 141   0.0000       5.538371       150.7067 
 142   0.0000       5.538522       150.7108 
 143   0.0000       5.539846       150.7469 
 144   0.0000       5.540082       150.7533 
 145   0.0000       5.540082       150.7533 
 146   0.0000       5.540082       150.7533 
 147   0.0000       5.540082       150.7533 
 148   0.0000       5.541886       150.8024 
 149   0.0000       5.541890       150.8025 
 150   0.0000       5.542346       150.8149 
 151   0.0000       5.542346       150.8149 
 152   0.0000       5.542672       150.8238 
 153   0.0000       5.546570       150.9298 
 154   0.0000       5.546809       150.9363 
 155   0.0000       5.548729       150.9886 
 156   0.0000       5.548729       150.9886 
 157   0.0000       5.549539       151.0106 
 158   0.0000       5.549539       151.0106 
 159   0.0000       5.552428       151.0893 
 160   0.0000       5.553068       151.1067 
 161   0.0000       5.567766       151.5066 
 162   0.0000      33.471686       910.8109 
 163   0.0000      33.622693       914.9200 
 164   0.0000      34.016616       925.6392 
 165   0.0000     110.275796      3000.7570 
 166   0.0000     110.321773      3002.0081 
 167   0.0000     110.451011      3005.5248 

                    ********************************
                    * MULLIKEN POPULATION ANALYSIS *
                    ********************************

--------------------------------------------
MULLIKEN ATOMIC CHARGES AND SPIN POPULATIONS
--------------------------------------------
   0 Ag:   -0.085609    0.013400
   1 Ag:    0.042799    0.493300
   2 Ag:    0.042809    0.493300
Sum of atomic charges         :   -0.0000000
Sum of atomic spin populations:    1.0000000

-----------------------------------------------------
MULLIKEN REDUCED ORBITAL CHARGES AND SPIN POPULATIONS
-----------------------------------------------------
CHARGE
  0 Ags       :     3.001857  s :     3.001857
      pz      :     2.111958  p :     6.133206
      px      :     2.010624
      py      :     2.010624
      dz2     :     1.976257  d :     9.948566
      dxz     :     1.986326
      dyz     :     1.986326
      dx2y2   :     1.999828
      dxy     :     1.999828
      f0      :     0.001015  f :     0.001950
      f+1     :     0.000433
      f-1     :     0.000433
      f+2     :     0.000034
      f-2     :     0.000034
      f+3     :     0.000000
      f-3     :     0.000000
      g0      :     0.000013  g :     0.000030
      g+1     :     0.000007
      g-1     :     0.000007
      g+2     :     0.000001
      g-2     :     0.000001
      g+3     :     0.000000
      g-3     :     0.000000
      g+4     :     0.000000
      g-4     :     0.000000
  1 Ags       :     2.948697  s :     2.948697
      pz      :     2.026876  p :     6.039470
      px      :     2.006297
      py      :     2.006297
      dz2     :     1.978394  d :     9.968012
      dxz     :     1.994768
      dyz     :     1.994768
      dx2y2   :     2.000041
      dxy     :     2.000041
      f0      :     0.000482  f :     0.001006
      f+1     :     0.000236
      f-1     :     0.000236
      f+2     :     0.000027
      f-2     :     0.000027
      f+3     :     0.000000
      f-3     :     0.000000
      g0      :     0.000006  g :     0.000014
      g+1     :     0.000003
      g-1     :     0.000003
      g+2     :     0.000000
      g-2     :     0.000000
      g+3     :     0.000000
      g-3     :     0.000000
      g+4     :     0.000000
      g-4     :     0.000000
  2 Ags       :     2.948690  s :     2.948690
      pz      :     2.026873  p :     6.039468
      px      :     2.006297
      py      :     2.006297
      dz2     :     1.978394  d :     9.968012
      dxz     :     1.994768
      dyz     :     1.994768
      dx2y2   :     2.000041
      dxy     :     2.000041
      f0      :     0.000482  f :     0.001006
      f+1     :     0.000236
      f-1     :     0.000236
      f+2     :     0.000027
      f-2     :     0.000027
      f+3     :     0.000000
      f-3     :     0.000000
      g0      :     0.000006  g :     0.000014
      g+1     :     0.000003
      g-1     :     0.000003
      g+2     :     0.000000
      g-2     :     0.000000
      g+3     :     0.000000
      g-3     :     0.000000
      g+4     :     0.000000
      g-4     :     0.000000

SPIN
  0 Ags       :    -0.096476  s :    -0.096476
      pz      :     0.109831  p :     0.109373
      px      :    -0.000229
      py      :    -0.000229
      dz2     :     0.001409  d :     0.000522
      dxz     :    -0.000434
      dyz     :    -0.000434
      dx2y2   :    -0.000009
      dxy     :    -0.000009
      f0      :     0.000014  f :    -0.000018
      f+1     :    -0.000016
      f-1     :    -0.000016
      f+2     :    -0.000001
      f-2     :    -0.000001
      f+3     :    -0.000000
      f-3     :    -0.000000
      g0      :    -0.000000  g :    -0.000001
      g+1     :    -0.000000
      g-1     :    -0.000000
      g+2     :    -0.000000
      g-2     :    -0.000000
      g+3     :    -0.000000
      g-3     :    -0.000000
      g+4     :    -0.000000
      g-4     :    -0.000000
  1 Ags       :     0.502615  s :     0.502615
      pz      :    -0.009560  p :    -0.008842
      px      :     0.000359
      py      :     0.000359
      dz2     :    -0.000424  d :    -0.000424
      dxz     :    -0.000008
      dyz     :    -0.000008
      dx2y2   :     0.000008
      dxy     :     0.000008
      f0      :    -0.000019  f :    -0.000049
      f+1     :    -0.000012
      f-1     :    -0.000012
      f+2     :    -0.000003
      f-2     :    -0.000003
      f+3     :    -0.000000
      f-3     :    -0.000000
      g0      :    -0.000000  g :    -0.000001
      g+1     :    -0.000000
      g-1     :    -0.000000
      g+2     :    -0.000000
      g-2     :    -0.000000
      g+3     :    -0.000000
      g-3     :    -0.000000
      g+4     :     0.000000
      g-4     :    -0.000000
  2 Ags       :     0.502615  s :     0.502615
      pz      :    -0.009560  p :    -0.008842
      px      :     0.000359
      py      :     0.000359
      dz2     :    -0.000424  d :    -0.000424
      dxz     :    -0.000008
      dyz     :    -0.000008
      dx2y2   :     0.000008
      dxy     :     0.000008
      f0      :    -0.000019  f :    -0.000049
      f+1     :    -0.000012
      f-1     :    -0.000012
      f+2     :    -0.000003
      f-2     :    -0.000003
      f+3     :    -0.000000
      f-3     :    -0.000000
      g0      :    -0.000000  g :    -0.000001
      g+1     :    -0.000000
      g-1     :    -0.000000
      g+2     :    -0.000000
      g-2     :    -0.000000
      g+3     :    -0.000000
      g-3     :    -0.000000
      g+4     :     0.000000
      g-4     :    -0.000000


                     *******************************
                     * LOEWDIN POPULATION ANALYSIS *
                     *******************************

-------------------------------------------
LOEWDIN ATOMIC CHARGES AND SPIN POPULATIONS
-------------------------------------------
   0 Ag:   -0.177503    0.292751
   1 Ag:    0.088751    0.353625
   2 Ag:    0.088752    0.353625

----------------------------------------------------
LOEWDIN REDUCED ORBITAL CHARGES AND SPIN POPULATIONS
----------------------------------------------------
CHARGE
  0 Ags       :     2.826605  s :     2.826605
      pz      :     2.366029  p :     6.394214
      px      :     2.014093
      py      :     2.014093
      dz2     :     1.991092  d :     9.953547
      dxz     :     1.981399
      dyz     :     1.981399
      dx2y2   :     1.999829
      dxy     :     1.999829
      f0      :     0.001707  f :     0.003099
      f+1     :     0.000647
      f-1     :     0.000647
      f+2     :     0.000049
      f-2     :     0.000049
      f+3     :     0.000000
      f-3     :     0.000000
      g0      :     0.000016  g :     0.000038
      g+1     :     0.000009
      g-1     :     0.000009
      g+2     :     0.000001
      g-2     :     0.000001
      g+3     :     0.000000
      g-3     :     0.000000
      g+4     :     0.000000
      g-4     :     0.000000
  1 Ags       :     2.818998  s :     2.818998
      pz      :     2.095656  p :     6.113937
      px      :     2.009140
      py      :     2.009140
      dz2     :     1.991901  d :     9.976740
      dxz     :     1.992394
      dyz     :     1.992394
      dx2y2   :     2.000025
      dxy     :     2.000025
      f0      :     0.000711  f :     0.001554
      f+1     :     0.000387
      f-1     :     0.000387
      f+2     :     0.000035
      f-2     :     0.000035
      f+3     :     0.000000
      f-3     :     0.000000
      g0      :     0.000008  g :     0.000019
      g+1     :     0.000005
      g-1     :     0.000005
      g+2     :     0.000001
      g-2     :     0.000001
      g+3     :     0.000000
      g-3     :     0.000000
      g+4     :     0.000000
      g-4     :     0.000000
  2 Ags       :     2.818998  s :     2.818998
      pz      :     2.095656  p :     6.113937
      px      :     2.009140
      py      :     2.009140
      dz2     :     1.991901  d :     9.976740
      dxz     :     1.992394
      dyz     :     1.992394
      dx2y2   :     2.000025
      dxy     :     2.000025
      f0      :     0.000711  f :     0.001554
      f+1     :     0.000387
      f-1     :     0.000387
      f+2     :     0.000035
      f-2     :     0.000035
      f+3     :     0.000000
      f-3     :     0.000000
      g0      :     0.000008  g :     0.000019
      g+1     :     0.000005
      g-1     :     0.000005
      g+2     :     0.000001
      g-2     :     0.000001
      g+3     :     0.000000
      g-3     :     0.000000
      g+4     :     0.000000
      g-4     :     0.000000

SPIN
  0 Ags       :    -0.045359  s :    -0.045359
      pz      :     0.336964  p :     0.336433
      px      :    -0.000266
      py      :    -0.000266
      dz2     :     0.003078  d :     0.001484
      dxz     :    -0.000793
      dyz     :    -0.000793
      dx2y2   :    -0.000004
      dxy     :    -0.000004
      f0      :     0.000223  f :     0.000194
      f+1     :    -0.000014
      f-1     :    -0.000014
      f+2     :    -0.000000
      f-2     :    -0.000000
      f+3     :    -0.000000
      f-3     :    -0.000000
      g0      :    -0.000000  g :    -0.000001
      g+1     :    -0.000000
      g-1     :    -0.000000
      g+2     :    -0.000000
      g-2     :    -0.000000
      g+3     :    -0.000000
      g-3     :    -0.000000
      g+4     :    -0.000000
      g-4     :    -0.000000
  1 Ags       :     0.365490  s :     0.365490
      pz      :    -0.012616  p :    -0.011761
      px      :     0.000428
      py      :     0.000428
      dz2     :    -0.000301  d :    -0.000054
      dxz     :     0.000118
      dyz     :     0.000118
      dx2y2   :     0.000005
      dxy     :     0.000005
      f0      :    -0.000026  f :    -0.000050
      f+1     :    -0.000009
      f-1     :    -0.000009
      f+2     :    -0.000003
      f-2     :    -0.000003
      f+3     :    -0.000000
      f-3     :    -0.000000
      g0      :    -0.000000  g :    -0.000000
      g+1     :    -0.000000
      g-1     :    -0.000000
      g+2     :    -0.000000
      g-2     :    -0.000000
      g+3     :    -0.000000
      g-3     :    -0.000000
      g+4     :     0.000000
      g-4     :    -0.000000
  2 Ags       :     0.365490  s :     0.365490
      pz      :    -0.012616  p :    -0.011761
      px      :     0.000428
      py      :     0.000428
      dz2     :    -0.000301  d :    -0.000054
      dxz     :     0.000118
      dyz     :     0.000118
      dx2y2   :     0.000005
      dxy     :     0.000005
      f0      :    -0.000026  f :    -0.000050
      f+1     :    -0.000009
      f-1     :    -0.000009
      f+2     :    -0.000003
      f-2     :    -0.000003
      f+3     :    -0.000000
      f-3     :    -0.000000
      g0      :    -0.000000  g :    -0.000000
      g+1     :    -0.000000
      g-1     :    -0.000000
      g+2     :    -0.000000
      g-2     :    -0.000000
      g+3     :    -0.000000
      g-3     :    -0.000000
      g+4     :     0.000000
      g-4     :    -0.000000


                      *****************************
                      * MAYER POPULATION ANALYSIS *
                      *****************************

  NA   - Mulliken gross atomic population
  ZA   - Total nuclear charge
  QA   - Mulliken gross atomic charge
  VA   - Mayer's total valence
  BVA  - Mayer's bonded valence
  FA   - Mayer's free valence

  ATOM       NA         ZA         QA         VA         BVA        FA
  0 Ag    19.0856    19.0000    -0.0856     1.3299     1.3092     0.0207
  1 Ag    18.9572    19.0000     0.0428     1.0931     0.8400     0.2532
  2 Ag    18.9572    19.0000     0.0428     1.0931     0.8400     0.2532

  Mayer bond orders larger than 0.100000
B(  0-Ag,  1-Ag) :   0.6546 B(  0-Ag,  2-Ag) :   0.6546 B(  1-Ag,  2-Ag) :   0.1854 


-------
TIMINGS
-------

Total SCF time: 0 days 0 hours 0 min 6 sec 

Total time                  ....       6.309 sec
Sum of individual times     ....       6.065 sec  ( 96.1%)

Fock matrix formation       ....       3.971 sec  ( 62.9%)
  XC integration            ....       0.694 sec  ( 17.5% of F)
    Basis function eval.    ....       0.039 sec  (  5.7% of XC)
    Density eval.           ....       0.092 sec  ( 13.3% of XC)
    XC-Functional eval.     ....       0.108 sec  ( 15.5% of XC)
    XC-Potential eval.      ....       0.209 sec  ( 30.2% of XC)
Diagonalization             ....       0.084 sec  (  1.3%)
Density matrix formation    ....       0.016 sec  (  0.2%)
Population analysis         ....       0.012 sec  (  0.2%)
Initial guess               ....       1.549 sec  ( 24.6%)
Orbital Transformation      ....       0.000 sec  (  0.0%)
Orbital Orthonormalization  ....       0.000 sec  (  0.0%)
DIIS solution               ....       0.028 sec  (  0.4%)
Grid generation             ....       0.406 sec  (  6.4%)


-------------------------------------------------------------------------------
                          DFT DISPERSION CORRECTION                            
                                                                               
                              DFTD3 V3.1  Rev 1                                
                              USING zero damping                               
-------------------------------------------------------------------------------
The M06 functional is recognized
Active option DFTDOPT                   ...         3   

molecular C6(AA) [au] = 2437.942597 


            DFT-D V3
 parameters
 s6 scaling factor         :     1.0000 
 rs6 scaling factor        :     1.3250 
 s8 scaling factor         :     0.0000 
 rs8 scaling factor        :     1.0000 
 Damping factor alpha6     :    14.0000 
 Damping factor alpha8     :    16.0000 
 ad hoc parameters k1-k3   :    16.0000     1.3333    -4.0000 

 Edisp/kcal,au: -0.120829357684  -0.000192553818 
 E6   /kcal   :  -0.120829358 
 E8   /kcal   :  -0.000000000 
 % E8         :   0.000000000 

-------------------------   ----------------
Dispersion correction           -0.000192554
-------------------------   ----------------


-------------------------   --------------------
FINAL SINGLE POINT ENERGY      -441.134353178006
-------------------------   --------------------


                            ***************************************
                            *     ORCA property calculations      *
                            ***************************************

                                    ---------------------
                                    Active property flags
                                    ---------------------
   (+) Dipole Moment


------------------------------------------------------------------------------
                       ORCA ELECTRIC PROPERTIES CALCULATION
------------------------------------------------------------------------------

Dipole Moment Calculation                       ... on
Quadrupole Moment Calculation                   ... off
Polarizability Calculation                      ... off
GBWName                                         ... Ag03N0_LIN.gbw
Electron density file                           ... Ag03N0_LIN.scfp
The origin for moment calculation is the CENTER OF MASS  = ( 0.000000,  0.000000  0.000000)

-------------
DIPOLE MOMENT
-------------
                                X             Y             Z
Electronic contribution:     -0.00000       0.00000      -0.00000
Nuclear contribution   :      0.00000       0.00000       0.00000
                        -----------------------------------------
Total Dipole Moment    :     -0.00000       0.00000      -0.00000
                        -----------------------------------------
Magnitude (a.u.)       :      0.00000
Magnitude (Debye)      :      0.00001



--------------------
Rotational spectrum 
--------------------
 
Rotational constants in cm-1:     0.000000     0.011626     0.011626 
Rotational constants in MHz :     0.000000   348.528806   348.528806 

 Dipole components along the rotational axes: 
x,y,z [a.u.] :    -0.000001     0.000002    -0.000003 
x,y,z [Debye]:    -0.000002     0.000005    -0.000008 

 

Timings for individual modules:

Sum of individual times         ...        7.864 sec (=   0.131 min)
GTO integral calculation        ...        1.128 sec (=   0.019 min)  14.3 %
SCF iterations                  ...        6.735 sec (=   0.112 min)  85.7 %
                             ****ORCA TERMINATED NORMALLY****
TOTAL RUN TIME: 0 days 0 hours 0 minutes 8 seconds 475 msec
