
                                 *****************
                                 * O   R   C   A *
                                 *****************

           --- An Ab Initio, DFT and Semiempirical electronic structure package ---

                  #######################################################
                  #                        -***-                        #
                  #          Department of theory and spectroscopy      #
                  #               Directorship: Frank Neese             #
                  #        Max Planck Institute fuer Kohlenforschung    #
                  #                Kaiser Wilhelm Platz 1               #
                  #                 D-45470 Muelheim/Ruhr               #
                  #                      Germany                        #
                  #                                                     #
                  #                  All rights reserved                #
                  #                        -***-                        #
                  #######################################################


                         Program Version 4.2.0 -  RELEASE  -


 With contributions from (in alphabetic order):
   Daniel Aravena         : Magnetic Suceptibility
   Michael Atanasov       : Ab Initio Ligand Field Theory (pilot matlab implementation)
   Alexander A. Auer      : GIAO ZORA, VPT2
   Ute Becker             : Parallelization
   Giovanni Bistoni       : ED, misc. LED, open-shell LED, HFLED
   Martin Brehm           : Molecular dynamics
   Dmytro Bykov           : SCF Hessian
   Vijay G. Chilkuri      : MRCI spin determinant printing, contributions to CSF-ICE
   Dipayan Datta          : RHF DLPNO-CCSD density
   Achintya Kumar Dutta   : EOM-CC, STEOM-CC
   Dmitry Ganyushin       : Spin-Orbit,Spin-Spin,Magnetic field MRCI
   Miquel Garcia          : C-PCM Hessian, Gaussian charge scheme
   Yang Guo               : DLPNO-NEVPT2, CIM, IAO-localization
   Andreas Hansen         : Spin unrestricted coupled pair/coupled cluster methods
   Benjamin Helmich-Paris : CASSCF linear response (MC-RPA)
   Lee Huntington         : MR-EOM, pCC
   Robert Izsak           : Overlap fitted RIJCOSX, COSX-SCS-MP3, EOM
   Christian Kollmar      : KDIIS, OOCD, Brueckner-CCSD(T), CCSD density
   Simone Kossmann        : Meta GGA functionals, TD-DFT gradient, OOMP2, MP2 Hessian
   Martin Krupicka        : AUTO-CI
   Lucas Lang             : DCDCAS
   Dagmar Lenk            : GEPOL surface, SMD
   Dimitrios Liakos       : Extrapolation schemes; Compound Job, initial MDCI parallelization
   Dimitrios Manganas     : Further ROCIS development; embedding schemes
   Dimitrios Pantazis     : SARC Basis sets
   Taras Petrenko         : DFT Hessian,TD-DFT gradient, ASA, ECA, R-Raman, ABS, FL, XAS/XES, NRVS
   Peter Pinski           : DLPNO-MP2, DLPNO-MP2 Gradient
   Christoph Reimann      : Effective Core Potentials
   Marius Retegan         : Local ZFS, SOC
   Christoph Riplinger    : Optimizer, TS searches, QM/MM, DLPNO-CCSD(T), (RO)-DLPNO pert. Triples
   Tobias Risthaus        : Range-separated hybrids, TD-DFT gradient, RPA, STAB
   Michael Roemelt        : Original ROCIS implementation
   Masaaki Saitow         : Open-shell DLPNO-CCSD energy and density
   Barbara Sandhoefer     : DKH picture change effects
   Avijit Sen             : IP-ROCIS
   Kantharuban Sivalingam : CASSCF convergence, NEVPT2, FIC-MRCI
   Bernardo de Souza      : ESD, SOC TD-DFT
   Georgi Stoychev        : AutoAux, RI-MP2 NMR
   Willem Van den Heuvel  : Paramagnetic NMR
   Boris Wezisla          : Elementary symmetry handling
   Frank Wennmohs         : Technical directorship


 We gratefully acknowledge several colleagues who have allowed us to
 interface, adapt or use parts of their codes:
   Stefan Grimme, W. Hujo, H. Kruse,             : VdW corrections, initial TS optimization,
                  C. Bannwarth                     DFT functionals, gCP, sTDA/sTD-DF
   Ed Valeev, F. Pavosevic, A. Kumar             : LibInt (2-el integral package), F12 methods
   Garnet Chan, S. Sharma, J. Yang, R. Olivares  : DMRG
   Ulf Ekstrom                                   : XCFun DFT Library
   Mihaly Kallay                                 : mrcc  (arbitrary order and MRCC methods)
   Andreas Klamt, Michael Diedenhofen            : otool_cosmo (COSMO solvation model)
   Jiri Pittner, Ondrej Demel                    : Mk-CCSD
   Frank Weinhold                                : gennbo (NPA and NBO analysis)
   Christopher J. Cramer and Donald G. Truhlar   : smd solvation model
   Lars Goerigk                                  : TD-DFT with DH, B97 family of functionals
   V. Asgeirsson, H. Jonsson                     : NEB implementation
   FAccTs GmbH                                   : IRC, NEB, NEB-TS, Multilevel, MM, QM/MM, CI optimization
   S Lehtola, MJT Oliveira, MAL Marques          : LibXC Library


 Your calculation uses the libint2 library for the computation of 2-el integrals
 For citations please refer to: http://libint.valeyev.net

 Your ORCA version has been built with support for libXC version: 4.2.3
 For citations please refer to: https://tddft.org/programs/libxc/

 This ORCA versions uses:
   CBLAS   interface :  Fast vector & matrix operations
   LAPACKE interface :  Fast linear algebra routines
   SCALAPACK package :  Parallel linear algebra routines


Your calculation utilizes the atom-pairwise dispersion correction
with the zero-damping scheme (D30)
Cite in your paper:
S.Grimme, J.Antony, S.Ehrlich and H.Krieg, J.Chem.Phys., 132, (2010), 154104 
   

XCFun DFT library Copyright 2009-2010 Ulf Ekstrom and contributors.
See http://admol.org/xcfun for more information. This is free soft-
ware; see the source code for copying conditions. There is ABSOLUTELY
NO WARRANTY; not even for MERCHANTABILITY or FITNESS FOR A PARTICULAR
PURPOSE. For details see the documentation. Scientific users of this 
library should cite U. Ekstrom, L. Visscher, R. Bast, A. J. Thorvald-
sen and K. Ruud; J.Chem.Theor.Comp. 2010, DOI: 10.1021/ct100117s
XCFun Version 0.99 
----- Orbital basis set information -----
Your calculation utilizes the basis: def2-TZVPPD
   F. Weigend and R. Ahlrichs, Phys. Chem. Chem. Phys. 7, 3297 (2005).
   D. Rappoport and F. Furche, J. Chem. Phys. 133 134105 (2010).

----- AuxJK basis set information -----
Your calculation utilizes the auxiliary basis: def2/JK
   H-Ba, Hf-Rn: F. Weigend, J. Comput. Chem. 29, 167 (2008).

cite the ECPs for Ag [Def2-ECP] as follows:
Ce-Yb(ecp-28): M. Dolg, H. Stoll, H.Preuss, J. Chem. Phys., 1989, 90, 1730-1734.
Y-Cd(ecp-28), Hf-Hg(ecp-46): D. Andrae,U. Haeussermann, M. Dolg, H. Stoll, H. Preuss, Theor. Chim. Acta, 1990, 77, 123-141.
In-Sb(ecp-28), Tl-Bi(ecp-46): B. Metz, H. Stoll, M. Dolg, J. Chem. Phys., 2000, 113, 2563-2569.
Te-Xe(ecp-28), Po-Rn(ecp-46): K. A. Peterson, D. Figgen, E. Goll, H. Stoll, M. Dolg, J. Chem. Phys., 2003, 119, 11113-11123.
Rb(ecp-28), Cs(ecp-46): T. Leininger, A. Nicklass, W. Kuechle, H. Stoll, M. Dolg, A. Bergner, Chem. Phys. Lett., 1996, 255, 274-280.
Sr(ecp-28), Ba(ecp-46): M. Kaupp, P. V. Schleyer, H. Stoll and H. Preuss, J. Chem. Phys., 1991, 94, 1360-1366.
La(ecp-46): M. Dolg, H. Stoll, A. Savin, H. Preuss, Theor. Chim. Acta, 1989, 75, 173-194.
Lu(ecp-28): X. Cao, M. Dolg, J. Chem. Phys., 2001, 115, 7348-7355.

ECP parameters for Ag [Def2-ECP] have been obtained from:
TURBOMOLE (7.0.2)

================================================================================
                                        WARNINGS
                       Please study these warnings very carefully!
================================================================================


WARNING: Minnesota functionals are quite sensitive to the integration grid.
         see SE Wheeler, KN Houk, JCTC 2010, 6, 395,
             N Mardirossian, M Head-Gordon, JCTC 2016, 12, 4303.
         Grid6 seems to be a minimum grid for reliable results with these functionals!
  ===> : Please increase the integration grid!


INFO   : the flag for use of LIBINT has been found!

================================================================================
                                       INPUT FILE
================================================================================
NAME = Ag03C1_D3H.in
|  1> #
|  2> # Ag03C1_D3H M06-D3BJ/Def2-TZVPPD
|  3> #
|  4> ! m06 d3zero def2-tzvppd def2/jk grid4 nofinalgrid
|  5> 
|  6> *xyz 1 1
|  7> Ag       0.000000    1.529877    0.000000 
|  8> Ag       1.324912   -0.764938    0.000000 
|  9> Ag      -1.324912   -0.764938    0.000000 
| 10> *
| 11> 
| 12> %maxcore 5000
| 13> 
| 14> %pal
| 15> nprocs = 24
| 16> end
| 17> 
| 18> 
| 19>                          ****END OF INPUT****
================================================================================

                       ****************************
                       * Single Point Calculation *
                       ****************************

---------------------------------
CARTESIAN COORDINATES (ANGSTROEM)
---------------------------------
  Ag     0.000000    1.529877    0.000000
  Ag     1.324912   -0.764938    0.000000
  Ag    -1.324912   -0.764938    0.000000

----------------------------
CARTESIAN COORDINATES (A.U.)
----------------------------
  NO LB      ZA    FRAG     MASS         X           Y           Z
   0 Ag   19.0000*   0   107.870    0.000000    2.891049    0.000000
   1 Ag   19.0000*   0   107.870    2.503721   -1.445523    0.000000
   2 Ag   19.0000*   0   107.870   -2.503721   -1.445523    0.000000
* core charge reduced due to ECP

--------------------------------
INTERNAL COORDINATES (ANGSTROEM)
--------------------------------
 Ag     0   0   0     0.000000000000     0.00000000     0.00000000
 Ag     1   0   0     2.649824086986     0.00000000     0.00000000
 Ag     2   1   0     2.649824000000    60.00000109     0.00000000

---------------------------
INTERNAL COORDINATES (A.U.)
---------------------------
 Ag     0   0   0     0.000000000000     0.00000000     0.00000000
 Ag     1   0   0     5.007441827471     0.00000000     0.00000000
 Ag     2   1   0     5.007441663092    60.00000109     0.00000000

---------------------
BASIS SET INFORMATION
---------------------
There are 1 groups of distinct atoms

 Group   1 Type Ag  : 7s7p6d2f1g contracted to 6s4p3d2f1g pattern {211111/4111/411/11/1}

Atom   0Ag   basis set group =>   1
Atom   1Ag   basis set group =>   1
Atom   2Ag   basis set group =>   1
----------------------------------
AUXILIARY/JK BASIS SET INFORMATION
----------------------------------
There are 1 groups of distinct atoms

 Group   1 Type Ag  : 13s12p10d9f6g3h2i contracted to 11s10p9d8f6g3h2i pattern {31111111111/3111111111/211111111/21111111/111111/111/11}

Atom   0Ag   basis set group =>   1
Atom   1Ag   basis set group =>   1
Atom   2Ag   basis set group =>   1
-------------------------
ECP PARAMETER INFORMATION
-------------------------

 Group 1, Type Ag ECP Def2-ECP (replacing 28 core electrons, lmax=3)

Atom   0Ag   ECP group =>   1
Atom   1Ag   ECP group =>   1
Atom   2Ag   ECP group =>   1



           ************************************************************
           *        Program running with 24 parallel MPI-processes    *
           *              working on a common directory               *
           ************************************************************
------------------------------------------------------------------------------
                           ORCA GTO INTEGRAL CALCULATION
------------------------------------------------------------------------------

                         BASIS SET STATISTICS AND STARTUP INFO

 # of primitive gaussian shells          ...   69
 # of primitive gaussian functions       ...  243
 # of contracted shells                  ...   48
 # of contracted basis functions         ...  168
 Highest angular momentum                ...    4
 Maximum contraction depth               ...    4
 Integral package used                   ... LIBINT
 Integral threshhold            Thresh   ...  1.000e-10
 Primitive cut-off              TCut     ...  1.000e-11


------------------------------ INTEGRAL EVALUATION ----------------------------


 * One electron integrals 

   ECP integrals                         ... done
 Pre-screening matrix                    ... done
 Shell pair data                         ... done (   0.000 sec)



           ************************************************************
           *        Program running with 24 parallel MPI-processes    *
           *              working on a common directory               *
           ************************************************************
-------------------------------------------------------------------------------
                                 ORCA SCF
-------------------------------------------------------------------------------

------------
SCF SETTINGS
------------
Hamiltonian:
 Density Functional     Method          .... DFT(GTOs)
 Exchange Functional    Exchange        .... M06
 Correlation Functional Correlation     .... M06
 Gradients option       PostSCFGGA      .... off
 Hybrid DFT is turned on
   Fraction HF Exchange ScalHFX         ....  0.270000
   Scaling of DF-GGA-X  ScalDFX         ....  0.730000
   Scaling of DF-GGA-C  ScalDFC         ....  1.000000
   Scaling of DF-LDA-C  ScalLDAC        ....  1.000000
   Perturbative correction              ....  0.000000
   Density functional embedding theory  .... OFF


General Settings:
 Integral files         IntName         .... Ag03C1_D3H
 Hartree-Fock type      HFTyp           .... RHF
 Total Charge           Charge          ....    1
 Multiplicity           Mult            ....    1
 Number of Electrons    NEL             ....   56
 Basis Dimension        Dim             ....  168
 Nuclear Repulsion      ENuc            ....    216.2781015067 Eh

Convergence Acceleration:
 DIIS                   CNVDIIS         .... on
   Start iteration      DIISMaxIt       ....    12
   Startup error        DIISStart       ....  0.200000
   # of expansion vecs  DIISMaxEq       ....     5
   Bias factor          DIISBfac        ....   1.050
   Max. coefficient     DIISMaxC        ....  10.000
 Newton-Raphson         CNVNR           .... off
 SOSCF                  CNVSOSCF        .... off
 Level Shifting         CNVShift        .... on
   Level shift para.    LevelShift      ....    0.2500
   Turn off err/grad.   ShiftErr        ....    0.0010
 Zerner damping         CNVZerner       .... off
 Static damping         CNVDamp         .... on
   Fraction old density DampFac         ....    0.7000
   Max. Damping (<1)    DampMax         ....    0.9800
   Min. Damping (>=0)   DampMin         ....    0.0000
   Turn off err/grad.   DampErr         ....    0.1000
 Fernandez-Rico         CNVRico         .... off

SCF Procedure:
 Maximum # iterations   MaxIter         ....   125
 SCF integral mode      SCFMode         .... Direct
   Integral package                     .... LIBINT
 Reset frequency        DirectResetFreq ....    20
 Integral Threshold     Thresh          ....  1.000e-10 Eh
 Primitive CutOff       TCut            ....  1.000e-11 Eh

Convergence Tolerance:
 Convergence Check Mode ConvCheckMode   .... Total+1el-Energy
 Convergence forced     ConvForced      .... 0
 Energy Change          TolE            ....  1.000e-06 Eh
 1-El. energy change                    ....  1.000e-03 Eh
 DIIS Error             TolErr          ....  1.000e-06


Diagonalization of the overlap matrix:
Smallest eigenvalue                        ... 2.894e-03
Time for diagonalization                   ...    0.007 sec
Threshold for overlap eigenvalues          ... 1.000e-08
Number of eigenvalues below threshold      ... 0
Time for construction of square roots      ...    0.003 sec
Total time needed                          ...    0.011 sec

-------------------
DFT GRID GENERATION
-------------------

General Integration Accuracy     IntAcc      ...  4.670
Radial Grid Type                 RadialGrid  ... Gauss-Chebyshev
Angular Grid (max. acc.)         AngularGrid ... Lebedev-302
Angular grid pruning method      GridPruning ... 3 (G Style)
Weight generation scheme         WeightScheme... Becke
Basis function cutoff            BFCut       ...    1.0000e-10
Integration weight cutoff        WCut        ...    1.0000e-14
Grids for H and He will be reduced by one unit

# of grid points (after initial pruning)     ...  31974 (   0.0 sec)
# of grid points (after weights+screening)   ...  31838 (   0.0 sec)
nearest neighbour list constructed           ...    0.0 sec
Grid point re-assignment to atoms done       ...    0.0 sec
Grid point division into batches done        ...    0.3 sec
Reduced shell lists constructed in    0.3 sec

Total number of grid points                  ...    31838
Total number of batches                      ...      500
Average number of points per batch           ...       63
Average number of grid points per atom       ...    10613
Average number of shells per batch           ...     4.27 ( 8.90%)
Average number of basis functions per batch  ...     9.18 ( 5.47%)
Average number of large shells per batch     ...     2.82 (65.96%)
Average number of large basis fcns per batch ...     5.91 (64.36%)
Maximum spatial batch extension              ...  27.01, 22.64, 31.14 au
Average spatial batch extension              ...   0.75,  0.63,  0.73 au

Time for grid setup =    0.343 sec

------------------------------
INITIAL GUESS: MODEL POTENTIAL
------------------------------
Loading Hartree-Fock densities                     ... done
  calling /sw/apps/orca/orca_4_2_0_linux_x86-64_openmpi314/orca Ag03C1_D3H_atom47.inp > Ag03C1_D3H_atom47.out in order to generate an atomic fitting density for atom 0 (Ag with ECP) on-the-fly... 
    atom 0 (Ag), assumed electronic state with S=2: 1s2 2s2 2p6 3s2 3p6 4s2 3d10 4p6 5s2 4d9           ... done
Calculating cut-offs                               ... done
Setting up the integral package                    ... done
Initializing the effective Hamiltonian             ... done
Starting the Coulomb interaction                   ... done (   0.0 sec)
Reading the grid                                   ... done
Mapping shells                                     ... done
Starting the XC term evaluation                    ... done (   0.0 sec)
  promolecular density results
     # of electrons  =    141.001593444
     EX              =   -430.311888345
     EC              =     -7.473148661
     EX+EC           =   -437.785037007
Transforming the Hamiltonian                       ... done (   0.0 sec)
Diagonalizing the Hamiltonian                      ... done (   0.0 sec)
Back transforming the eigenvectors                 ... done (   0.0 sec)
Now organizing SCF variables                       ... done
                      ------------------
                      INITIAL GUESS DONE (   1.6 sec)
                      ------------------
--------------
SCF ITERATIONS
--------------
ITER       Energy         Delta-E        Max-DP      RMS-DP      [F,P]     Damp
               ***  Starting incremental Fock matrix formation  ***
  0   -440.6840269473   0.000000000000 0.10751979  0.00225727  0.5041129 0.7000
  1   -440.7955154769  -0.111488529522 0.05743122  0.00119481  0.3313115 0.7000
  2   -440.8353590978  -0.039843620979 0.02733356  0.00048735  0.2203547 0.7000
                               ***Turning on DIIS***
  3   -440.8606534561  -0.025294358242 0.01525285  0.00027103  0.1512455 0.7000
  4   -440.8790191578  -0.018365701722 0.01018898  0.00021528  0.1058694 0.7000
  5   -440.8919791008  -0.012959943037 0.02816593  0.00057462  0.0747135 0.0000
  6   -440.9222404529  -0.030261352047 0.00207901  0.00005051  0.0005641 0.0000
  7   -440.9222465378  -0.000006084914 0.00046822  0.00001632  0.0007059 0.0000
  8   -440.9222483274  -0.000001789569 0.00020924  0.00000573  0.0002694 0.0000
  9   -440.9222486970  -0.000000369598 0.00003218  0.00000100  0.0000228 0.0000
                 **** Energy Check signals convergence ****

               *****************************************************
               *                     SUCCESS                       *
               *           SCF CONVERGED AFTER  10 CYCLES          *
               *****************************************************


----------------
TOTAL SCF ENERGY
----------------

Total Energy       :         -440.92224870 Eh          -11998.10436 eV

Components:
Nuclear Repulsion  :          216.27810151 Eh            5885.22634 eV
Electronic Energy  :         -657.20035021 Eh          -17883.33070 eV
One Electron Energy:        -1204.64828132 Eh          -32780.14625 eV
Two Electron Energy:          547.44793111 Eh           14896.81554 eV

Virial components:
Potential Energy   :         -609.90811716 Eh          -16596.44361 eV
Kinetic Energy     :          168.98586845 Eh            4598.33926 eV
Virial Ratio       :            3.60922557


DFT components:
N(Alpha)           :       27.999983410538 electrons
N(Beta)            :       27.999983410538 electrons
N(Total)           :       55.999966821075 electrons
E(XC)              :      -31.724403149033 Eh       
DFET-embed. en.    :        0.000000000000 Eh       

---------------
SCF CONVERGENCE
---------------

  Last Energy change         ...   -5.4486e-09  Tolerance :   1.0000e-06
  Last MAX-Density change    ...    6.7622e-06  Tolerance :   1.0000e-05
  Last RMS-Density change    ...    2.6508e-07  Tolerance :   1.0000e-06
  Last DIIS Error            ...    1.7617e-05  Tolerance :   1.0000e-06

             **** THE GBW FILE WAS UPDATED (Ag03C1_D3H.gbw) ****
             **** DENSITY FILE WAS UPDATED (Ag03C1_D3H.scfp) ****
             **** ENERGY FILE WAS UPDATED (Ag03C1_D3H.en.tmp) ****
             **** THE GBW FILE WAS UPDATED (Ag03C1_D3H.gbw) ****
             **** DENSITY FILE WAS UPDATED (Ag03C1_D3H.scfp) ****
----------------
ORBITAL ENERGIES
----------------

  NO   OCC          E(Eh)            E(eV) 
   0   2.0000      -3.921408      -106.7069 
   1   2.0000      -3.920874      -106.6924 
   2   2.0000      -3.920869      -106.6923 
   3   2.0000      -2.532724       -68.9189 
   4   2.0000      -2.530678       -68.8632 
   5   2.0000      -2.530671       -68.8631 
   6   2.0000      -2.527839       -68.7860 
   7   2.0000      -2.527261       -68.7703 
   8   2.0000      -2.526863       -68.7594 
   9   2.0000      -2.526856       -68.7593 
  10   2.0000      -2.526715       -68.7554 
  11   2.0000      -2.526710       -68.7553 
  12   2.0000      -0.589113       -16.0306 
  13   2.0000      -0.573707       -15.6114 
  14   2.0000      -0.573700       -15.6112 
  15   2.0000      -0.568439       -15.4680 
  16   2.0000      -0.555428       -15.1140 
  17   2.0000      -0.552224       -15.0268 
  18   2.0000      -0.552204       -15.0262 
  19   2.0000      -0.533203       -14.5092 
  20   2.0000      -0.533203       -14.5092 
  21   2.0000      -0.529709       -14.4141 
  22   2.0000      -0.526768       -14.3341 
  23   2.0000      -0.526740       -14.3333 
  24   2.0000      -0.526130       -14.3167 
  25   2.0000      -0.526105       -14.3160 
  26   2.0000      -0.508694       -13.8423 
  27   2.0000      -0.437239       -11.8979 
  28   0.0000      -0.265062        -7.2127 
  29   0.0000      -0.265056        -7.2125 
  30   0.0000      -0.203283        -5.5316 
  31   0.0000      -0.167285        -4.5521 
  32   0.0000      -0.157906        -4.2969 
  33   0.0000      -0.157902        -4.2967 
  34   0.0000      -0.122379        -3.3301 
  35   0.0000      -0.122379        -3.3301 
  36   0.0000      -0.087708        -2.3867 
  37   0.0000      -0.087706        -2.3866 
  38   0.0000      -0.070450        -1.9170 
  39   0.0000      -0.058478        -1.5913 
  40   0.0000      -0.022908        -0.6234 
  41   0.0000      -0.011311        -0.3078 
  42   0.0000      -0.010633        -0.2893 
  43   0.0000      -0.010630        -0.2892 
  44   0.0000       0.001494         0.0406 
  45   0.0000       0.001497         0.0407 
  46   0.0000       0.039394         1.0720 
  47   0.0000       0.039398         1.0721 
  48   0.0000       0.117487         3.1970 
  49   0.0000       0.179205         4.8764 
  50   0.0000       0.189207         5.1486 
  51   0.0000       0.189211         5.1487 
  52   0.0000       0.214779         5.8444 
  53   0.0000       0.214802         5.8451 
  54   0.0000       0.238574         6.4919 
  55   0.0000       0.316360         8.6086 
  56   0.0000       0.316361         8.6086 
  57   0.0000       0.355459         9.6725 
  58   0.0000       0.370566        10.0836 
  59   0.0000       0.410449        11.1689 
  60   0.0000       0.410476        11.1696 
  61   0.0000       0.424345        11.5470 
  62   0.0000       0.424354        11.5472 
  63   0.0000       0.493406        13.4263 
  64   0.0000       0.493431        13.4269 
  65   0.0000       0.544957        14.8290 
  66   0.0000       1.289302        35.0837 
  67   0.0000       1.289320        35.0842 
  68   0.0000       1.325881        36.0791 
  69   0.0000       1.335906        36.3519 
  70   0.0000       1.366369        37.1808 
  71   0.0000       1.368418        37.2365 
  72   0.0000       1.368464        37.2378 
  73   0.0000       1.397190        38.0195 
  74   0.0000       1.397230        38.0206 
  75   0.0000       1.398981        38.0682 
  76   0.0000       1.412821        38.4448 
  77   0.0000       1.412867        38.4461 
  78   0.0000       1.414990        38.5038 
  79   0.0000       1.425775        38.7973 
  80   0.0000       1.425809        38.7982 
  81   0.0000       1.444085        39.2955 
  82   0.0000       1.444100        39.2960 
  83   0.0000       1.460020        39.7292 
  84   0.0000       1.461316        39.7644 
  85   0.0000       1.465799        39.8864 
  86   0.0000       1.465809        39.8867 
  87   0.0000       1.513238        41.1773 
  88   0.0000       1.513266        41.1781 
  89   0.0000       1.515960        41.2514 
  90   0.0000       1.553835        42.2820 
  91   0.0000       1.556980        42.3676 
  92   0.0000       1.556991        42.3679 
  93   0.0000       1.588562        43.2270 
  94   0.0000       1.588600        43.2280 
  95   0.0000       1.727539        47.0087 
  96   0.0000       1.771889        48.2156 
  97   0.0000       1.860887        50.6373 
  98   0.0000       1.870860        50.9087 
  99   0.0000       1.870876        50.9091 
 100   0.0000       1.899973        51.7009 
 101   0.0000       1.902953        51.7820 
 102   0.0000       1.902989        51.7830 
 103   0.0000       1.922148        52.3043 
 104   0.0000       1.928180        52.4684 
 105   0.0000       1.928193        52.4688 
 106   0.0000       1.944443        52.9110 
 107   0.0000       1.944527        52.9133 
 108   0.0000       2.042207        55.5713 
 109   0.0000       2.042216        55.5715 
 110   0.0000       2.070004        56.3277 
 111   0.0000       2.182775        59.3963 
 112   0.0000       2.337219        63.5990 
 113   0.0000       2.337256        63.6000 
 114   0.0000       4.528180       123.2180 
 115   0.0000       4.545772       123.6968 
 116   0.0000       4.545814       123.6979 
 117   0.0000       4.556171       123.9797 
 118   0.0000       4.559038       124.0577 
 119   0.0000       4.559131       124.0603 
 120   0.0000       4.567101       124.2771 
 121   0.0000       4.584690       124.7558 
 122   0.0000       4.588294       124.8538 
 123   0.0000       4.588325       124.8547 
 124   0.0000       4.596766       125.0844 
 125   0.0000       4.596852       125.0867 
 126   0.0000       4.602253       125.2337 
 127   0.0000       4.642802       126.3371 
 128   0.0000       4.664169       126.9185 
 129   0.0000       4.664213       126.9197 
 130   0.0000       4.666954       126.9943 
 131   0.0000       4.667096       126.9981 
 132   0.0000       4.824554       131.2828 
 133   0.0000       4.824574       131.2833 
 134   0.0000       4.841528       131.7447 
 135   0.0000       5.339871       145.3053 
 136   0.0000       5.340991       145.3357 
 137   0.0000       5.341079       145.3382 
 138   0.0000       5.341518       145.3501 
 139   0.0000       5.341694       145.3549 
 140   0.0000       5.341932       145.3614 
 141   0.0000       5.342198       145.3686 
 142   0.0000       5.342326       145.3721 
 143   0.0000       5.342574       145.3788 
 144   0.0000       5.342669       145.3814 
 145   0.0000       5.342777       145.3843 
 146   0.0000       5.343014       145.3908 
 147   0.0000       5.343526       145.4047 
 148   0.0000       5.343939       145.4160 
 149   0.0000       5.344281       145.4253 
 150   0.0000       5.344731       145.4375 
 151   0.0000       5.345467       145.4575 
 152   0.0000       5.345885       145.4689 
 153   0.0000       5.345920       145.4699 
 154   0.0000       5.345927       145.4701 
 155   0.0000       5.345973       145.4713 
 156   0.0000       5.346089       145.4745 
 157   0.0000       5.346220       145.4780 
 158   0.0000       5.346349       145.4816 
 159   0.0000       5.347766       145.5201 
 160   0.0000       5.354753       145.7102 
 161   0.0000       5.354859       145.7131 
 162   0.0000      33.309101       906.3867 
 163   0.0000      33.649803       915.6577 
 164   0.0000      33.649809       915.6579 
 165   0.0000     110.089255      2995.6809 
 166   0.0000     110.196019      2998.5861 
 167   0.0000     110.196026      2998.5863 

                    ********************************
                    * MULLIKEN POPULATION ANALYSIS *
                    ********************************

-----------------------
MULLIKEN ATOMIC CHARGES
-----------------------
   0 Ag:    0.333241
   1 Ag:    0.333381
   2 Ag:    0.333378
Sum of atomic charges:    1.0000000

--------------------------------
MULLIKEN REDUCED ORBITAL CHARGES
--------------------------------
  0 Ags       :     2.637921  s :     2.637921
      pz      :     2.008115  p :     6.091552
      px      :     2.012224
      py      :     2.071213
      dz2     :     1.993040  d :     9.935698
      dxz     :     1.997241
      dyz     :     1.994249
      dx2y2   :     1.988234
      dxy     :     1.962934
      f0      :     0.000131  f :     0.001567
      f+1     :     0.000095
      f-1     :     0.000267
      f+2     :     0.000081
      f-2     :     0.000178
      f+3     :     0.000498
      f-3     :     0.000317
      g0      :     0.000002  g :     0.000020
      g+1     :     0.000001
      g-1     :     0.000002
      g+2     :     0.000001
      g-2     :     0.000003
      g+3     :     0.000002
      g-3     :     0.000000
      g+4     :     0.000004
      g-4     :     0.000005
  1 Ags       :     2.637811  s :     2.637811
      pz      :     2.008114  p :     6.091535
      px      :     2.056464
      py      :     2.026958
      dz2     :     1.993034  d :     9.935686
      dxz     :     1.994997
      dyz     :     1.996494
      dx2y2   :     1.969251
      dxy     :     1.981911
      f0      :     0.000131  f :     0.001567
      f+1     :     0.000224
      f-1     :     0.000138
      f+2     :     0.000154
      f-2     :     0.000105
      f+3     :     0.000497
      f-3     :     0.000317
      g0      :     0.000002  g :     0.000020
      g+1     :     0.000002
      g-1     :     0.000001
      g+2     :     0.000002
      g-2     :     0.000002
      g+3     :     0.000002
      g-3     :     0.000000
      g+4     :     0.000005
      g-4     :     0.000004
  2 Ags       :     2.637812  s :     2.637812
      pz      :     2.008114  p :     6.091536
      px      :     2.056464
      py      :     2.026958
      dz2     :     1.993034  d :     9.935686
      dxz     :     1.994997
      dyz     :     1.996494
      dx2y2   :     1.969251
      dxy     :     1.981911
      f0      :     0.000131  f :     0.001567
      f+1     :     0.000224
      f-1     :     0.000138
      f+2     :     0.000154
      f-2     :     0.000105
      f+3     :     0.000497
      f-3     :     0.000317
      g0      :     0.000002  g :     0.000020
      g+1     :     0.000002
      g-1     :     0.000001
      g+2     :     0.000002
      g-2     :     0.000002
      g+3     :     0.000002
      g-3     :     0.000000
      g+4     :     0.000005
      g-4     :     0.000004


                     *******************************
                     * LOEWDIN POPULATION ANALYSIS *
                     *******************************

----------------------
LOEWDIN ATOMIC CHARGES
----------------------
   0 Ag:    0.333312
   1 Ag:    0.333344
   2 Ag:    0.333344

-------------------------------
LOEWDIN REDUCED ORBITAL CHARGES
-------------------------------
  0 Ags       :     2.534287  s :     2.534287
      pz      :     2.011249  p :     6.176655
      px      :     2.021486
      py      :     2.143920
      dz2     :     2.000441  d :     9.953403
      dxz     :     1.996494
      dyz     :     1.991678
      dx2y2   :     1.989519
      dxy     :     1.975271
      f0      :     0.000189  f :     0.002315
      f+1     :     0.000145
      f-1     :     0.000337
      f+2     :     0.000109
      f-2     :     0.000272
      f+3     :     0.000818
      f-3     :     0.000444
      g0      :     0.000002  g :     0.000027
      g+1     :     0.000001
      g-1     :     0.000003
      g+2     :     0.000002
      g-2     :     0.000004
      g+3     :     0.000003
      g-3     :     0.000000
      g+4     :     0.000005
      g-4     :     0.000008
  1 Ags       :     2.534226  s :     2.534226
      pz      :     2.011248  p :     6.176671
      px      :     2.113322
      py      :     2.052101
      dz2     :     2.000442  d :     9.953416
      dxz     :     1.992884
      dyz     :     1.995291
      dx2y2   :     1.978841
      dxy     :     1.985959
      f0      :     0.000189  f :     0.002316
      f+1     :     0.000289
      f-1     :     0.000193
      f+2     :     0.000232
      f-2     :     0.000150
      f+3     :     0.000818
      f-3     :     0.000444
      g0      :     0.000002  g :     0.000027
      g+1     :     0.000002
      g-1     :     0.000002
      g+2     :     0.000003
      g-2     :     0.000002
      g+3     :     0.000003
      g-3     :     0.000000
      g+4     :     0.000007
      g-4     :     0.000006
  2 Ags       :     2.534226  s :     2.534226
      pz      :     2.011248  p :     6.176671
      px      :     2.113322
      py      :     2.052101
      dz2     :     2.000442  d :     9.953416
      dxz     :     1.992884
      dyz     :     1.995291
      dx2y2   :     1.978841
      dxy     :     1.985959
      f0      :     0.000189  f :     0.002316
      f+1     :     0.000289
      f-1     :     0.000193
      f+2     :     0.000232
      f-2     :     0.000150
      f+3     :     0.000818
      f-3     :     0.000444
      g0      :     0.000002  g :     0.000027
      g+1     :     0.000002
      g-1     :     0.000002
      g+2     :     0.000003
      g-2     :     0.000002
      g+3     :     0.000003
      g-3     :     0.000000
      g+4     :     0.000007
      g-4     :     0.000006


                      *****************************
                      * MAYER POPULATION ANALYSIS *
                      *****************************

  NA   - Mulliken gross atomic population
  ZA   - Total nuclear charge
  QA   - Mulliken gross atomic charge
  VA   - Mayer's total valence
  BVA  - Mayer's bonded valence
  FA   - Mayer's free valence

  ATOM       NA         ZA         QA         VA         BVA        FA
  0 Ag    18.6668    19.0000     0.3332     1.0842     1.0842     0.0000
  1 Ag    18.6666    19.0000     0.3334     1.0841     1.0841     0.0000
  2 Ag    18.6666    19.0000     0.3334     1.0841     1.0841     0.0000

  Mayer bond orders larger than 0.100000
B(  0-Ag,  1-Ag) :   0.5421 B(  0-Ag,  2-Ag) :   0.5421 B(  1-Ag,  2-Ag) :   0.5420 


-------
TIMINGS
-------

Total SCF time: 0 days 0 hours 0 min 5 sec 

Total time                  ....       5.861 sec
Sum of individual times     ....       5.664 sec  ( 96.7%)

Fock matrix formation       ....       3.993 sec  ( 68.1%)
  XC integration            ....       0.544 sec  ( 13.6% of F)
    Basis function eval.    ....       0.037 sec  (  6.8% of XC)
    Density eval.           ....       0.058 sec  ( 10.7% of XC)
    XC-Functional eval.     ....       0.084 sec  ( 15.5% of XC)
    XC-Potential eval.      ....       0.112 sec  ( 20.6% of XC)
Diagonalization             ....       0.039 sec  (  0.7%)
Density matrix formation    ....       0.007 sec  (  0.1%)
Population analysis         ....       0.005 sec  (  0.1%)
Initial guess               ....       1.262 sec  ( 21.5%)
Orbital Transformation      ....       0.000 sec  (  0.0%)
Orbital Orthonormalization  ....       0.000 sec  (  0.0%)
DIIS solution               ....       0.016 sec  (  0.3%)
Grid generation             ....       0.343 sec  (  5.8%)


-------------------------------------------------------------------------------
                          DFT DISPERSION CORRECTION                            
                                                                               
                              DFTD3 V3.1  Rev 1                                
                              USING zero damping                               
-------------------------------------------------------------------------------
The M06 functional is recognized
Active option DFTDOPT                   ...         3   

molecular C6(AA) [au] = 2417.546456 


            DFT-D V3
 parameters
 s6 scaling factor         :     1.0000 
 rs6 scaling factor        :     1.3250 
 s8 scaling factor         :     0.0000 
 rs8 scaling factor        :     1.0000 
 Damping factor alpha6     :    14.0000 
 Damping factor alpha8     :    16.0000 
 ad hoc parameters k1-k3   :    16.0000     1.3333    -4.0000 

 Edisp/kcal,au: -0.004229674961  -0.000006740415 
 E6   /kcal   :  -0.004229675 
 E8   /kcal   :  -0.000000000 
 % E8         :   0.000000000 

-------------------------   ----------------
Dispersion correction           -0.000006740
-------------------------   ----------------


-------------------------   --------------------
FINAL SINGLE POINT ENERGY      -440.922255442841
-------------------------   --------------------


                            ***************************************
                            *     ORCA property calculations      *
                            ***************************************

                                    ---------------------
                                    Active property flags
                                    ---------------------
   (+) Dipole Moment


------------------------------------------------------------------------------
                       ORCA ELECTRIC PROPERTIES CALCULATION
------------------------------------------------------------------------------

Dipole Moment Calculation                       ... on
Quadrupole Moment Calculation                   ... off
Polarizability Calculation                      ... off
GBWName                                         ... Ag03C1_D3H.gbw
Electron density file                           ... Ag03C1_D3H.scfp
The origin for moment calculation is the CENTER OF MASS  = ( 0.000000,  0.000001  0.000000)

-------------
DIPOLE MOMENT
-------------
                                X             Y             Z
Electronic contribution:     -0.00000      -0.00008       0.00000
Nuclear contribution   :      0.00000       0.00000       0.00000
                        -----------------------------------------
Total Dipole Moment    :     -0.00000      -0.00008       0.00000
                        -----------------------------------------
Magnitude (a.u.)       :      0.00008
Magnitude (Debye)      :      0.00019



--------------------
Rotational spectrum 
--------------------
 
Rotational constants in cm-1:     0.044514     0.044514     0.022257 
Rotational constants in MHz :  1334.482437  1334.482320   667.241189 

 Dipole components along the rotational axes: 
x,y,z [a.u.] :    -0.000076    -0.000000     0.000000 
x,y,z [Debye]:    -0.000194    -0.000001     0.000001 

 

Timings for individual modules:

Sum of individual times         ...        7.268 sec (=   0.121 min)
GTO integral calculation        ...        1.064 sec (=   0.018 min)  14.6 %
SCF iterations                  ...        6.204 sec (=   0.103 min)  85.4 %
                             ****ORCA TERMINATED NORMALLY****
TOTAL RUN TIME: 0 days 0 hours 0 minutes 7 seconds 759 msec
