
                                 *****************
                                 * O   R   C   A *
                                 *****************

           --- An Ab Initio, DFT and Semiempirical electronic structure package ---

                  #######################################################
                  #                        -***-                        #
                  #          Department of theory and spectroscopy      #
                  #               Directorship: Frank Neese             #
                  #        Max Planck Institute fuer Kohlenforschung    #
                  #                Kaiser Wilhelm Platz 1               #
                  #                 D-45470 Muelheim/Ruhr               #
                  #                      Germany                        #
                  #                                                     #
                  #                  All rights reserved                #
                  #                        -***-                        #
                  #######################################################


                         Program Version 4.2.0 -  RELEASE  -


 With contributions from (in alphabetic order):
   Daniel Aravena         : Magnetic Suceptibility
   Michael Atanasov       : Ab Initio Ligand Field Theory (pilot matlab implementation)
   Alexander A. Auer      : GIAO ZORA, VPT2
   Ute Becker             : Parallelization
   Giovanni Bistoni       : ED, misc. LED, open-shell LED, HFLED
   Martin Brehm           : Molecular dynamics
   Dmytro Bykov           : SCF Hessian
   Vijay G. Chilkuri      : MRCI spin determinant printing, contributions to CSF-ICE
   Dipayan Datta          : RHF DLPNO-CCSD density
   Achintya Kumar Dutta   : EOM-CC, STEOM-CC
   Dmitry Ganyushin       : Spin-Orbit,Spin-Spin,Magnetic field MRCI
   Miquel Garcia          : C-PCM Hessian, Gaussian charge scheme
   Yang Guo               : DLPNO-NEVPT2, CIM, IAO-localization
   Andreas Hansen         : Spin unrestricted coupled pair/coupled cluster methods
   Benjamin Helmich-Paris : CASSCF linear response (MC-RPA)
   Lee Huntington         : MR-EOM, pCC
   Robert Izsak           : Overlap fitted RIJCOSX, COSX-SCS-MP3, EOM
   Christian Kollmar      : KDIIS, OOCD, Brueckner-CCSD(T), CCSD density
   Simone Kossmann        : Meta GGA functionals, TD-DFT gradient, OOMP2, MP2 Hessian
   Martin Krupicka        : AUTO-CI
   Lucas Lang             : DCDCAS
   Dagmar Lenk            : GEPOL surface, SMD
   Dimitrios Liakos       : Extrapolation schemes; Compound Job, initial MDCI parallelization
   Dimitrios Manganas     : Further ROCIS development; embedding schemes
   Dimitrios Pantazis     : SARC Basis sets
   Taras Petrenko         : DFT Hessian,TD-DFT gradient, ASA, ECA, R-Raman, ABS, FL, XAS/XES, NRVS
   Peter Pinski           : DLPNO-MP2, DLPNO-MP2 Gradient
   Christoph Reimann      : Effective Core Potentials
   Marius Retegan         : Local ZFS, SOC
   Christoph Riplinger    : Optimizer, TS searches, QM/MM, DLPNO-CCSD(T), (RO)-DLPNO pert. Triples
   Tobias Risthaus        : Range-separated hybrids, TD-DFT gradient, RPA, STAB
   Michael Roemelt        : Original ROCIS implementation
   Masaaki Saitow         : Open-shell DLPNO-CCSD energy and density
   Barbara Sandhoefer     : DKH picture change effects
   Avijit Sen             : IP-ROCIS
   Kantharuban Sivalingam : CASSCF convergence, NEVPT2, FIC-MRCI
   Bernardo de Souza      : ESD, SOC TD-DFT
   Georgi Stoychev        : AutoAux, RI-MP2 NMR
   Willem Van den Heuvel  : Paramagnetic NMR
   Boris Wezisla          : Elementary symmetry handling
   Frank Wennmohs         : Technical directorship


 We gratefully acknowledge several colleagues who have allowed us to
 interface, adapt or use parts of their codes:
   Stefan Grimme, W. Hujo, H. Kruse,             : VdW corrections, initial TS optimization,
                  C. Bannwarth                     DFT functionals, gCP, sTDA/sTD-DF
   Ed Valeev, F. Pavosevic, A. Kumar             : LibInt (2-el integral package), F12 methods
   Garnet Chan, S. Sharma, J. Yang, R. Olivares  : DMRG
   Ulf Ekstrom                                   : XCFun DFT Library
   Mihaly Kallay                                 : mrcc  (arbitrary order and MRCC methods)
   Andreas Klamt, Michael Diedenhofen            : otool_cosmo (COSMO solvation model)
   Jiri Pittner, Ondrej Demel                    : Mk-CCSD
   Frank Weinhold                                : gennbo (NPA and NBO analysis)
   Christopher J. Cramer and Donald G. Truhlar   : smd solvation model
   Lars Goerigk                                  : TD-DFT with DH, B97 family of functionals
   V. Asgeirsson, H. Jonsson                     : NEB implementation
   FAccTs GmbH                                   : IRC, NEB, NEB-TS, Multilevel, MM, QM/MM, CI optimization
   S Lehtola, MJT Oliveira, MAL Marques          : LibXC Library


 Your calculation uses the libint2 library for the computation of 2-el integrals
 For citations please refer to: http://libint.valeyev.net

 Your ORCA version has been built with support for libXC version: 4.2.3
 For citations please refer to: https://tddft.org/programs/libxc/

 This ORCA versions uses:
   CBLAS   interface :  Fast vector & matrix operations
   LAPACKE interface :  Fast linear algebra routines
   SCALAPACK package :  Parallel linear algebra routines


Your calculation utilizes the atom-pairwise dispersion correction
with the zero-damping scheme (D30)
Cite in your paper:
S.Grimme, J.Antony, S.Ehrlich and H.Krieg, J.Chem.Phys., 132, (2010), 154104 
   

XCFun DFT library Copyright 2009-2010 Ulf Ekstrom and contributors.
See http://admol.org/xcfun for more information. This is free soft-
ware; see the source code for copying conditions. There is ABSOLUTELY
NO WARRANTY; not even for MERCHANTABILITY or FITNESS FOR A PARTICULAR
PURPOSE. For details see the documentation. Scientific users of this 
library should cite U. Ekstrom, L. Visscher, R. Bast, A. J. Thorvald-
sen and K. Ruud; J.Chem.Theor.Comp. 2010, DOI: 10.1021/ct100117s
XCFun Version 0.99 
----- Orbital basis set information -----
Your calculation utilizes the basis: def2-TZVPPD
   F. Weigend and R. Ahlrichs, Phys. Chem. Chem. Phys. 7, 3297 (2005).
   D. Rappoport and F. Furche, J. Chem. Phys. 133 134105 (2010).

----- AuxJK basis set information -----
Your calculation utilizes the auxiliary basis: def2/JK
   H-Ba, Hf-Rn: F. Weigend, J. Comput. Chem. 29, 167 (2008).

cite the ECPs for Ag [Def2-ECP] as follows:
Ce-Yb(ecp-28): M. Dolg, H. Stoll, H.Preuss, J. Chem. Phys., 1989, 90, 1730-1734.
Y-Cd(ecp-28), Hf-Hg(ecp-46): D. Andrae,U. Haeussermann, M. Dolg, H. Stoll, H. Preuss, Theor. Chim. Acta, 1990, 77, 123-141.
In-Sb(ecp-28), Tl-Bi(ecp-46): B. Metz, H. Stoll, M. Dolg, J. Chem. Phys., 2000, 113, 2563-2569.
Te-Xe(ecp-28), Po-Rn(ecp-46): K. A. Peterson, D. Figgen, E. Goll, H. Stoll, M. Dolg, J. Chem. Phys., 2003, 119, 11113-11123.
Rb(ecp-28), Cs(ecp-46): T. Leininger, A. Nicklass, W. Kuechle, H. Stoll, M. Dolg, A. Bergner, Chem. Phys. Lett., 1996, 255, 274-280.
Sr(ecp-28), Ba(ecp-46): M. Kaupp, P. V. Schleyer, H. Stoll and H. Preuss, J. Chem. Phys., 1991, 94, 1360-1366.
La(ecp-46): M. Dolg, H. Stoll, A. Savin, H. Preuss, Theor. Chim. Acta, 1989, 75, 173-194.
Lu(ecp-28): X. Cao, M. Dolg, J. Chem. Phys., 2001, 115, 7348-7355.

ECP parameters for Ag [Def2-ECP] have been obtained from:
TURBOMOLE (7.0.2)

================================================================================
                                        WARNINGS
                       Please study these warnings very carefully!
================================================================================


WARNING: your system is open-shell and RHF/RKS was chosen
  ===> : WILL SWITCH to UHF/UKS


WARNING: Minnesota functionals are quite sensitive to the integration grid.
         see SE Wheeler, KN Houk, JCTC 2010, 6, 395,
             N Mardirossian, M Head-Gordon, JCTC 2016, 12, 4303.
         Grid6 seems to be a minimum grid for reliable results with these functionals!
  ===> : Please increase the integration grid!


INFO   : the flag for use of LIBINT has been found!

================================================================================
                                       INPUT FILE
================================================================================
NAME = Ag03N0_D3H.in
|  1> #
|  2> # Ag03N0_D3H M06-D3BJ/Def2-TZVPPD
|  3> #
|  4> ! m06 d3zero def2-tzvppd def2/jk grid4 nofinalgrid
|  5> 
|  6> *xyz 0 2
|  7> Ag       0.000000    1.533951   -0.000000 
|  8> Ag       1.328441   -0.766976    0.000000 
|  9> Ag      -1.328441   -0.766976   -0.000000 
| 10> *
| 11> 
| 12> %maxcore 5000
| 13> 
| 14> %pal
| 15> nprocs = 24
| 16> end
| 17> 
| 18> 
| 19>                          ****END OF INPUT****
================================================================================

                       ****************************
                       * Single Point Calculation *
                       ****************************

---------------------------------
CARTESIAN COORDINATES (ANGSTROEM)
---------------------------------
  Ag     0.000000    1.533951   -0.000000
  Ag     1.328441   -0.766976    0.000000
  Ag    -1.328441   -0.766976   -0.000000

----------------------------
CARTESIAN COORDINATES (A.U.)
----------------------------
  NO LB      ZA    FRAG     MASS         X           Y           Z
   0 Ag   19.0000*   0   107.870    0.000000    2.898747   -0.000000
   1 Ag   19.0000*   0   107.870    2.510390   -1.449375    0.000000
   2 Ag   19.0000*   0   107.870   -2.510390   -1.449375   -0.000000
* core charge reduced due to ECP

--------------------------------
INTERNAL COORDINATES (ANGSTROEM)
--------------------------------
 Ag     0   0   0     0.000000000000     0.00000000     0.00000000
 Ag     1   0   0     2.656881734254     0.00000000     0.00000000
 Ag     1   2   0     2.656881734254    60.00000662     0.00000000

---------------------------
INTERNAL COORDINATES (A.U.)
---------------------------
 Ag     0   0   0     0.000000000000     0.00000000     0.00000000
 Ag     1   0   0     5.020778847957     0.00000000     0.00000000
 Ag     1   2   0     5.020778847957    60.00000662     0.00000000

---------------------
BASIS SET INFORMATION
---------------------
There are 1 groups of distinct atoms

 Group   1 Type Ag  : 7s7p6d2f1g contracted to 6s4p3d2f1g pattern {211111/4111/411/11/1}

Atom   0Ag   basis set group =>   1
Atom   1Ag   basis set group =>   1
Atom   2Ag   basis set group =>   1
----------------------------------
AUXILIARY/JK BASIS SET INFORMATION
----------------------------------
There are 1 groups of distinct atoms

 Group   1 Type Ag  : 13s12p10d9f6g3h2i contracted to 11s10p9d8f6g3h2i pattern {31111111111/3111111111/211111111/21111111/111111/111/11}

Atom   0Ag   basis set group =>   1
Atom   1Ag   basis set group =>   1
Atom   2Ag   basis set group =>   1
-------------------------
ECP PARAMETER INFORMATION
-------------------------

 Group 1, Type Ag ECP Def2-ECP (replacing 28 core electrons, lmax=3)

Atom   0Ag   ECP group =>   1
Atom   1Ag   ECP group =>   1
Atom   2Ag   ECP group =>   1



           ************************************************************
           *        Program running with 24 parallel MPI-processes    *
           *              working on a common directory               *
           ************************************************************
------------------------------------------------------------------------------
                           ORCA GTO INTEGRAL CALCULATION
------------------------------------------------------------------------------

                         BASIS SET STATISTICS AND STARTUP INFO

 # of primitive gaussian shells          ...   69
 # of primitive gaussian functions       ...  243
 # of contracted shells                  ...   48
 # of contracted basis functions         ...  168
 Highest angular momentum                ...    4
 Maximum contraction depth               ...    4
 Integral package used                   ... LIBINT
 Integral threshhold            Thresh   ...  1.000e-10
 Primitive cut-off              TCut     ...  1.000e-11


------------------------------ INTEGRAL EVALUATION ----------------------------


 * One electron integrals 

   ECP integrals                         ... done
 Pre-screening matrix                    ... done
 Shell pair data                         ... done (   0.000 sec)



           ************************************************************
           *        Program running with 24 parallel MPI-processes    *
           *              working on a common directory               *
           ************************************************************
-------------------------------------------------------------------------------
                                 ORCA SCF
-------------------------------------------------------------------------------

------------
SCF SETTINGS
------------
Hamiltonian:
 Density Functional     Method          .... DFT(GTOs)
 Exchange Functional    Exchange        .... M06
 Correlation Functional Correlation     .... M06
 Gradients option       PostSCFGGA      .... off
 Hybrid DFT is turned on
   Fraction HF Exchange ScalHFX         ....  0.270000
   Scaling of DF-GGA-X  ScalDFX         ....  0.730000
   Scaling of DF-GGA-C  ScalDFC         ....  1.000000
   Scaling of DF-LDA-C  ScalLDAC        ....  1.000000
   Perturbative correction              ....  0.000000
   Density functional embedding theory  .... OFF


General Settings:
 Integral files         IntName         .... Ag03N0_D3H
 Hartree-Fock type      HFTyp           .... UHF
 Total Charge           Charge          ....    0
 Multiplicity           Mult            ....    2
 Number of Electrons    NEL             ....   57
 Basis Dimension        Dim             ....  168
 Nuclear Repulsion      ENuc            ....    215.7035784065 Eh

Convergence Acceleration:
 DIIS                   CNVDIIS         .... on
   Start iteration      DIISMaxIt       ....    12
   Startup error        DIISStart       ....  0.200000
   # of expansion vecs  DIISMaxEq       ....     5
   Bias factor          DIISBfac        ....   1.050
   Max. coefficient     DIISMaxC        ....  10.000
 Newton-Raphson         CNVNR           .... off
 SOSCF                  CNVSOSCF        .... off
 Level Shifting         CNVShift        .... on
   Level shift para.    LevelShift      ....    0.2500
   Turn off err/grad.   ShiftErr        ....    0.0010
 Zerner damping         CNVZerner       .... off
 Static damping         CNVDamp         .... on
   Fraction old density DampFac         ....    0.7000
   Max. Damping (<1)    DampMax         ....    0.9800
   Min. Damping (>=0)   DampMin         ....    0.0000
   Turn off err/grad.   DampErr         ....    0.1000
 Fernandez-Rico         CNVRico         .... off

SCF Procedure:
 Maximum # iterations   MaxIter         ....   125
 SCF integral mode      SCFMode         .... Direct
   Integral package                     .... LIBINT
 Reset frequency        DirectResetFreq ....    20
 Integral Threshold     Thresh          ....  1.000e-10 Eh
 Primitive CutOff       TCut            ....  1.000e-11 Eh

Convergence Tolerance:
 Convergence Check Mode ConvCheckMode   .... Total+1el-Energy
 Convergence forced     ConvForced      .... 0
 Energy Change          TolE            ....  1.000e-06 Eh
 1-El. energy change                    ....  1.000e-03 Eh
 DIIS Error             TolErr          ....  1.000e-06


Diagonalization of the overlap matrix:
Smallest eigenvalue                        ... 2.935e-03
Time for diagonalization                   ...    0.006 sec
Threshold for overlap eigenvalues          ... 1.000e-08
Number of eigenvalues below threshold      ... 0
Time for construction of square roots      ...    0.003 sec
Total time needed                          ...    0.010 sec

-------------------
DFT GRID GENERATION
-------------------

General Integration Accuracy     IntAcc      ...  4.670
Radial Grid Type                 RadialGrid  ... Gauss-Chebyshev
Angular Grid (max. acc.)         AngularGrid ... Lebedev-302
Angular grid pruning method      GridPruning ... 3 (G Style)
Weight generation scheme         WeightScheme... Becke
Basis function cutoff            BFCut       ...    1.0000e-10
Integration weight cutoff        WCut        ...    1.0000e-14
Grids for H and He will be reduced by one unit

# of grid points (after initial pruning)     ...  31974 (   0.0 sec)
# of grid points (after weights+screening)   ...  31838 (   0.0 sec)
nearest neighbour list constructed           ...    0.0 sec
Grid point re-assignment to atoms done       ...    0.0 sec
Grid point division into batches done        ...    0.2 sec
Reduced shell lists constructed in    0.3 sec

Total number of grid points                  ...    31838
Total number of batches                      ...      500
Average number of points per batch           ...       63
Average number of grid points per atom       ...    10613
Average number of shells per batch           ...     4.23 ( 8.81%)
Average number of basis functions per batch  ...     8.95 ( 5.33%)
Average number of large shells per batch     ...     2.82 (66.67%)
Average number of large basis fcns per batch ...     5.91 (65.99%)
Maximum spatial batch extension              ...  27.02, 24.03, 31.14 au
Average spatial batch extension              ...   0.75,  0.64,  0.72 au

Time for grid setup =    0.323 sec

------------------------------
INITIAL GUESS: MODEL POTENTIAL
------------------------------
Loading Hartree-Fock densities                     ... done
  calling /sw/apps/orca/orca_4_2_0_linux_x86-64_openmpi314/orca Ag03N0_D3H_atom47.inp > Ag03N0_D3H_atom47.out in order to generate an atomic fitting density for atom 0 (Ag with ECP) on-the-fly... 
    atom 0 (Ag), assumed electronic state with S=2: 1s2 2s2 2p6 3s2 3p6 4s2 3d10 4p6 5s2 4d9           ... done
Calculating cut-offs                               ... done
Setting up the integral package                    ... done
Initializing the effective Hamiltonian             ... done
Starting the Coulomb interaction                   ... done (   0.0 sec)
Reading the grid                                   ... done
Mapping shells                                     ... done
Starting the XC term evaluation                    ... done (   0.0 sec)
  promolecular density results
     # of electrons  =    141.001589608
     EX              =   -430.310478893
     EC              =     -7.472800308
     EX+EC           =   -437.783279201
Transforming the Hamiltonian                       ... done (   0.0 sec)
Diagonalizing the Hamiltonian                      ... done (   0.0 sec)
Back transforming the eigenvectors                 ... done (   0.0 sec)
Now organizing SCF variables                       ... done
                      ------------------
                      INITIAL GUESS DONE (   1.6 sec)
                      ------------------
--------------
SCF ITERATIONS
--------------
ITER       Energy         Delta-E        Max-DP      RMS-DP      [F,P]     Damp
               ***  Starting incremental Fock matrix formation  ***
  0   -440.8270279038   0.000000000000 0.09523615  0.00147226  0.5029633 0.7000
  1   -440.9722589444  -0.145231040681 0.08653657  0.00091560  0.3288177 0.7000
  2   -441.0210194724  -0.048760527994 0.05472915  0.00044793  0.2179788 0.7000
                               ***Turning on DIIS***
  3   -441.0527838289  -0.031764356470 0.03110862  0.00024014  0.1497541 0.7000
  4   -441.0762537917  -0.023469962791 0.01798343  0.00016572  0.1051218 0.7000
  5   -441.0928184836  -0.016564691884 0.04041644  0.00043167  0.0741287 0.0000
  6   -441.1314603021  -0.038641818541 0.00426467  0.00007246  0.0007740 0.0000
  7   -441.1314697509  -0.000009448761 0.00034331  0.00000898  0.0011852 0.0000
  8   -441.1314755139  -0.000005763045 0.00039256  0.00000570  0.0000856 0.0000
  9   -441.1314757435  -0.000000229563 0.00022873  0.00000197  0.0000632 0.0000
                 **** Energy Check signals convergence ****

               *****************************************************
               *                     SUCCESS                       *
               *           SCF CONVERGED AFTER  10 CYCLES          *
               *****************************************************


----------------
TOTAL SCF ENERGY
----------------

Total Energy       :         -441.13147578 Eh          -12003.79772 eV

Components:
Nuclear Repulsion  :          215.70357841 Eh            5869.59277 eV
Electronic Energy  :         -656.83505419 Eh          -17873.39049 eV
One Electron Energy:        -1214.40239423 Eh          -33045.56915 eV
Two Electron Energy:          557.56734005 Eh           15172.17866 eV

Virial components:
Potential Energy   :         -610.07950127 Eh          -16601.10721 eV
Kinetic Energy     :          168.94802548 Eh            4597.30950 eV
Virial Ratio       :            3.61104842


DFT components:
N(Alpha)           :       28.999984481210 electrons
N(Beta)            :       27.999983784030 electrons
N(Total)           :       56.999968265240 electrons
E(XC)              :      -31.852469462781 Eh       
DFET-embed. en.    :        0.000000000000 Eh       

---------------
SCF CONVERGENCE
---------------

  Last Energy change         ...   -3.7965e-08  Tolerance :   1.0000e-06
  Last MAX-Density change    ...    7.0530e-05  Tolerance :   1.0000e-05
  Last RMS-Density change    ...    7.1761e-07  Tolerance :   1.0000e-06
  Last DIIS Error            ...    5.5160e-05  Tolerance :   1.0000e-06

             **** THE GBW FILE WAS UPDATED (Ag03N0_D3H.gbw) ****
             **** DENSITY FILE WAS UPDATED (Ag03N0_D3H.scfp) ****
             **** ENERGY FILE WAS UPDATED (Ag03N0_D3H.en.tmp) ****
----------------------
UHF SPIN CONTAMINATION
----------------------

Warning: in a DFT calculation there is little theoretical justification to 
         calculate <S**2> as in Hartree-Fock theory. We will do it anyways
         but you should keep in mind that the values have only limited relevance

Expectation value of <S**2>     :     0.752340
Ideal value S*(S+1) for S=0.5   :     0.750000
Deviation                       :     0.002340

             **** THE GBW FILE WAS UPDATED (Ag03N0_D3H.gbw) ****
             **** DENSITY FILE WAS UPDATED (Ag03N0_D3H.scfp) ****
----------------
ORBITAL ENERGIES
----------------
                 SPIN UP ORBITALS
  NO   OCC          E(Eh)            E(eV) 
   0   1.0000      -3.736891      -101.6860 
   1   1.0000      -3.736547      -101.6766 
   2   1.0000      -3.716620      -101.1344 
   3   1.0000      -2.347336       -63.8742 
   4   1.0000      -2.343964       -63.7825 
   5   1.0000      -2.343668       -63.7744 
   6   1.0000      -2.343106       -63.7592 
   7   1.0000      -2.342749       -63.7494 
   8   1.0000      -2.342191       -63.7343 
   9   1.0000      -2.324442       -63.2513 
  10   1.0000      -2.323328       -63.2210 
  11   1.0000      -2.320907       -63.1551 
  12   1.0000      -0.400365       -10.8945 
  13   1.0000      -0.386382       -10.5140 
  14   1.0000      -0.379912       -10.3379 
  15   1.0000      -0.378140       -10.2897 
  16   1.0000      -0.365806        -9.9541 
  17   1.0000      -0.365030        -9.9330 
  18   1.0000      -0.359919        -9.7939 
  19   1.0000      -0.348118        -9.4728 
  20   1.0000      -0.344463        -9.3733 
  21   1.0000      -0.341993        -9.3061 
  22   1.0000      -0.331689        -9.0257 
  23   1.0000      -0.330224        -8.9859 
  24   1.0000      -0.327668        -8.9163 
  25   1.0000      -0.326560        -8.8861 
  26   1.0000      -0.315798        -8.5933 
  27   1.0000      -0.262874        -7.1532 
  28   1.0000      -0.147676        -4.0185 
  29   0.0000      -0.111068        -3.0223 
  30   0.0000      -0.046518        -1.2658 
  31   0.0000      -0.021806        -0.5934 
  32   0.0000      -0.008832        -0.2403 
  33   0.0000      -0.007810        -0.2125 
  34   0.0000       0.016369         0.4454 
  35   0.0000       0.026409         0.7186 
  36   0.0000       0.036793         1.0012 
  37   0.0000       0.059219         1.6114 
  38   0.0000       0.065387         1.7793 
  39   0.0000       0.099366         2.7039 
  40   0.0000       0.124566         3.3896 
  41   0.0000       0.129315         3.5188 
  42   0.0000       0.135425         3.6851 
  43   0.0000       0.144187         3.9235 
  44   0.0000       0.157015         4.2726 
  45   0.0000       0.160691         4.3726 
  46   0.0000       0.183229         4.9859 
  47   0.0000       0.199993         5.4421 
  48   0.0000       0.268603         7.3090 
  49   0.0000       0.337217         9.1762 
  50   0.0000       0.339991         9.2516 
  51   0.0000       0.348162         9.4740 
  52   0.0000       0.378425        10.2975 
  53   0.0000       0.378437        10.2978 
  54   0.0000       0.392718        10.6864 
  55   0.0000       0.472725        12.8635 
  56   0.0000       0.480332        13.0705 
  57   0.0000       0.513663        13.9775 
  58   0.0000       0.526634        14.3304 
  59   0.0000       0.563524        15.3343 
  60   0.0000       0.568369        15.4661 
  61   0.0000       0.578360        15.7380 
  62   0.0000       0.580300        15.7908 
  63   0.0000       0.650553        17.7025 
  64   0.0000       0.657143        17.8818 
  65   0.0000       0.704860        19.1802 
  66   0.0000       1.479948        40.2714 
  67   0.0000       1.483670        40.3727 
  68   0.0000       1.519790        41.3556 
  69   0.0000       1.529813        41.6283 
  70   0.0000       1.553479        42.2723 
  71   0.0000       1.563282        42.5391 
  72   0.0000       1.564070        42.5605 
  73   0.0000       1.584329        43.1118 
  74   0.0000       1.587944        43.2102 
  75   0.0000       1.588957        43.2377 
  76   0.0000       1.598388        43.4944 
  77   0.0000       1.605025        43.6749 
  78   0.0000       1.606853        43.7247 
  79   0.0000       1.613814        43.9141 
  80   0.0000       1.615846        43.9694 
  81   0.0000       1.631635        44.3990 
  82   0.0000       1.632792        44.4305 
  83   0.0000       1.638942        44.5979 
  84   0.0000       1.641638        44.6712 
  85   0.0000       1.651212        44.9318 
  86   0.0000       1.652724        44.9729 
  87   0.0000       1.694927        46.1213 
  88   0.0000       1.700908        46.2841 
  89   0.0000       1.704715        46.3876 
  90   0.0000       1.731469        47.1157 
  91   0.0000       1.736115        47.2421 
  92   0.0000       1.742429        47.4139 
  93   0.0000       1.769504        48.1506 
  94   0.0000       1.770802        48.1860 
  95   0.0000       1.911518        52.0150 
  96   0.0000       1.958684        53.2985 
  97   0.0000       2.046530        55.6889 
  98   0.0000       2.052132        55.8414 
  99   0.0000       2.062149        56.1139 
 100   0.0000       2.086757        56.7836 
 101   0.0000       2.090382        56.8822 
 102   0.0000       2.092009        56.9265 
 103   0.0000       2.107415        57.3457 
 104   0.0000       2.117004        57.6066 
 105   0.0000       2.117027        57.6072 
 106   0.0000       2.127985        57.9054 
 107   0.0000       2.137959        58.1768 
 108   0.0000       2.222327        60.4726 
 109   0.0000       2.229805        60.6761 
 110   0.0000       2.254877        61.3583 
 111   0.0000       2.366963        64.4083 
 112   0.0000       2.517467        68.5038 
 113   0.0000       2.525285        68.7165 
 114   0.0000       4.720695       128.4566 
 115   0.0000       4.734174       128.8234 
 116   0.0000       4.738776       128.9486 
 117   0.0000       4.742376       129.0466 
 118   0.0000       4.752800       129.3303 
 119   0.0000       4.752964       129.3347 
 120   0.0000       4.759502       129.5126 
 121   0.0000       4.771527       129.8399 
 122   0.0000       4.773506       129.8937 
 123   0.0000       4.778297       130.0241 
 124   0.0000       4.780362       130.0803 
 125   0.0000       4.796223       130.5119 
 126   0.0000       4.796509       130.5196 
 127   0.0000       4.831219       131.4642 
 128   0.0000       4.848844       131.9438 
 129   0.0000       4.854814       132.1062 
 130   0.0000       4.859589       132.2361 
 131   0.0000       4.860322       132.2561 
 132   0.0000       5.008519       136.2887 
 133   0.0000       5.013781       136.4319 
 134   0.0000       5.030117       136.8764 
 135   0.0000       5.525083       150.3452 
 136   0.0000       5.525532       150.3574 
 137   0.0000       5.525689       150.3616 
 138   0.0000       5.525987       150.3697 
 139   0.0000       5.526647       150.3877 
 140   0.0000       5.526926       150.3953 
 141   0.0000       5.527068       150.3992 
 142   0.0000       5.527378       150.4076 
 143   0.0000       5.528208       150.4302 
 144   0.0000       5.528898       150.4490 
 145   0.0000       5.528940       150.4501 
 146   0.0000       5.529462       150.4643 
 147   0.0000       5.530265       150.4861 
 148   0.0000       5.530328       150.4879 
 149   0.0000       5.530335       150.4881 
 150   0.0000       5.530341       150.4882 
 151   0.0000       5.532702       150.5525 
 152   0.0000       5.533772       150.5816 
 153   0.0000       5.543442       150.8447 
 154   0.0000       5.544999       150.8871 
 155   0.0000       5.545908       150.9118 
 156   0.0000       5.547430       150.9532 
 157   0.0000       5.548254       150.9757 
 158   0.0000       5.548446       150.9809 
 159   0.0000       5.549187       151.0010 
 160   0.0000       5.551302       151.0586 
 161   0.0000       5.551337       151.0596 
 162   0.0000      33.496424       911.4840 
 163   0.0000      33.830451       920.5734 
 164   0.0000      33.843543       920.9296 
 165   0.0000     110.278637      3000.8343 
 166   0.0000     110.379486      3003.5785 
 167   0.0000     110.393169      3003.9508 

                 SPIN DOWN ORBITALS
  NO   OCC          E(Eh)            E(eV) 
   0   1.0000      -3.736141      -101.6656 
   1   1.0000      -3.735790      -101.6560 
   2   1.0000      -3.714311      -101.0716 
   3   1.0000      -2.346751       -63.8583 
   4   1.0000      -2.342670       -63.7473 
   5   1.0000      -2.342625       -63.7461 
   6   1.0000      -2.342595       -63.7453 
   7   1.0000      -2.342269       -63.7364 
   8   1.0000      -2.341818       -63.7241 
   9   1.0000      -2.321730       -63.1775 
  10   1.0000      -2.321576       -63.1733 
  11   1.0000      -2.319369       -63.1132 
  12   1.0000      -0.398301       -10.8383 
  13   1.0000      -0.385804       -10.4983 
  14   1.0000      -0.379208       -10.3188 
  15   1.0000      -0.376107       -10.2344 
  16   1.0000      -0.364796        -9.9266 
  17   1.0000      -0.364273        -9.9124 
  18   1.0000      -0.358913        -9.7665 
  19   1.0000      -0.347065        -9.4441 
  20   1.0000      -0.344064        -9.3625 
  21   1.0000      -0.341303        -9.2873 
  22   1.0000      -0.330003        -8.9798 
  23   1.0000      -0.328635        -8.9426 
  24   1.0000      -0.325475        -8.8566 
  25   1.0000      -0.324355        -8.8262 
  26   1.0000      -0.313346        -8.5266 
  27   1.0000      -0.254975        -6.9382 
  28   0.0000      -0.106051        -2.8858 
  29   0.0000      -0.093060        -2.5323 
  30   0.0000      -0.043569        -1.1856 
  31   0.0000      -0.015913        -0.4330 
  32   0.0000       0.001659         0.0451 
  33   0.0000       0.004251         0.1157 
  34   0.0000       0.022319         0.6073 
  35   0.0000       0.037181         1.0117 
  36   0.0000       0.050340         1.3698 
  37   0.0000       0.084726         2.3055 
  38   0.0000       0.087623         2.3843 
  39   0.0000       0.103097         2.8054 
  40   0.0000       0.137029         3.7288 
  41   0.0000       0.142235         3.8704 
  42   0.0000       0.144228         3.9247 
  43   0.0000       0.160372         4.3639 
  44   0.0000       0.172459         4.6928 
  45   0.0000       0.178222         4.8497 
  46   0.0000       0.192407         5.2357 
  47   0.0000       0.214387         5.8338 
  48   0.0000       0.278931         7.5901 
  49   0.0000       0.343105         9.3364 
  50   0.0000       0.345514         9.4019 
  51   0.0000       0.346841         9.4380 
  52   0.0000       0.374884        10.2011 
  53   0.0000       0.375888        10.2284 
  54   0.0000       0.392274        10.6743 
  55   0.0000       0.466742        12.7007 
  56   0.0000       0.473951        12.8969 
  57   0.0000       0.505387        13.7523 
  58   0.0000       0.526841        14.3361 
  59   0.0000       0.559393        15.2219 
  60   0.0000       0.559999        15.2384 
  61   0.0000       0.575484        15.6597 
  62   0.0000       0.575998        15.6737 
  63   0.0000       0.649338        17.6694 
  64   0.0000       0.655267        17.8307 
  65   0.0000       0.696202        18.9446 
  66   0.0000       1.481199        40.3055 
  67   0.0000       1.486030        40.4369 
  68   0.0000       1.521854        41.4118 
  69   0.0000       1.531990        41.6876 
  70   0.0000       1.553648        42.2769 
  71   0.0000       1.565186        42.5909 
  72   0.0000       1.566405        42.6240 
  73   0.0000       1.585189        43.1352 
  74   0.0000       1.589299        43.2470 
  75   0.0000       1.590878        43.2900 
  76   0.0000       1.599803        43.5329 
  77   0.0000       1.604379        43.6574 
  78   0.0000       1.610291        43.8183 
  79   0.0000       1.616796        43.9953 
  80   0.0000       1.619087        44.0576 
  81   0.0000       1.634152        44.4675 
  82   0.0000       1.635023        44.4912 
  83   0.0000       1.639389        44.6100 
  84   0.0000       1.639827        44.6220 
  85   0.0000       1.651092        44.9285 
  86   0.0000       1.654912        45.0324 
  87   0.0000       1.694269        46.1034 
  88   0.0000       1.701023        46.2872 
  89   0.0000       1.707050        46.4512 
  90   0.0000       1.731944        47.1286 
  91   0.0000       1.735546        47.2266 
  92   0.0000       1.743437        47.4413 
  93   0.0000       1.770645        48.1817 
  94   0.0000       1.771278        48.1989 
  95   0.0000       1.909749        51.9669 
  96   0.0000       1.958767        53.3008 
  97   0.0000       2.045155        55.6515 
  98   0.0000       2.051144        55.8145 
  99   0.0000       2.059022        56.0288 
 100   0.0000       2.083298        56.6894 
 101   0.0000       2.085544        56.7505 
 102   0.0000       2.091310        56.9074 
 103   0.0000       2.104429        57.2644 
 104   0.0000       2.112363        57.4803 
 105   0.0000       2.112436        57.4823 
 106   0.0000       2.122831        57.7652 
 107   0.0000       2.133084        58.0442 
 108   0.0000       2.219562        60.3974 
 109   0.0000       2.226054        60.5740 
 110   0.0000       2.251796        61.2745 
 111   0.0000       2.364647        64.3453 
 112   0.0000       2.517635        68.5083 
 113   0.0000       2.525176        68.7135 
 114   0.0000       4.721810       128.4870 
 115   0.0000       4.735421       128.8574 
 116   0.0000       4.739661       128.9727 
 117   0.0000       4.743218       129.0695 
 118   0.0000       4.753852       129.3589 
 119   0.0000       4.754306       129.3712 
 120   0.0000       4.761034       129.5543 
 121   0.0000       4.773262       129.8871 
 122   0.0000       4.775243       129.9410 
 123   0.0000       4.780142       130.0743 
 124   0.0000       4.782000       130.1248 
 125   0.0000       4.800413       130.6259 
 126   0.0000       4.800479       130.6277 
 127   0.0000       4.832812       131.5075 
 128   0.0000       4.850118       131.9784 
 129   0.0000       4.856209       132.1442 
 130   0.0000       4.861630       132.2917 
 131   0.0000       4.861656       132.2924 
 132   0.0000       5.009569       136.3173 
 133   0.0000       5.014701       136.4570 
 134   0.0000       5.031165       136.9050 
 135   0.0000       5.526521       150.3843 
 136   0.0000       5.526797       150.3918 
 137   0.0000       5.527191       150.4025 
 138   0.0000       5.527401       150.4082 
 139   0.0000       5.527697       150.4163 
 140   0.0000       5.528035       150.4255 
 141   0.0000       5.528831       150.4472 
 142   0.0000       5.528901       150.4490 
 143   0.0000       5.529888       150.4759 
 144   0.0000       5.529920       150.4768 
 145   0.0000       5.530520       150.4931 
 146   0.0000       5.531054       150.5076 
 147   0.0000       5.531767       150.5270 
 148   0.0000       5.531932       150.5315 
 149   0.0000       5.532031       150.5342 
 150   0.0000       5.532113       150.5364 
 151   0.0000       5.534166       150.5923 
 152   0.0000       5.536214       150.6480 
 153   0.0000       5.550598       151.0394 
 154   0.0000       5.551481       151.0635 
 155   0.0000       5.552423       151.0891 
 156   0.0000       5.553820       151.1271 
 157   0.0000       5.553863       151.1283 
 158   0.0000       5.554097       151.1347 
 159   0.0000       5.554442       151.1440 
 160   0.0000       5.557245       151.2203 
 161   0.0000       5.557832       151.2363 
 162   0.0000      33.497608       911.5163 
 163   0.0000      33.830955       920.5871 
 164   0.0000      33.845250       920.9761 
 165   0.0000     110.279316      3000.8527 
 166   0.0000     110.379763      3003.5860 
 167   0.0000     110.394581      3003.9893 

                    ********************************
                    * MULLIKEN POPULATION ANALYSIS *
                    ********************************

--------------------------------------------
MULLIKEN ATOMIC CHARGES AND SPIN POPULATIONS
--------------------------------------------
   0 Ag:   -0.081669    0.554976
   1 Ag:    0.040839    0.222502
   2 Ag:    0.040830    0.222522
Sum of atomic charges         :    0.0000000
Sum of atomic spin populations:    1.0000000

-----------------------------------------------------
MULLIKEN REDUCED ORBITAL CHARGES AND SPIN POPULATIONS
-----------------------------------------------------
CHARGE
  0 Ags       :     3.031355  s :     3.031355
      pz      :     2.008184  p :     6.132369
      px      :     2.008556
      py      :     2.115629
      dz2     :     1.990609  d :     9.916536
      dxz     :     1.995804
      dyz     :     1.990523
      dx2y2   :     1.987640
      dxy     :     1.951960
      f0      :     0.000114  f :     0.001390
      f+1     :     0.000086
      f-1     :     0.000239
      f+2     :     0.000062
      f-2     :     0.000150
      f+3     :     0.000459
      f-3     :     0.000279
      g0      :     0.000002  g :     0.000019
      g+1     :     0.000001
      g-1     :     0.000002
      g+2     :     0.000001
      g-2     :     0.000003
      g+3     :     0.000002
      g-3     :     0.000000
      g+4     :     0.000004
      g-4     :     0.000005
  1 Ags       :     2.813316  s :     2.813316
      pz      :     2.010316  p :     6.195958
      px      :     2.041229
      py      :     2.144413
      dz2     :     1.993822  d :     9.948301
      dxz     :     1.994897
      dyz     :     1.996977
      dx2y2   :     1.976442
      dxy     :     1.986162
      f0      :     0.000127  f :     0.001567
      f+1     :     0.000216
      f-1     :     0.000139
      f+2     :     0.000148
      f-2     :     0.000108
      f+3     :     0.000517
      f-3     :     0.000312
      g0      :     0.000001  g :     0.000020
      g+1     :     0.000002
      g-1     :     0.000001
      g+2     :     0.000002
      g-2     :     0.000001
      g+3     :     0.000002
      g-3     :     0.000000
      g+4     :     0.000005
      g-4     :     0.000004
  2 Ags       :     2.813327  s :     2.813327
      pz      :     2.010316  p :     6.195957
      px      :     2.041229
      py      :     2.144412
      dz2     :     1.993822  d :     9.948299
      dxz     :     1.994897
      dyz     :     1.996977
      dx2y2   :     1.976441
      dxy     :     1.986162
      f0      :     0.000127  f :     0.001567
      f+1     :     0.000216
      f-1     :     0.000139
      f+2     :     0.000148
      f-2     :     0.000108
      f+3     :     0.000517
      f-3     :     0.000312
      g0      :     0.000001  g :     0.000020
      g+1     :     0.000002
      g-1     :     0.000001
      g+2     :     0.000002
      g-2     :     0.000001
      g+3     :     0.000002
      g-3     :     0.000000
      g+4     :     0.000005
      g-4     :     0.000004

SPIN
  0 Ags       :     0.490430  s :     0.490430
      pz      :     0.000228  p :     0.061964
      px      :    -0.000086
      py      :     0.061823
      dz2     :     0.000458  d :     0.002573
      dxz     :    -0.000074
      dyz     :    -0.000313
      dx2y2   :     0.002351
      dxy     :     0.000151
      f0      :    -0.000000  f :     0.000007
      f+1     :    -0.000000
      f-1     :     0.000008
      f+2     :     0.000001
      f-2     :    -0.000002
      f+3     :     0.000003
      f-3     :    -0.000001
      g0      :     0.000000  g :     0.000000
      g+1     :     0.000000
      g-1     :     0.000000
      g+2     :     0.000000
      g-2     :     0.000000
      g+3     :     0.000000
      g-3     :     0.000000
      g+4     :     0.000000
      g-4     :     0.000000
  1 Ags       :     0.101165  s :     0.101165
      pz      :     0.000172  p :     0.116713
      px      :    -0.001065
      py      :     0.117607
      dz2     :     0.000688  d :     0.004603
      dxz     :    -0.000021
      dyz     :    -0.000066
      dx2y2   :     0.001521
      dxy     :     0.002481
      f0      :    -0.000001  f :     0.000020
      f+1     :    -0.000003
      f-1     :     0.000007
      f+2     :    -0.000003
      f-2     :    -0.000000
      f+3     :     0.000024
      f-3     :    -0.000003
      g0      :     0.000000  g :    -0.000000
      g+1     :    -0.000000
      g-1     :     0.000000
      g+2     :    -0.000000
      g-2     :     0.000000
      g+3     :    -0.000000
      g-3     :    -0.000000
      g+4     :    -0.000000
      g-4     :    -0.000000
  2 Ags       :     0.101187  s :     0.101187
      pz      :     0.000172  p :     0.116712
      px      :    -0.001065
      py      :     0.117606
      dz2     :     0.000688  d :     0.004603
      dxz     :    -0.000021
      dyz     :    -0.000066
      dx2y2   :     0.001521
      dxy     :     0.002481
      f0      :    -0.000001  f :     0.000020
      f+1     :    -0.000003
      f-1     :     0.000007
      f+2     :    -0.000003
      f-2     :    -0.000000
      f+3     :     0.000024
      f-3     :    -0.000003
      g0      :     0.000000  g :    -0.000000
      g+1     :    -0.000000
      g-1     :     0.000000
      g+2     :    -0.000000
      g-2     :     0.000000
      g+3     :    -0.000000
      g-3     :    -0.000000
      g+4     :    -0.000000
      g-4     :    -0.000000


                     *******************************
                     * LOEWDIN POPULATION ANALYSIS *
                     *******************************

-------------------------------------------
LOEWDIN ATOMIC CHARGES AND SPIN POPULATIONS
-------------------------------------------
   0 Ag:   -0.070004    0.462751
   1 Ag:    0.035005    0.268619
   2 Ag:    0.034998    0.268631

----------------------------------------------------
LOEWDIN REDUCED ORBITAL CHARGES AND SPIN POPULATIONS
----------------------------------------------------
CHARGE
  0 Ags       :     2.803524  s :     2.803524
      pz      :     2.011876  p :     6.324751
      px      :     2.020755
      py      :     2.292121
      dz2     :     2.001233  d :     9.939483
      dxz     :     1.995098
      dyz     :     1.987839
      dx2y2   :     1.990083
      dxy     :     1.965229
      f0      :     0.000174  f :     0.002219
      f+1     :     0.000140
      f-1     :     0.000374
      f+2     :     0.000088
      f-2     :     0.000250
      f+3     :     0.000785
      f-3     :     0.000408
      g0      :     0.000002  g :     0.000027
      g+1     :     0.000001
      g-1     :     0.000003
      g+2     :     0.000002
      g-2     :     0.000003
      g+3     :     0.000003
      g-3     :     0.000000
      g+4     :     0.000005
      g-4     :     0.000008
  1 Ags       :     2.649843  s :     2.649843
      pz      :     2.013848  p :     6.345615
      px      :     2.095792
      py      :     2.235974
      dz2     :     1.999372  d :     9.967022
      dxz     :     1.992559
      dyz     :     1.995338
      dx2y2   :     1.987236
      dxy     :     1.992516
      f0      :     0.000191  f :     0.002488
      f+1     :     0.000288
      f-1     :     0.000213
      f+2     :     0.000232
      f-2     :     0.000159
      f+3     :     0.000957
      f-3     :     0.000448
      g0      :     0.000002  g :     0.000027
      g+1     :     0.000002
      g-1     :     0.000001
      g+2     :     0.000003
      g-2     :     0.000002
      g+3     :     0.000003
      g-3     :     0.000001
      g+4     :     0.000007
      g-4     :     0.000006
  2 Ags       :     2.649850  s :     2.649850
      pz      :     2.013848  p :     6.345616
      px      :     2.095793
      py      :     2.235974
      dz2     :     1.999372  d :     9.967021
      dxz     :     1.992559
      dyz     :     1.995338
      dx2y2   :     1.987235
      dxy     :     1.992516
      f0      :     0.000191  f :     0.002488
      f+1     :     0.000288
      f-1     :     0.000213
      f+2     :     0.000232
      f-2     :     0.000159
      f+3     :     0.000957
      f-3     :     0.000448
      g0      :     0.000002  g :     0.000027
      g+1     :     0.000002
      g-1     :     0.000001
      g+2     :     0.000003
      g-2     :     0.000002
      g+3     :     0.000003
      g-3     :     0.000001
      g+4     :     0.000007
      g-4     :     0.000006

SPIN
  0 Ags       :     0.306406  s :     0.306406
      pz      :     0.000254  p :     0.147051
      px      :     0.000146
      py      :     0.146651
      dz2     :     0.002961  d :     0.009244
      dxz     :     0.000005
      dyz     :     0.000079
      dx2y2   :     0.004723
      dxy     :     0.001477
      f0      :    -0.000000  f :     0.000049
      f+1     :     0.000000
      f-1     :     0.000050
      f+2     :     0.000001
      f-2     :    -0.000002
      f+3     :     0.000004
      f-3     :    -0.000004
      g0      :     0.000000  g :     0.000001
      g+1     :     0.000000
      g-1     :     0.000000
      g+2     :     0.000000
      g-2     :     0.000000
      g+3     :     0.000000
      g-3     :     0.000000
      g+4     :     0.000000
      g-4     :     0.000000
  1 Ags       :     0.065278  s :     0.065278
      pz      :     0.000056  p :     0.189951
      px      :    -0.000229
      py      :     0.190124
      dz2     :     0.001243  d :     0.013274
      dxz     :    -0.000074
      dyz     :    -0.000142
      dx2y2   :     0.005655
      dxy     :     0.006593
      f0      :    -0.000002  f :     0.000115
      f+1     :    -0.000002
      f-1     :     0.000028
      f+2     :    -0.000004
      f-2     :    -0.000002
      f+3     :     0.000103
      f-3     :    -0.000006
      g0      :     0.000000  g :     0.000000
      g+1     :    -0.000000
      g-1     :    -0.000000
      g+2     :     0.000000
      g-2     :     0.000000
      g+3     :    -0.000000
      g-3     :    -0.000000
      g+4     :    -0.000000
      g-4     :     0.000000
  2 Ags       :     0.065291  s :     0.065291
      pz      :     0.000056  p :     0.189951
      px      :    -0.000229
      py      :     0.190123
      dz2     :     0.001243  d :     0.013274
      dxz     :    -0.000074
      dyz     :    -0.000142
      dx2y2   :     0.005654
      dxy     :     0.006593
      f0      :    -0.000002  f :     0.000115
      f+1     :    -0.000002
      f-1     :     0.000028
      f+2     :    -0.000004
      f-2     :    -0.000002
      f+3     :     0.000103
      f-3     :    -0.000006
      g0      :     0.000000  g :     0.000000
      g+1     :    -0.000000
      g-1     :    -0.000000
      g+2     :     0.000000
      g-2     :     0.000000
      g+3     :    -0.000000
      g-3     :    -0.000000
      g+4     :    -0.000000
      g-4     :     0.000000


                      *****************************
                      * MAYER POPULATION ANALYSIS *
                      *****************************

  NA   - Mulliken gross atomic population
  ZA   - Total nuclear charge
  QA   - Mulliken gross atomic charge
  VA   - Mayer's total valence
  BVA  - Mayer's bonded valence
  FA   - Mayer's free valence

  ATOM       NA         ZA         QA         VA         BVA        FA
  0 Ag    19.0817    19.0000    -0.0817     1.3395     1.0104     0.3291
  1 Ag    18.9592    19.0000     0.0408     1.3417     1.2806     0.0610
  2 Ag    18.9592    19.0000     0.0408     1.3417     1.2806     0.0611

  Mayer bond orders larger than 0.100000
B(  0-Ag,  1-Ag) :   0.5052 B(  0-Ag,  2-Ag) :   0.5052 B(  1-Ag,  2-Ag) :   0.7754 


-------
TIMINGS
-------

Total SCF time: 0 days 0 hours 0 min 5 sec 

Total time                  ....       5.723 sec
Sum of individual times     ....       5.513 sec  ( 96.3%)

Fock matrix formation       ....       3.811 sec  ( 66.6%)
  XC integration            ....       0.771 sec  ( 20.2% of F)
    Basis function eval.    ....       0.034 sec  (  4.4% of XC)
    Density eval.           ....       0.091 sec  ( 11.8% of XC)
    XC-Functional eval.     ....       0.086 sec  ( 11.2% of XC)
    XC-Potential eval.      ....       0.198 sec  ( 25.7% of XC)
Diagonalization             ....       0.076 sec  (  1.3%)
Density matrix formation    ....       0.013 sec  (  0.2%)
Population analysis         ....       0.009 sec  (  0.2%)
Initial guess               ....       1.258 sec  ( 22.0%)
Orbital Transformation      ....       0.000 sec  (  0.0%)
Orbital Orthonormalization  ....       0.000 sec  (  0.0%)
DIIS solution               ....       0.023 sec  (  0.4%)
Grid generation             ....       0.323 sec  (  5.6%)


-------------------------------------------------------------------------------
                          DFT DISPERSION CORRECTION                            
                                                                               
                              DFTD3 V3.1  Rev 1                                
                              USING zero damping                               
-------------------------------------------------------------------------------
The M06 functional is recognized
Active option DFTDOPT                   ...         3   

molecular C6(AA) [au] = 2417.548083 


            DFT-D V3
 parameters
 s6 scaling factor         :     1.0000 
 rs6 scaling factor        :     1.3250 
 s8 scaling factor         :     0.0000 
 rs8 scaling factor        :     1.0000 
 Damping factor alpha6     :    14.0000 
 Damping factor alpha8     :    16.0000 
 ad hoc parameters k1-k3   :    16.0000     1.3333    -4.0000 

 Edisp/kcal,au: -0.004320626292  -0.000006885356 
 E6   /kcal   :  -0.004320626 
 E8   /kcal   :  -0.000000000 
 % E8         :   0.000000000 

-------------------------   ----------------
Dispersion correction           -0.000006885
-------------------------   ----------------


-------------------------   --------------------
FINAL SINGLE POINT ENERGY      -441.131482666802
-------------------------   --------------------


                            ***************************************
                            *     ORCA property calculations      *
                            ***************************************

                                    ---------------------
                                    Active property flags
                                    ---------------------
   (+) Dipole Moment


------------------------------------------------------------------------------
                       ORCA ELECTRIC PROPERTIES CALCULATION
------------------------------------------------------------------------------

Dipole Moment Calculation                       ... on
Quadrupole Moment Calculation                   ... off
Polarizability Calculation                      ... off
GBWName                                         ... Ag03N0_D3H.gbw
Electron density file                           ... Ag03N0_D3H.scfp
The origin for moment calculation is the CENTER OF MASS  = ( 0.000000, -0.000001  0.000000)

-------------
DIPOLE MOMENT
-------------
                                X             Y             Z
Electronic contribution:      0.00002      -0.41670      -0.00000
Nuclear contribution   :      0.00000       0.00000       0.00000
                        -----------------------------------------
Total Dipole Moment    :      0.00002      -0.41670      -0.00000
                        -----------------------------------------
Magnitude (a.u.)       :      0.41670
Magnitude (Debye)      :      1.05916



--------------------
Rotational spectrum 
--------------------
 
Rotational constants in cm-1:     0.044277     0.044277     0.022139 
Rotational constants in MHz :  1327.402110  1327.401756   663.700966 

 Dipole components along the rotational axes: 
x,y,z [a.u.] :     0.000024    -0.416698    -0.000000 
x,y,z [Debye]:     0.000062    -1.059162    -0.000000 

 

Timings for individual modules:

Sum of individual times         ...        7.066 sec (=   0.118 min)
GTO integral calculation        ...        0.975 sec (=   0.016 min)  13.8 %
SCF iterations                  ...        6.091 sec (=   0.102 min)  86.2 %
                             ****ORCA TERMINATED NORMALLY****
TOTAL RUN TIME: 0 days 0 hours 0 minutes 7 seconds 588 msec
