
                                 *****************
                                 * O   R   C   A *
                                 *****************

           --- An Ab Initio, DFT and Semiempirical electronic structure package ---

                  #######################################################
                  #                        -***-                        #
                  #          Department of theory and spectroscopy      #
                  #               Directorship: Frank Neese             #
                  #        Max Planck Institute fuer Kohlenforschung    #
                  #                Kaiser Wilhelm Platz 1               #
                  #                 D-45470 Muelheim/Ruhr               #
                  #                      Germany                        #
                  #                                                     #
                  #                  All rights reserved                #
                  #                        -***-                        #
                  #######################################################


                         Program Version 4.2.0 -  RELEASE  -


 With contributions from (in alphabetic order):
   Daniel Aravena         : Magnetic Suceptibility
   Michael Atanasov       : Ab Initio Ligand Field Theory (pilot matlab implementation)
   Alexander A. Auer      : GIAO ZORA, VPT2
   Ute Becker             : Parallelization
   Giovanni Bistoni       : ED, misc. LED, open-shell LED, HFLED
   Martin Brehm           : Molecular dynamics
   Dmytro Bykov           : SCF Hessian
   Vijay G. Chilkuri      : MRCI spin determinant printing, contributions to CSF-ICE
   Dipayan Datta          : RHF DLPNO-CCSD density
   Achintya Kumar Dutta   : EOM-CC, STEOM-CC
   Dmitry Ganyushin       : Spin-Orbit,Spin-Spin,Magnetic field MRCI
   Miquel Garcia          : C-PCM Hessian, Gaussian charge scheme
   Yang Guo               : DLPNO-NEVPT2, CIM, IAO-localization
   Andreas Hansen         : Spin unrestricted coupled pair/coupled cluster methods
   Benjamin Helmich-Paris : CASSCF linear response (MC-RPA)
   Lee Huntington         : MR-EOM, pCC
   Robert Izsak           : Overlap fitted RIJCOSX, COSX-SCS-MP3, EOM
   Christian Kollmar      : KDIIS, OOCD, Brueckner-CCSD(T), CCSD density
   Simone Kossmann        : Meta GGA functionals, TD-DFT gradient, OOMP2, MP2 Hessian
   Martin Krupicka        : AUTO-CI
   Lucas Lang             : DCDCAS
   Dagmar Lenk            : GEPOL surface, SMD
   Dimitrios Liakos       : Extrapolation schemes; Compound Job, initial MDCI parallelization
   Dimitrios Manganas     : Further ROCIS development; embedding schemes
   Dimitrios Pantazis     : SARC Basis sets
   Taras Petrenko         : DFT Hessian,TD-DFT gradient, ASA, ECA, R-Raman, ABS, FL, XAS/XES, NRVS
   Peter Pinski           : DLPNO-MP2, DLPNO-MP2 Gradient
   Christoph Reimann      : Effective Core Potentials
   Marius Retegan         : Local ZFS, SOC
   Christoph Riplinger    : Optimizer, TS searches, QM/MM, DLPNO-CCSD(T), (RO)-DLPNO pert. Triples
   Tobias Risthaus        : Range-separated hybrids, TD-DFT gradient, RPA, STAB
   Michael Roemelt        : Original ROCIS implementation
   Masaaki Saitow         : Open-shell DLPNO-CCSD energy and density
   Barbara Sandhoefer     : DKH picture change effects
   Avijit Sen             : IP-ROCIS
   Kantharuban Sivalingam : CASSCF convergence, NEVPT2, FIC-MRCI
   Bernardo de Souza      : ESD, SOC TD-DFT
   Georgi Stoychev        : AutoAux, RI-MP2 NMR
   Willem Van den Heuvel  : Paramagnetic NMR
   Boris Wezisla          : Elementary symmetry handling
   Frank Wennmohs         : Technical directorship


 We gratefully acknowledge several colleagues who have allowed us to
 interface, adapt or use parts of their codes:
   Stefan Grimme, W. Hujo, H. Kruse,             : VdW corrections, initial TS optimization,
                  C. Bannwarth                     DFT functionals, gCP, sTDA/sTD-DF
   Ed Valeev, F. Pavosevic, A. Kumar             : LibInt (2-el integral package), F12 methods
   Garnet Chan, S. Sharma, J. Yang, R. Olivares  : DMRG
   Ulf Ekstrom                                   : XCFun DFT Library
   Mihaly Kallay                                 : mrcc  (arbitrary order and MRCC methods)
   Andreas Klamt, Michael Diedenhofen            : otool_cosmo (COSMO solvation model)
   Jiri Pittner, Ondrej Demel                    : Mk-CCSD
   Frank Weinhold                                : gennbo (NPA and NBO analysis)
   Christopher J. Cramer and Donald G. Truhlar   : smd solvation model
   Lars Goerigk                                  : TD-DFT with DH, B97 family of functionals
   V. Asgeirsson, H. Jonsson                     : NEB implementation
   FAccTs GmbH                                   : IRC, NEB, NEB-TS, Multilevel, MM, QM/MM, CI optimization
   S Lehtola, MJT Oliveira, MAL Marques          : LibXC Library


 Your calculation uses the libint2 library for the computation of 2-el integrals
 For citations please refer to: http://libint.valeyev.net

 Your ORCA version has been built with support for libXC version: 4.2.3
 For citations please refer to: https://tddft.org/programs/libxc/

 This ORCA versions uses:
   CBLAS   interface :  Fast vector & matrix operations
   LAPACKE interface :  Fast linear algebra routines
   SCALAPACK package :  Parallel linear algebra routines


Your calculation utilizes the atom-pairwise dispersion correction
with the zero-damping scheme (D30)
Cite in your paper:
S.Grimme, J.Antony, S.Ehrlich and H.Krieg, J.Chem.Phys., 132, (2010), 154104 
   

XCFun DFT library Copyright 2009-2010 Ulf Ekstrom and contributors.
See http://admol.org/xcfun for more information. This is free soft-
ware; see the source code for copying conditions. There is ABSOLUTELY
NO WARRANTY; not even for MERCHANTABILITY or FITNESS FOR A PARTICULAR
PURPOSE. For details see the documentation. Scientific users of this 
library should cite U. Ekstrom, L. Visscher, R. Bast, A. J. Thorvald-
sen and K. Ruud; J.Chem.Theor.Comp. 2010, DOI: 10.1021/ct100117s
XCFun Version 0.99 
----- Orbital basis set information -----
Your calculation utilizes the basis: def2-TZVPPD
   F. Weigend and R. Ahlrichs, Phys. Chem. Chem. Phys. 7, 3297 (2005).
   D. Rappoport and F. Furche, J. Chem. Phys. 133 134105 (2010).

----- AuxJK basis set information -----
Your calculation utilizes the auxiliary basis: def2/JK
   H-Ba, Hf-Rn: F. Weigend, J. Comput. Chem. 29, 167 (2008).

cite the ECPs for Ag [Def2-ECP] as follows:
Ce-Yb(ecp-28): M. Dolg, H. Stoll, H.Preuss, J. Chem. Phys., 1989, 90, 1730-1734.
Y-Cd(ecp-28), Hf-Hg(ecp-46): D. Andrae,U. Haeussermann, M. Dolg, H. Stoll, H. Preuss, Theor. Chim. Acta, 1990, 77, 123-141.
In-Sb(ecp-28), Tl-Bi(ecp-46): B. Metz, H. Stoll, M. Dolg, J. Chem. Phys., 2000, 113, 2563-2569.
Te-Xe(ecp-28), Po-Rn(ecp-46): K. A. Peterson, D. Figgen, E. Goll, H. Stoll, M. Dolg, J. Chem. Phys., 2003, 119, 11113-11123.
Rb(ecp-28), Cs(ecp-46): T. Leininger, A. Nicklass, W. Kuechle, H. Stoll, M. Dolg, A. Bergner, Chem. Phys. Lett., 1996, 255, 274-280.
Sr(ecp-28), Ba(ecp-46): M. Kaupp, P. V. Schleyer, H. Stoll and H. Preuss, J. Chem. Phys., 1991, 94, 1360-1366.
La(ecp-46): M. Dolg, H. Stoll, A. Savin, H. Preuss, Theor. Chim. Acta, 1989, 75, 173-194.
Lu(ecp-28): X. Cao, M. Dolg, J. Chem. Phys., 2001, 115, 7348-7355.

ECP parameters for Ag [Def2-ECP] have been obtained from:
TURBOMOLE (7.0.2)

================================================================================
                                        WARNINGS
                       Please study these warnings very carefully!
================================================================================


WARNING: Minnesota functionals are quite sensitive to the integration grid.
         see SE Wheeler, KN Houk, JCTC 2010, 6, 395,
             N Mardirossian, M Head-Gordon, JCTC 2016, 12, 4303.
         Grid6 seems to be a minimum grid for reliable results with these functionals!
  ===> : Please increase the integration grid!


INFO   : the flag for use of LIBINT has been found!

================================================================================
                                       INPUT FILE
================================================================================
NAME = Ag04N0.in
|  1> #
|  2> # Ag04N0 M06-D3BJ/Def2-TZVPPD
|  3> #
|  4> ! m06 d3zero def2-tzvppd def2/jk grid4 nofinalgrid
|  5> 
|  6> *xyz 0 1
|  7> Ag      -1.015022   -0.433109    0.700282 
|  8> Ag       0.974659   -2.209777    0.043294 
|  9> Ag       1.013798    0.433158   -0.699441 
| 10> Ag      -0.973435    2.209727   -0.044135 
| 11> *
| 12> 
| 13> %maxcore 5000
| 14> 
| 15> %pal
| 16> nprocs = 24
| 17> end
| 18> 
| 19> 
| 20>                          ****END OF INPUT****
================================================================================

                       ****************************
                       * Single Point Calculation *
                       ****************************

---------------------------------
CARTESIAN COORDINATES (ANGSTROEM)
---------------------------------
  Ag    -1.015022   -0.433109    0.700282
  Ag     0.974659   -2.209777    0.043294
  Ag     1.013798    0.433158   -0.699441
  Ag    -0.973435    2.209727   -0.044135

----------------------------
CARTESIAN COORDINATES (A.U.)
----------------------------
  NO LB      ZA    FRAG     MASS         X           Y           Z
   0 Ag   19.0000*   0   107.870   -1.918114   -0.818457    1.323341
   1 Ag   19.0000*   0   107.870    1.841839   -4.175873    0.081814
   2 Ag   19.0000*   0   107.870    1.915801    0.818550   -1.321752
   3 Ag   19.0000*   0   107.870   -1.839526    4.175779   -0.083403
* core charge reduced due to ECP

--------------------------------
INTERNAL COORDINATES (ANGSTROEM)
--------------------------------
 Ag     0   0   0     0.000000000000     0.00000000     0.00000000
 Ag     1   0   0     2.747182719829     0.00000000     0.00000000
 Ag     1   2   0     2.612614319875    61.56800028     0.00000000
 Ag     3   1   2     2.744944145458    61.60842682   179.99389243

---------------------------
INTERNAL COORDINATES (A.U.)
---------------------------
 Ag     0   0   0     0.000000000000     0.00000000     0.00000000
 Ag     1   0   0     5.191422980318     0.00000000     0.00000000
 Ag     1   2   0     4.937125558125    61.56800028     0.00000000
 Ag     3   1   2     5.187192687827    61.60842682   179.99389243

---------------------
BASIS SET INFORMATION
---------------------
There are 1 groups of distinct atoms

 Group   1 Type Ag  : 7s7p6d2f1g contracted to 6s4p3d2f1g pattern {211111/4111/411/11/1}

Atom   0Ag   basis set group =>   1
Atom   1Ag   basis set group =>   1
Atom   2Ag   basis set group =>   1
Atom   3Ag   basis set group =>   1
----------------------------------
AUXILIARY/JK BASIS SET INFORMATION
----------------------------------
There are 1 groups of distinct atoms

 Group   1 Type Ag  : 13s12p10d9f6g3h2i contracted to 11s10p9d8f6g3h2i pattern {31111111111/3111111111/211111111/21111111/111111/111/11}

Atom   0Ag   basis set group =>   1
Atom   1Ag   basis set group =>   1
Atom   2Ag   basis set group =>   1
Atom   3Ag   basis set group =>   1
-------------------------
ECP PARAMETER INFORMATION
-------------------------

 Group 1, Type Ag ECP Def2-ECP (replacing 28 core electrons, lmax=3)

Atom   0Ag   ECP group =>   1
Atom   1Ag   ECP group =>   1
Atom   2Ag   ECP group =>   1
Atom   3Ag   ECP group =>   1



           ************************************************************
           *        Program running with 24 parallel MPI-processes    *
           *              working on a common directory               *
           ************************************************************
------------------------------------------------------------------------------
                           ORCA GTO INTEGRAL CALCULATION
------------------------------------------------------------------------------

                         BASIS SET STATISTICS AND STARTUP INFO

 # of primitive gaussian shells          ...   92
 # of primitive gaussian functions       ...  324
 # of contracted shells                  ...   64
 # of contracted basis functions         ...  224
 Highest angular momentum                ...    4
 Maximum contraction depth               ...    4
 Integral package used                   ... LIBINT
 Integral threshhold            Thresh   ...  1.000e-10
 Primitive cut-off              TCut     ...  1.000e-11


------------------------------ INTEGRAL EVALUATION ----------------------------


 * One electron integrals 

   ECP integrals                         ... done
 Pre-screening matrix                    ... done
 Shell pair data                         ... done (   0.000 sec)



           ************************************************************
           *        Program running with 24 parallel MPI-processes    *
           *              working on a common directory               *
           ************************************************************
-------------------------------------------------------------------------------
                                 ORCA SCF
-------------------------------------------------------------------------------

------------
SCF SETTINGS
------------
Hamiltonian:
 Density Functional     Method          .... DFT(GTOs)
 Exchange Functional    Exchange        .... M06
 Correlation Functional Correlation     .... M06
 Gradients option       PostSCFGGA      .... off
 Hybrid DFT is turned on
   Fraction HF Exchange ScalHFX         ....  0.270000
   Scaling of DF-GGA-X  ScalDFX         ....  0.730000
   Scaling of DF-GGA-C  ScalDFC         ....  1.000000
   Scaling of DF-LDA-C  ScalLDAC        ....  1.000000
   Perturbative correction              ....  0.000000
   Density functional embedding theory  .... OFF


General Settings:
 Integral files         IntName         .... Ag04N0
 Hartree-Fock type      HFTyp           .... RHF
 Total Charge           Charge          ....    0
 Multiplicity           Mult            ....    1
 Number of Electrons    NEL             ....   76
 Basis Dimension        Dim             ....  224
 Nuclear Repulsion      ENuc            ....    390.9440555712 Eh

Convergence Acceleration:
 DIIS                   CNVDIIS         .... on
   Start iteration      DIISMaxIt       ....    12
   Startup error        DIISStart       ....  0.200000
   # of expansion vecs  DIISMaxEq       ....     5
   Bias factor          DIISBfac        ....   1.050
   Max. coefficient     DIISMaxC        ....  10.000
 Newton-Raphson         CNVNR           .... off
 SOSCF                  CNVSOSCF        .... off
 Level Shifting         CNVShift        .... on
   Level shift para.    LevelShift      ....    0.2500
   Turn off err/grad.   ShiftErr        ....    0.0010
 Zerner damping         CNVZerner       .... off
 Static damping         CNVDamp         .... on
   Fraction old density DampFac         ....    0.7000
   Max. Damping (<1)    DampMax         ....    0.9800
   Min. Damping (>=0)   DampMin         ....    0.0000
   Turn off err/grad.   DampErr         ....    0.1000
 Fernandez-Rico         CNVRico         .... off

SCF Procedure:
 Maximum # iterations   MaxIter         ....   125
 SCF integral mode      SCFMode         .... Direct
   Integral package                     .... LIBINT
 Reset frequency        DirectResetFreq ....    20
 Integral Threshold     Thresh          ....  1.000e-10 Eh
 Primitive CutOff       TCut            ....  1.000e-11 Eh

Convergence Tolerance:
 Convergence Check Mode ConvCheckMode   .... Total+1el-Energy
 Convergence forced     ConvForced      .... 0
 Energy Change          TolE            ....  1.000e-06 Eh
 1-El. energy change                    ....  1.000e-03 Eh
 DIIS Error             TolErr          ....  1.000e-06


Diagonalization of the overlap matrix:
Smallest eigenvalue                        ... 2.397e-03
Time for diagonalization                   ...    0.010 sec
Threshold for overlap eigenvalues          ... 1.000e-08
Number of eigenvalues below threshold      ... 0
Time for construction of square roots      ...    0.006 sec
Total time needed                          ...    0.017 sec

-------------------
DFT GRID GENERATION
-------------------

General Integration Accuracy     IntAcc      ...  4.670
Radial Grid Type                 RadialGrid  ... Gauss-Chebyshev
Angular Grid (max. acc.)         AngularGrid ... Lebedev-302
Angular grid pruning method      GridPruning ... 3 (G Style)
Weight generation scheme         WeightScheme... Becke
Basis function cutoff            BFCut       ...    1.0000e-10
Integration weight cutoff        WCut        ...    1.0000e-14
Grids for H and He will be reduced by one unit

# of grid points (after initial pruning)     ...  42632 (   0.0 sec)
# of grid points (after weights+screening)   ...  42194 (   0.0 sec)
nearest neighbour list constructed           ...    0.0 sec
Grid point re-assignment to atoms done       ...    0.0 sec
Grid point division into batches done        ...    0.3 sec
Reduced shell lists constructed in    0.3 sec

Total number of grid points                  ...    42194
Total number of batches                      ...      662
Average number of points per batch           ...       63
Average number of grid points per atom       ...    10548
Average number of shells per batch           ...    11.69 (18.27%)
Average number of basis functions per batch  ...    28.79 (12.85%)
Average number of large shells per batch     ...     7.52 (64.31%)
Average number of large basis fcns per batch ...    17.10 (59.40%)
Maximum spatial batch extension              ...  24.21, 24.92, 26.73 au
Average spatial batch extension              ...   0.47,  0.46,  0.50 au

Time for grid setup =    0.417 sec

------------------------------
INITIAL GUESS: MODEL POTENTIAL
------------------------------
Loading Hartree-Fock densities                     ... done
  calling /sw/apps/orca/orca_4_2_0_linux_x86-64_openmpi314/orca Ag04N0_atom47.inp > Ag04N0_atom47.out in order to generate an atomic fitting density for atom 0 (Ag with ECP) on-the-fly... 
    atom 0 (Ag), assumed electronic state with S=2: 1s2 2s2 2p6 3s2 3p6 4s2 3d10 4p6 5s2 4d9           ... done
Calculating cut-offs                               ... done
Setting up the integral package                    ... done
Initializing the effective Hamiltonian             ... done
Starting the Coulomb interaction                   ... done (   0.0 sec)
Reading the grid                                   ... done
Mapping shells                                     ... done
Starting the XC term evaluation                    ... done (   0.0 sec)
  promolecular density results
     # of electrons  =    188.002003962
     EX              =   -573.766842222
     EC              =     -9.971221332
     EX+EC           =   -583.738063554
Transforming the Hamiltonian                       ... done (   0.0 sec)
Diagonalizing the Hamiltonian                      ... done (   0.0 sec)
Back transforming the eigenvectors                 ... done (   0.0 sec)
Now organizing SCF variables                       ... done
                      ------------------
                      INITIAL GUESS DONE (   1.7 sec)
                      ------------------
--------------
SCF ITERATIONS
--------------
ITER       Energy         Delta-E        Max-DP      RMS-DP      [F,P]     Damp
               ***  Starting incremental Fock matrix formation  ***
  0   -587.8200388704   0.000000000000 0.13660557  0.00251768  0.5030458 0.7000
  1   -588.0139748526  -0.193935982239 0.08510230  0.00156092  0.3296570 0.7000
  2   -588.0786325219  -0.064657669285 0.05627476  0.00076422  0.2190058 0.7000
                               ***Turning on DIIS***
  3   -588.1207700580  -0.042137536136 0.03421441  0.00043442  0.1506810 0.7000
  4   -588.1520137363  -0.031243678286 0.02192464  0.00032576  0.1058685 0.7000
  5   -588.1740815012  -0.022067764901 0.05016406  0.00083829  0.0745812 0.0000
  6   -588.2255247800  -0.051443278786 0.00296897  0.00009459  0.0007718 0.0000
  7   -588.2255339546  -0.000009174597 0.00079069  0.00001704  0.0011980 0.0000
  8   -588.2255417981  -0.000007843440 0.00102750  0.00001070  0.0000987 0.0000
  9   -588.2255420274  -0.000000229371 0.00016207  0.00000242  0.0000741 0.0000
                 **** Energy Check signals convergence ****

               *****************************************************
               *                     SUCCESS                       *
               *           SCF CONVERGED AFTER  10 CYCLES          *
               *****************************************************


----------------
TOTAL SCF ENERGY
----------------

Total Energy       :         -588.22554207 Eh          -16006.43075 eV

Components:
Nuclear Repulsion  :          390.94405557 Eh           10638.12858 eV
Electronic Energy  :         -979.16959764 Eh          -26644.55934 eV
One Electron Energy:        -1826.10036216 Eh          -49690.71708 eV
Two Electron Energy:          846.93076451 Eh           23046.15775 eV

Virial components:
Potential Energy   :         -813.42508903 Eh          -22134.42196 eV
Kinetic Energy     :          225.19954696 Eh            6127.99121 eV
Virial Ratio       :            3.61201921


DFT components:
N(Alpha)           :       38.000016884764 electrons
N(Beta)            :       38.000016884764 electrons
N(Total)           :       76.000033769528 electrons
E(XC)              :      -42.486347847614 Eh       
DFET-embed. en.    :        0.000000000000 Eh       

---------------
SCF CONVERGENCE
---------------

  Last Energy change         ...   -4.5890e-08  Tolerance :   1.0000e-06
  Last MAX-Density change    ...    4.4521e-05  Tolerance :   1.0000e-05
  Last RMS-Density change    ...    9.5753e-07  Tolerance :   1.0000e-06
  Last DIIS Error            ...    3.9406e-05  Tolerance :   1.0000e-06

             **** THE GBW FILE WAS UPDATED (Ag04N0.gbw) ****
             **** DENSITY FILE WAS UPDATED (Ag04N0.scfp) ****
             **** ENERGY FILE WAS UPDATED (Ag04N0.en.tmp) ****
             **** THE GBW FILE WAS UPDATED (Ag04N0.gbw) ****
             **** DENSITY FILE WAS UPDATED (Ag04N0.scfp) ****
----------------
ORBITAL ENERGIES
----------------

  NO   OCC          E(Eh)            E(eV) 
   0   2.0000      -3.742515      -101.8390 
   1   2.0000      -3.742077      -101.8271 
   2   2.0000      -3.712034      -101.0096 
   3   2.0000      -3.711985      -101.0083 
   4   2.0000      -2.354052       -64.0570 
   5   2.0000      -2.349222       -63.9256 
   6   2.0000      -2.348858       -63.9157 
   7   2.0000      -2.348790       -63.9138 
   8   2.0000      -2.348337       -63.9015 
   9   2.0000      -2.347801       -63.8869 
  10   2.0000      -2.320046       -63.1317 
  11   2.0000      -2.319919       -63.1282 
  12   2.0000      -2.318403       -63.0870 
  13   2.0000      -2.318332       -63.0850 
  14   2.0000      -2.316911       -63.0464 
  15   2.0000      -2.316865       -63.0451 
  16   2.0000      -0.402452       -10.9513 
  17   2.0000      -0.401633       -10.9290 
  18   2.0000      -0.385811       -10.4985 
  19   2.0000      -0.380159       -10.3446 
  20   2.0000      -0.377675       -10.2771 
  21   2.0000      -0.374161       -10.1814 
  22   2.0000      -0.363824        -9.9002 
  23   2.0000      -0.360235        -9.8025 
  24   2.0000      -0.349270        -9.5041 
  25   2.0000      -0.348085        -9.4719 
  26   2.0000      -0.336743        -9.1632 
  27   2.0000      -0.331553        -9.0220 
  28   2.0000      -0.331295        -9.0150 
  29   2.0000      -0.331020        -9.0075 
  30   2.0000      -0.327743        -8.9183 
  31   2.0000      -0.326475        -8.8838 
  32   2.0000      -0.325751        -8.8641 
  33   2.0000      -0.324016        -8.8169 
  34   2.0000      -0.320640        -8.7251 
  35   2.0000      -0.312490        -8.5033 
  36   2.0000      -0.271697        -7.3933 
  37   2.0000      -0.187202        -5.0940 
  38   0.0000      -0.110379        -3.0036 
  39   0.0000      -0.072741        -1.9794 
  40   0.0000      -0.053015        -1.4426 
  41   0.0000      -0.023761        -0.6466 
  42   0.0000      -0.021009        -0.5717 
  43   0.0000      -0.001155        -0.0314 
  44   0.0000       0.003396         0.0924 
  45   0.0000       0.018755         0.5103 
  46   0.0000       0.036601         0.9960 
  47   0.0000       0.044337         1.2065 
  48   0.0000       0.047818         1.3012 
  49   0.0000       0.068164         1.8548 
  50   0.0000       0.070999         1.9320 
  51   0.0000       0.092778         2.5246 
  52   0.0000       0.098808         2.6887 
  53   0.0000       0.125671         3.4197 
  54   0.0000       0.129720         3.5299 
  55   0.0000       0.132699         3.6109 
  56   0.0000       0.134626         3.6634 
  57   0.0000       0.149602         4.0709 
  58   0.0000       0.155607         4.2343 
  59   0.0000       0.157388         4.2827 
  60   0.0000       0.181850         4.9484 
  61   0.0000       0.188006         5.1159 
  62   0.0000       0.211064         5.7433 
  63   0.0000       0.214453         5.8356 
  64   0.0000       0.296758         8.0752 
  65   0.0000       0.310356         8.4452 
  66   0.0000       0.343123         9.3368 
  67   0.0000       0.354402         9.6438 
  68   0.0000       0.354689         9.6516 
  69   0.0000       0.379960        10.3392 
  70   0.0000       0.392126        10.6703 
  71   0.0000       0.423823        11.5328 
  72   0.0000       0.431351        11.7377 
  73   0.0000       0.442100        12.0302 
  74   0.0000       0.518183        14.1005 
  75   0.0000       0.528111        14.3706 
  76   0.0000       0.529243        14.4014 
  77   0.0000       0.529511        14.4087 
  78   0.0000       0.556522        15.1437 
  79   0.0000       0.564569        15.3627 
  80   0.0000       0.578673        15.7465 
  81   0.0000       0.598406        16.2835 
  82   0.0000       0.624159        16.9842 
  83   0.0000       0.637747        17.3540 
  84   0.0000       0.650680        17.7059 
  85   0.0000       0.655095        17.8260 
  86   0.0000       0.712175        19.3793 
  87   0.0000       0.771833        21.0026 
  88   0.0000       1.463413        39.8215 
  89   0.0000       1.515493        41.2386 
  90   0.0000       1.533291        41.7230 
  91   0.0000       1.540062        41.9072 
  92   0.0000       1.541073        41.9347 
  93   0.0000       1.549504        42.1642 
  94   0.0000       1.551707        42.2241 
  95   0.0000       1.565778        42.6070 
  96   0.0000       1.571233        42.7554 
  97   0.0000       1.573936        42.8290 
  98   0.0000       1.580658        43.0119 
  99   0.0000       1.598494        43.4972 
 100   0.0000       1.605506        43.6881 
 101   0.0000       1.607037        43.7297 
 102   0.0000       1.609462        43.7957 
 103   0.0000       1.616678        43.9920 
 104   0.0000       1.620114        44.0855 
 105   0.0000       1.620172        44.0871 
 106   0.0000       1.624631        44.2084 
 107   0.0000       1.624693        44.2101 
 108   0.0000       1.627692        44.2917 
 109   0.0000       1.636864        44.5413 
 110   0.0000       1.641598        44.6701 
 111   0.0000       1.645218        44.7687 
 112   0.0000       1.651983        44.9527 
 113   0.0000       1.652984        44.9800 
 114   0.0000       1.669066        45.4176 
 115   0.0000       1.673905        45.5493 
 116   0.0000       1.678087        45.6631 
 117   0.0000       1.698141        46.2088 
 118   0.0000       1.719366        46.7863 
 119   0.0000       1.727709        47.0133 
 120   0.0000       1.731799        47.1246 
 121   0.0000       1.743276        47.4369 
 122   0.0000       1.747027        47.5390 
 123   0.0000       1.748972        47.5919 
 124   0.0000       1.765873        48.0519 
 125   0.0000       1.856312        50.5128 
 126   0.0000       1.887540        51.3626 
 127   0.0000       1.960253        53.3412 
 128   0.0000       1.985840        54.0374 
 129   0.0000       2.062947        56.1356 
 130   0.0000       2.075630        56.4808 
 131   0.0000       2.090319        56.8805 
 132   0.0000       2.093389        56.9640 
 133   0.0000       2.103659        57.2435 
 134   0.0000       2.107482        57.3475 
 135   0.0000       2.111454        57.4556 
 136   0.0000       2.122756        57.7631 
 137   0.0000       2.132745        58.0349 
 138   0.0000       2.141162        58.2640 
 139   0.0000       2.141535        58.2741 
 140   0.0000       2.146353        58.4052 
 141   0.0000       2.184351        59.4392 
 142   0.0000       2.199869        59.8615 
 143   0.0000       2.203385        59.9572 
 144   0.0000       2.205225        60.0072 
 145   0.0000       2.227250        60.6066 
 146   0.0000       2.257649        61.4338 
 147   0.0000       2.346165        63.8424 
 148   0.0000       2.385919        64.9242 
 149   0.0000       2.499813        68.0234 
 150   0.0000       2.525046        68.7100 
 151   0.0000       2.601526        70.7911 
 152   0.0000       4.723667       128.5375 
 153   0.0000       4.726537       128.6156 
 154   0.0000       4.730720       128.7294 
 155   0.0000       4.745091       129.1205 
 156   0.0000       4.745299       129.1262 
 157   0.0000       4.754248       129.3697 
 158   0.0000       4.758215       129.4776 
 159   0.0000       4.760489       129.5395 
 160   0.0000       4.765441       129.6743 
 161   0.0000       4.765652       129.6800 
 162   0.0000       4.769045       129.7723 
 163   0.0000       4.799023       130.5881 
 164   0.0000       4.800983       130.6414 
 165   0.0000       4.801685       130.6605 
 166   0.0000       4.804977       130.7501 
 167   0.0000       4.819341       131.1409 
 168   0.0000       4.835293       131.5750 
 169   0.0000       4.835743       131.5872 
 170   0.0000       4.841831       131.7529 
 171   0.0000       4.844528       131.8263 
 172   0.0000       4.845083       131.8414 
 173   0.0000       4.855518       132.1254 
 174   0.0000       4.856885       132.1626 
 175   0.0000       4.953371       134.7881 
 176   0.0000       4.976596       135.4201 
 177   0.0000       4.997103       135.9781 
 178   0.0000       4.997736       135.9953 
 179   0.0000       5.035242       137.0159 
 180   0.0000       5.520320       150.2156 
 181   0.0000       5.521157       150.2383 
 182   0.0000       5.521278       150.2416 
 183   0.0000       5.521417       150.2454 
 184   0.0000       5.521653       150.2518 
 185   0.0000       5.521759       150.2547 
 186   0.0000       5.522147       150.2653 
 187   0.0000       5.522637       150.2786 
 188   0.0000       5.523352       150.2980 
 189   0.0000       5.524653       150.3334 
 190   0.0000       5.524818       150.3379 
 191   0.0000       5.525301       150.3511 
 192   0.0000       5.525441       150.3549 
 193   0.0000       5.526193       150.3754 
 194   0.0000       5.526680       150.3886 
 195   0.0000       5.526923       150.3952 
 196   0.0000       5.530414       150.4902 
 197   0.0000       5.539734       150.7438 
 198   0.0000       5.549959       151.0221 
 199   0.0000       5.551438       151.0623 
 200   0.0000       5.552106       151.0805 
 201   0.0000       5.552424       151.0891 
 202   0.0000       5.552720       151.0972 
 203   0.0000       5.552777       151.0988 
 204   0.0000       5.553655       151.1226 
 205   0.0000       5.553694       151.1237 
 206   0.0000       5.554612       151.1487 
 207   0.0000       5.554822       151.1544 
 208   0.0000       5.555017       151.1597 
 209   0.0000       5.555197       151.1646 
 210   0.0000       5.555396       151.1700 
 211   0.0000       5.555465       151.1719 
 212   0.0000       5.555829       151.1818 
 213   0.0000       5.556231       151.1927 
 214   0.0000       5.556491       151.1998 
 215   0.0000       5.558615       151.2576 
 216   0.0000      33.495062       911.4470 
 217   0.0000      33.806339       919.9172 
 218   0.0000      33.837258       920.7586 
 219   0.0000      33.918727       922.9755 
 220   0.0000     110.279197      3000.8495 
 221   0.0000     110.388111      3003.8132 
 222   0.0000     110.388625      3003.8272 
 223   0.0000     110.402464      3004.2038 

                    ********************************
                    * MULLIKEN POPULATION ANALYSIS *
                    ********************************

-----------------------
MULLIKEN ATOMIC CHARGES
-----------------------
   0 Ag:    0.070046
   1 Ag:   -0.069896
   2 Ag:    0.069534
   3 Ag:   -0.069685
Sum of atomic charges:   -0.0000000

--------------------------------
MULLIKEN REDUCED ORBITAL CHARGES
--------------------------------
  0 Ags       :     2.644743  s :     2.644743
      pz      :     2.022595  p :     6.345048
      px      :     2.075751
      py      :     2.246702
      dz2     :     1.992298  d :     9.938185
      dxz     :     1.987804
      dyz     :     1.992716
      dx2y2   :     1.983276
      dxy     :     1.982090
      f0      :     0.000217  f :     0.001954
      f+1     :     0.000223
      f-1     :     0.000180
      f+2     :     0.000312
      f-2     :     0.000311
      f+3     :     0.000303
      f-3     :     0.000407
      g0      :     0.000002  g :     0.000024
      g+1     :     0.000002
      g-1     :     0.000002
      g+2     :     0.000002
      g-2     :     0.000002
      g+3     :     0.000003
      g-3     :     0.000004
      g+4     :     0.000004
      g-4     :     0.000003
  1 Ags       :     3.085001  s :     3.085001
      pz      :     2.006166  p :     6.054299
      px      :     2.012122
      py      :     2.036011
      dz2     :     1.992705  d :     9.929715
      dxz     :     1.993690
      dyz     :     1.984894
      dx2y2   :     1.978665
      dxy     :     1.979761
      f0      :     0.000085  f :     0.000867
      f+1     :     0.000050
      f-1     :     0.000120
      f+2     :     0.000106
      f-2     :     0.000101
      f+3     :     0.000176
      f-3     :     0.000229
      g0      :     0.000001  g :     0.000012
      g+1     :     0.000001
      g-1     :     0.000002
      g+2     :     0.000001
      g-2     :     0.000001
      g+3     :     0.000001
      g-3     :     0.000002
      g+4     :     0.000003
      g-4     :     0.000002
  2 Ags       :     2.644959  s :     2.644959
      pz      :     2.022611  p :     6.345448
      px      :     2.075841
      py      :     2.246996
      dz2     :     1.992283  d :     9.938076
      dxz     :     1.987800
      dyz     :     1.992707
      dx2y2   :     1.983254
      dxy     :     1.982032
      f0      :     0.000218  f :     0.001959
      f+1     :     0.000223
      f-1     :     0.000181
      f+2     :     0.000312
      f-2     :     0.000312
      f+3     :     0.000305
      f-3     :     0.000409
      g0      :     0.000002  g :     0.000024
      g+1     :     0.000002
      g-1     :     0.000002
      g+2     :     0.000002
      g-2     :     0.000002
      g+3     :     0.000003
      g-3     :     0.000004
      g+4     :     0.000004
      g-4     :     0.000003
  3 Ags       :     3.084798  s :     3.084798
      pz      :     2.006181  p :     6.054360
      px      :     2.012110
      py      :     2.036069
      dz2     :     1.992702  d :     9.929643
      dxz     :     1.993687
      dyz     :     1.984870
      dx2y2   :     1.978688
      dxy     :     1.979696
      f0      :     0.000085  f :     0.000871
      f+1     :     0.000050
      f-1     :     0.000120
      f+2     :     0.000106
      f-2     :     0.000102
      f+3     :     0.000177
      f-3     :     0.000230
      g0      :     0.000001  g :     0.000012
      g+1     :     0.000001
      g-1     :     0.000002
      g+2     :     0.000001
      g-2     :     0.000001
      g+3     :     0.000001
      g-3     :     0.000002
      g+4     :     0.000003
      g-4     :     0.000002


                     *******************************
                     * LOEWDIN POPULATION ANALYSIS *
                     *******************************

----------------------
LOEWDIN ATOMIC CHARGES
----------------------
   0 Ag:   -0.069582
   1 Ag:    0.069923
   2 Ag:   -0.070376
   3 Ag:    0.070035

-------------------------------
LOEWDIN REDUCED ORBITAL CHARGES
-------------------------------
  0 Ags       :     2.505656  s :     2.505656
      pz      :     2.042839  p :     6.602478
      px      :     2.144489
      py      :     2.415150
      dz2     :     1.992588  d :     9.958343
      dxz     :     1.993901
      dyz     :     1.994956
      dx2y2   :     1.989117
      dxy     :     1.987782
      f0      :     0.000278  f :     0.003072
      f+1     :     0.000347
      f-1     :     0.000289
      f+2     :     0.000506
      f-2     :     0.000504
      f+3     :     0.000458
      f-3     :     0.000690
      g0      :     0.000003  g :     0.000035
      g+1     :     0.000003
      g-1     :     0.000002
      g+2     :     0.000003
      g-2     :     0.000003
      g+3     :     0.000004
      g-3     :     0.000007
      g+4     :     0.000006
      g-4     :     0.000005
  1 Ags       :     2.834031  s :     2.834031
      pz      :     2.011874  p :     6.150097
      px      :     2.032532
      py      :     2.105691
      dz2     :     1.995989  d :     9.944451
      dxz     :     1.994468
      dyz     :     1.985791
      dx2y2   :     1.983444
      dxy     :     1.984758
      f0      :     0.000145  f :     0.001481
      f+1     :     0.000086
      f-1     :     0.000205
      f+2     :     0.000173
      f-2     :     0.000165
      f+3     :     0.000298
      f-3     :     0.000409
      g0      :     0.000001  g :     0.000017
      g+1     :     0.000001
      g-1     :     0.000002
      g+2     :     0.000001
      g-2     :     0.000001
      g+3     :     0.000002
      g-3     :     0.000002
      g+4     :     0.000004
      g-4     :     0.000003
  2 Ags       :     2.505782  s :     2.505782
      pz      :     2.042846  p :     6.603250
      px      :     2.144641
      py      :     2.415763
      dz2     :     1.992583  d :     9.958229
      dxz     :     1.993888
      dyz     :     1.994932
      dx2y2   :     1.989079
      dxy     :     1.987748
      f0      :     0.000279  f :     0.003080
      f+1     :     0.000348
      f-1     :     0.000291
      f+2     :     0.000506
      f-2     :     0.000505
      f+3     :     0.000460
      f-3     :     0.000692
      g0      :     0.000003  g :     0.000035
      g+1     :     0.000003
      g-1     :     0.000002
      g+2     :     0.000003
      g-2     :     0.000003
      g+3     :     0.000004
      g-3     :     0.000007
      g+4     :     0.000006
      g-4     :     0.000005
  3 Ags       :     2.833814  s :     2.833814
      pz      :     2.011898  p :     6.150241
      px      :     2.032528
      py      :     2.105815
      dz2     :     1.995987  d :     9.944407
      dxz     :     1.994461
      dyz     :     1.985778
      dx2y2   :     1.983450
      dxy     :     1.984730
      f0      :     0.000146  f :     0.001486
      f+1     :     0.000087
      f-1     :     0.000205
      f+2     :     0.000173
      f-2     :     0.000166
      f+3     :     0.000300
      f-3     :     0.000410
      g0      :     0.000001  g :     0.000017
      g+1     :     0.000001
      g-1     :     0.000002
      g+2     :     0.000001
      g-2     :     0.000001
      g+3     :     0.000002
      g-3     :     0.000002
      g+4     :     0.000004
      g-4     :     0.000003


                      *****************************
                      * MAYER POPULATION ANALYSIS *
                      *****************************

  NA   - Mulliken gross atomic population
  ZA   - Total nuclear charge
  QA   - Mulliken gross atomic charge
  VA   - Mayer's total valence
  BVA  - Mayer's bonded valence
  FA   - Mayer's free valence

  ATOM       NA         ZA         QA         VA         BVA        FA
  0 Ag    18.9300    19.0000     0.0700     1.5195     1.5195    -0.0000
  1 Ag    19.0699    19.0000    -0.0699     1.1960     1.1960    -0.0000
  2 Ag    18.9305    19.0000     0.0695     1.5205     1.5205    -0.0000
  3 Ag    19.0697    19.0000    -0.0697     1.1963     1.1963     0.0000

  Mayer bond orders larger than 0.100000
B(  0-Ag,  1-Ag) :   0.5035 B(  0-Ag,  2-Ag) :   0.5121 B(  0-Ag,  3-Ag) :   0.5038 
B(  1-Ag,  2-Ag) :   0.5042 B(  1-Ag,  3-Ag) :   0.1883 B(  2-Ag,  3-Ag) :   0.5042 


-------
TIMINGS
-------

Total SCF time: 0 days 0 hours 0 min 8 sec 

Total time                  ....       8.606 sec
Sum of individual times     ....       8.388 sec  ( 97.5%)

Fock matrix formation       ....       6.529 sec  ( 75.9%)
  XC integration            ....       0.604 sec  (  9.3% of F)
    Basis function eval.    ....       0.055 sec  (  9.2% of XC)
    Density eval.           ....       0.102 sec  ( 16.8% of XC)
    XC-Functional eval.     ....       0.113 sec  ( 18.8% of XC)
    XC-Potential eval.      ....       0.172 sec  ( 28.5% of XC)
Diagonalization             ....       0.077 sec  (  0.9%)
Density matrix formation    ....       0.012 sec  (  0.1%)
Population analysis         ....       0.008 sec  (  0.1%)
Initial guess               ....       1.311 sec  ( 15.2%)
Orbital Transformation      ....       0.000 sec  (  0.0%)
Orbital Orthonormalization  ....       0.000 sec  (  0.0%)
DIIS solution               ....       0.035 sec  (  0.4%)
Grid generation             ....       0.417 sec  (  4.8%)


-------------------------------------------------------------------------------
                          DFT DISPERSION CORRECTION                            
                                                                               
                              DFTD3 V3.1  Rev 1                                
                              USING zero damping                               
-------------------------------------------------------------------------------
The M06 functional is recognized
Active option DFTDOPT                   ...         3   

molecular C6(AA) [au] = 4297.871879 


            DFT-D V3
 parameters
 s6 scaling factor         :     1.0000 
 rs6 scaling factor        :     1.3250 
 s8 scaling factor         :     0.0000 
 rs8 scaling factor        :     1.0000 
 Damping factor alpha6     :    14.0000 
 Damping factor alpha8     :    16.0000 
 ad hoc parameters k1-k3   :    16.0000     1.3333    -4.0000 

 Edisp/kcal,au: -0.116904085074  -0.000186298498 
 E6   /kcal   :  -0.116904085 
 E8   /kcal   :  -0.000000000 
 % E8         :   0.000000000 

-------------------------   ----------------
Dispersion correction           -0.000186298
-------------------------   ----------------


-------------------------   --------------------
FINAL SINGLE POINT ENERGY      -588.225728371812
-------------------------   --------------------


                            ***************************************
                            *     ORCA property calculations      *
                            ***************************************

                                    ---------------------
                                    Active property flags
                                    ---------------------
   (+) Dipole Moment


------------------------------------------------------------------------------
                       ORCA ELECTRIC PROPERTIES CALCULATION
------------------------------------------------------------------------------

Dipole Moment Calculation                       ... on
Quadrupole Moment Calculation                   ... off
Polarizability Calculation                      ... off
GBWName                                         ... Ag04N0.gbw
Electron density file                           ... Ag04N0.scfp
The origin for moment calculation is the CENTER OF MASS  = (-0.000000, -0.000000 -0.000000)

-------------
DIPOLE MOMENT
-------------
                                X             Y             Z
Electronic contribution:     -0.00140       0.00020       0.00078
Nuclear contribution   :      0.00000       0.00000       0.00000
                        -----------------------------------------
Total Dipole Moment    :     -0.00140       0.00020       0.00078
                        -----------------------------------------
Magnitude (a.u.)       :      0.00161
Magnitude (Debye)      :      0.00410



--------------------
Rotational spectrum 
--------------------
 
Rotational constants in cm-1:     0.045790     0.013394     0.010363 
Rotational constants in MHz :  1372.764620   401.554164   310.676613 

 Dipole components along the rotational axes: 
x,y,z [a.u.] :    -0.000731    -0.001436     0.000027 
x,y,z [Debye]:    -0.001857    -0.003649     0.000068 

 

Timings for individual modules:

Sum of individual times         ...       10.291 sec (=   0.172 min)
GTO integral calculation        ...        1.330 sec (=   0.022 min)  12.9 %
SCF iterations                  ...        8.961 sec (=   0.149 min)  87.1 %
                             ****ORCA TERMINATED NORMALLY****
TOTAL RUN TIME: 0 days 0 hours 0 minutes 10 seconds 792 msec
