
                                 *****************
                                 * O   R   C   A *
                                 *****************

           --- An Ab Initio, DFT and Semiempirical electronic structure package ---

                  #######################################################
                  #                        -***-                        #
                  #          Department of theory and spectroscopy      #
                  #               Directorship: Frank Neese             #
                  #        Max Planck Institute fuer Kohlenforschung    #
                  #                Kaiser Wilhelm Platz 1               #
                  #                 D-45470 Muelheim/Ruhr               #
                  #                      Germany                        #
                  #                                                     #
                  #                  All rights reserved                #
                  #                        -***-                        #
                  #######################################################


                         Program Version 4.2.0 -  RELEASE  -


 With contributions from (in alphabetic order):
   Daniel Aravena         : Magnetic Suceptibility
   Michael Atanasov       : Ab Initio Ligand Field Theory (pilot matlab implementation)
   Alexander A. Auer      : GIAO ZORA, VPT2
   Ute Becker             : Parallelization
   Giovanni Bistoni       : ED, misc. LED, open-shell LED, HFLED
   Martin Brehm           : Molecular dynamics
   Dmytro Bykov           : SCF Hessian
   Vijay G. Chilkuri      : MRCI spin determinant printing, contributions to CSF-ICE
   Dipayan Datta          : RHF DLPNO-CCSD density
   Achintya Kumar Dutta   : EOM-CC, STEOM-CC
   Dmitry Ganyushin       : Spin-Orbit,Spin-Spin,Magnetic field MRCI
   Miquel Garcia          : C-PCM Hessian, Gaussian charge scheme
   Yang Guo               : DLPNO-NEVPT2, CIM, IAO-localization
   Andreas Hansen         : Spin unrestricted coupled pair/coupled cluster methods
   Benjamin Helmich-Paris : CASSCF linear response (MC-RPA)
   Lee Huntington         : MR-EOM, pCC
   Robert Izsak           : Overlap fitted RIJCOSX, COSX-SCS-MP3, EOM
   Christian Kollmar      : KDIIS, OOCD, Brueckner-CCSD(T), CCSD density
   Simone Kossmann        : Meta GGA functionals, TD-DFT gradient, OOMP2, MP2 Hessian
   Martin Krupicka        : AUTO-CI
   Lucas Lang             : DCDCAS
   Dagmar Lenk            : GEPOL surface, SMD
   Dimitrios Liakos       : Extrapolation schemes; Compound Job, initial MDCI parallelization
   Dimitrios Manganas     : Further ROCIS development; embedding schemes
   Dimitrios Pantazis     : SARC Basis sets
   Taras Petrenko         : DFT Hessian,TD-DFT gradient, ASA, ECA, R-Raman, ABS, FL, XAS/XES, NRVS
   Peter Pinski           : DLPNO-MP2, DLPNO-MP2 Gradient
   Christoph Reimann      : Effective Core Potentials
   Marius Retegan         : Local ZFS, SOC
   Christoph Riplinger    : Optimizer, TS searches, QM/MM, DLPNO-CCSD(T), (RO)-DLPNO pert. Triples
   Tobias Risthaus        : Range-separated hybrids, TD-DFT gradient, RPA, STAB
   Michael Roemelt        : Original ROCIS implementation
   Masaaki Saitow         : Open-shell DLPNO-CCSD energy and density
   Barbara Sandhoefer     : DKH picture change effects
   Avijit Sen             : IP-ROCIS
   Kantharuban Sivalingam : CASSCF convergence, NEVPT2, FIC-MRCI
   Bernardo de Souza      : ESD, SOC TD-DFT
   Georgi Stoychev        : AutoAux, RI-MP2 NMR
   Willem Van den Heuvel  : Paramagnetic NMR
   Boris Wezisla          : Elementary symmetry handling
   Frank Wennmohs         : Technical directorship


 We gratefully acknowledge several colleagues who have allowed us to
 interface, adapt or use parts of their codes:
   Stefan Grimme, W. Hujo, H. Kruse,             : VdW corrections, initial TS optimization,
                  C. Bannwarth                     DFT functionals, gCP, sTDA/sTD-DF
   Ed Valeev, F. Pavosevic, A. Kumar             : LibInt (2-el integral package), F12 methods
   Garnet Chan, S. Sharma, J. Yang, R. Olivares  : DMRG
   Ulf Ekstrom                                   : XCFun DFT Library
   Mihaly Kallay                                 : mrcc  (arbitrary order and MRCC methods)
   Andreas Klamt, Michael Diedenhofen            : otool_cosmo (COSMO solvation model)
   Jiri Pittner, Ondrej Demel                    : Mk-CCSD
   Frank Weinhold                                : gennbo (NPA and NBO analysis)
   Christopher J. Cramer and Donald G. Truhlar   : smd solvation model
   Lars Goerigk                                  : TD-DFT with DH, B97 family of functionals
   V. Asgeirsson, H. Jonsson                     : NEB implementation
   FAccTs GmbH                                   : IRC, NEB, NEB-TS, Multilevel, MM, QM/MM, CI optimization
   S Lehtola, MJT Oliveira, MAL Marques          : LibXC Library


 Your calculation uses the libint2 library for the computation of 2-el integrals
 For citations please refer to: http://libint.valeyev.net

 Your ORCA version has been built with support for libXC version: 4.2.3
 For citations please refer to: https://tddft.org/programs/libxc/

 This ORCA versions uses:
   CBLAS   interface :  Fast vector & matrix operations
   LAPACKE interface :  Fast linear algebra routines
   SCALAPACK package :  Parallel linear algebra routines


Your calculation utilizes the atom-pairwise dispersion correction
with the zero-damping scheme (D30)
Cite in your paper:
S.Grimme, J.Antony, S.Ehrlich and H.Krieg, J.Chem.Phys., 132, (2010), 154104 
   

XCFun DFT library Copyright 2009-2010 Ulf Ekstrom and contributors.
See http://admol.org/xcfun for more information. This is free soft-
ware; see the source code for copying conditions. There is ABSOLUTELY
NO WARRANTY; not even for MERCHANTABILITY or FITNESS FOR A PARTICULAR
PURPOSE. For details see the documentation. Scientific users of this 
library should cite U. Ekstrom, L. Visscher, R. Bast, A. J. Thorvald-
sen and K. Ruud; J.Chem.Theor.Comp. 2010, DOI: 10.1021/ct100117s
XCFun Version 0.99 
----- Orbital basis set information -----
Your calculation utilizes the basis: def2-TZVPPD
   F. Weigend and R. Ahlrichs, Phys. Chem. Chem. Phys. 7, 3297 (2005).
   D. Rappoport and F. Furche, J. Chem. Phys. 133 134105 (2010).

----- AuxJK basis set information -----
Your calculation utilizes the auxiliary basis: def2/JK
   H-Ba, Hf-Rn: F. Weigend, J. Comput. Chem. 29, 167 (2008).

cite the ECPs for Au [Def2-ECP] as follows:
Ce-Yb(ecp-28): M. Dolg, H. Stoll, H.Preuss, J. Chem. Phys., 1989, 90, 1730-1734.
Y-Cd(ecp-28), Hf-Hg(ecp-46): D. Andrae,U. Haeussermann, M. Dolg, H. Stoll, H. Preuss, Theor. Chim. Acta, 1990, 77, 123-141.
In-Sb(ecp-28), Tl-Bi(ecp-46): B. Metz, H. Stoll, M. Dolg, J. Chem. Phys., 2000, 113, 2563-2569.
Te-Xe(ecp-28), Po-Rn(ecp-46): K. A. Peterson, D. Figgen, E. Goll, H. Stoll, M. Dolg, J. Chem. Phys., 2003, 119, 11113-11123.
Rb(ecp-28), Cs(ecp-46): T. Leininger, A. Nicklass, W. Kuechle, H. Stoll, M. Dolg, A. Bergner, Chem. Phys. Lett., 1996, 255, 274-280.
Sr(ecp-28), Ba(ecp-46): M. Kaupp, P. V. Schleyer, H. Stoll and H. Preuss, J. Chem. Phys., 1991, 94, 1360-1366.
La(ecp-46): M. Dolg, H. Stoll, A. Savin, H. Preuss, Theor. Chim. Acta, 1989, 75, 173-194.
Lu(ecp-28): X. Cao, M. Dolg, J. Chem. Phys., 2001, 115, 7348-7355.

ECP parameters for Au [Def2-ECP] have been obtained from:
TURBOMOLE (7.0.2)

================================================================================
                                        WARNINGS
                       Please study these warnings very carefully!
================================================================================


WARNING: Minnesota functionals are quite sensitive to the integration grid.
         see SE Wheeler, KN Houk, JCTC 2010, 6, 395,
             N Mardirossian, M Head-Gordon, JCTC 2016, 12, 4303.
         Grid6 seems to be a minimum grid for reliable results with these functionals!
  ===> : Please increase the integration grid!


INFO   : the flag for use of LIBINT has been found!

================================================================================
                                       INPUT FILE
================================================================================
NAME = Au04N0.in
|  1> #
|  2> # Au04N0 M06-D3BJ/Def2-TZVPPD
|  3> #
|  4> ! m06 d3zero def2-tzvppd def2/jk grid4 nofinalgrid
|  5> 
|  6> *xyz 0 1
|  7> Au      -0.788661   -0.016684    2.209526 
|  8> Au      -1.223332   -0.011467   -0.436740 
|  9> Au       0.788385    0.016579   -2.209564 
| 10> Au       1.223608    0.011572    0.436778 
| 11> *
| 12> 
| 13> %maxcore 5000
| 14> 
| 15> %pal
| 16> nprocs = 24
| 17> end
| 18> 
| 19> 
| 20>                          ****END OF INPUT****
================================================================================

                       ****************************
                       * Single Point Calculation *
                       ****************************

---------------------------------
CARTESIAN COORDINATES (ANGSTROEM)
---------------------------------
  Au    -0.788661   -0.016684    2.209526
  Au    -1.223332   -0.011467   -0.436740
  Au     0.788385    0.016579   -2.209564
  Au     1.223608    0.011572    0.436778

----------------------------
CARTESIAN COORDINATES (A.U.)
----------------------------
  NO LB      ZA    FRAG     MASS         X           Y           Z
   0 Au   19.0000*   0   196.966   -1.490353   -0.031528    4.175399
   1 Au   19.0000*   0   196.966   -2.311762   -0.021669   -0.825319
   2 Au   19.0000*   0   196.966    1.489832    0.031330   -4.175471
   3 Au   19.0000*   0   196.966    2.312284    0.021868    0.825391
* core charge reduced due to ECP

--------------------------------
INTERNAL COORDINATES (ANGSTROEM)
--------------------------------
 Au     0   0   0     0.000000000000     0.00000000     0.00000000
 Au     1   0   0     2.681732618679     0.00000000     0.00000000
 Au     2   1   0     2.681547463906   122.05942715     0.00000000
 Au     2   1   3     2.598284021320    61.02868748     0.00000000

---------------------------
INTERNAL COORDINATES (A.U.)
---------------------------
 Au     0   0   0     0.000000000000     0.00000000     0.00000000
 Au     1   0   0     5.067740213706     0.00000000     0.00000000
 Au     2   1   0     5.067390321894   122.05942715     0.00000000
 Au     2   1   3     4.910045218438    61.02868748     0.00000000

---------------------
BASIS SET INFORMATION
---------------------
There are 1 groups of distinct atoms

 Group   1 Type Au  : 8s8p6d2f1g contracted to 6s5p3d2f1g pattern {311111/41111/411/11/1}

Atom   0Au   basis set group =>   1
Atom   1Au   basis set group =>   1
Atom   2Au   basis set group =>   1
Atom   3Au   basis set group =>   1
----------------------------------
AUXILIARY/JK BASIS SET INFORMATION
----------------------------------
There are 1 groups of distinct atoms

 Group   1 Type Au  : 13s12p11d9f5g3h2i contracted to 13s11p10d8f4g3h2i pattern {1111111111111/21111111111/2111111111/21111111/2111/111/11}

Atom   0Au   basis set group =>   1
Atom   1Au   basis set group =>   1
Atom   2Au   basis set group =>   1
Atom   3Au   basis set group =>   1
-------------------------
ECP PARAMETER INFORMATION
-------------------------

 Group 1, Type Au ECP Def2-ECP (replacing 60 core electrons, lmax=3)

Atom   0Au   ECP group =>   1
Atom   1Au   ECP group =>   1
Atom   2Au   ECP group =>   1
Atom   3Au   ECP group =>   1



           ************************************************************
           *        Program running with 24 parallel MPI-processes    *
           *              working on a common directory               *
           ************************************************************
------------------------------------------------------------------------------
                           ORCA GTO INTEGRAL CALCULATION
------------------------------------------------------------------------------

                         BASIS SET STATISTICS AND STARTUP INFO

 # of primitive gaussian shells          ...  100
 # of primitive gaussian functions       ...  340
 # of contracted shells                  ...   68
 # of contracted basis functions         ...  236
 Highest angular momentum                ...    4
 Maximum contraction depth               ...    4
 Integral package used                   ... LIBINT
 Integral threshhold            Thresh   ...  1.000e-10
 Primitive cut-off              TCut     ...  1.000e-11


------------------------------ INTEGRAL EVALUATION ----------------------------


 * One electron integrals 

   ECP integrals                         ... done
 Pre-screening matrix                    ... done
 Shell pair data                         ... done (   0.001 sec)



           ************************************************************
           *        Program running with 24 parallel MPI-processes    *
           *              working on a common directory               *
           ************************************************************
-------------------------------------------------------------------------------
                                 ORCA SCF
-------------------------------------------------------------------------------

------------
SCF SETTINGS
------------
Hamiltonian:
 Density Functional     Method          .... DFT(GTOs)
 Exchange Functional    Exchange        .... M06
 Correlation Functional Correlation     .... M06
 Gradients option       PostSCFGGA      .... off
 Hybrid DFT is turned on
   Fraction HF Exchange ScalHFX         ....  0.270000
   Scaling of DF-GGA-X  ScalDFX         ....  0.730000
   Scaling of DF-GGA-C  ScalDFC         ....  1.000000
   Scaling of DF-LDA-C  ScalLDAC        ....  1.000000
   Perturbative correction              ....  0.000000
   Density functional embedding theory  .... OFF


General Settings:
 Integral files         IntName         .... Au04N0
 Hartree-Fock type      HFTyp           .... RHF
 Total Charge           Charge          ....    0
 Multiplicity           Mult            ....    1
 Number of Electrons    NEL             ....   76
 Basis Dimension        Dim             ....  236
 Nuclear Repulsion      ENuc            ....    399.1711911408 Eh

Convergence Acceleration:
 DIIS                   CNVDIIS         .... on
   Start iteration      DIISMaxIt       ....    12
   Startup error        DIISStart       ....  0.200000
   # of expansion vecs  DIISMaxEq       ....     5
   Bias factor          DIISBfac        ....   1.050
   Max. coefficient     DIISMaxC        ....  10.000
 Newton-Raphson         CNVNR           .... off
 SOSCF                  CNVSOSCF        .... off
 Level Shifting         CNVShift        .... on
   Level shift para.    LevelShift      ....    0.2500
   Turn off err/grad.   ShiftErr        ....    0.0010
 Zerner damping         CNVZerner       .... off
 Static damping         CNVDamp         .... on
   Fraction old density DampFac         ....    0.7000
   Max. Damping (<1)    DampMax         ....    0.9800
   Min. Damping (>=0)   DampMin         ....    0.0000
   Turn off err/grad.   DampErr         ....    0.1000
 Fernandez-Rico         CNVRico         .... off

SCF Procedure:
 Maximum # iterations   MaxIter         ....   125
 SCF integral mode      SCFMode         .... Direct
   Integral package                     .... LIBINT
 Reset frequency        DirectResetFreq ....    20
 Integral Threshold     Thresh          ....  1.000e-10 Eh
 Primitive CutOff       TCut            ....  1.000e-11 Eh

Convergence Tolerance:
 Convergence Check Mode ConvCheckMode   .... Total+1el-Energy
 Convergence forced     ConvForced      .... 0
 Energy Change          TolE            ....  1.000e-06 Eh
 1-El. energy change                    ....  1.000e-03 Eh
 DIIS Error             TolErr          ....  1.000e-06


Diagonalization of the overlap matrix:
Smallest eigenvalue                        ... 1.356e-03
Time for diagonalization                   ...    0.009 sec
Threshold for overlap eigenvalues          ... 1.000e-08
Number of eigenvalues below threshold      ... 0
Time for construction of square roots      ...    0.007 sec
Total time needed                          ...    0.017 sec

-------------------
DFT GRID GENERATION
-------------------

General Integration Accuracy     IntAcc      ...  4.670
Radial Grid Type                 RadialGrid  ... Gauss-Chebyshev
Angular Grid (max. acc.)         AngularGrid ... Lebedev-302
Angular grid pruning method      GridPruning ... 3 (G Style)
Weight generation scheme         WeightScheme... Becke
Basis function cutoff            BFCut       ...    1.0000e-10
Integration weight cutoff        WCut        ...    1.0000e-14
Grids for H and He will be reduced by one unit

# of grid points (after initial pruning)     ...  46608 (   0.0 sec)
# of grid points (after weights+screening)   ...  46120 (   0.0 sec)
nearest neighbour list constructed           ...    0.0 sec
Grid point re-assignment to atoms done       ...    0.0 sec
Grid point division into batches done        ...    0.5 sec
Reduced shell lists constructed in    0.6 sec

Total number of grid points                  ...    46120
Total number of batches                      ...      724
Average number of points per batch           ...       63
Average number of grid points per atom       ...    11530
Average number of shells per batch           ...     6.50 ( 9.56%)
Average number of basis functions per batch  ...    16.62 ( 7.04%)
Average number of large shells per batch     ...     4.41 (67.79%)
Average number of large basis fcns per batch ...    11.53 (69.36%)
Maximum spatial batch extension              ...  27.27, 32.41, 25.00 au
Average spatial batch extension              ...   0.67,  0.68,  0.56 au

Time for grid setup =    0.606 sec

------------------------------
INITIAL GUESS: MODEL POTENTIAL
------------------------------
Loading Hartree-Fock densities                     ... done
  calling /sw/apps/orca/orca_4_2_0_linux_x86-64_openmpi314/orca Au04N0_atom79.inp > Au04N0_atom79.out in order to generate an atomic fitting density for atom 0 (Au with ECP) on-the-fly... 
    atom 0 (Au), assumed electronic state with S=2: 1s2 2s2 2p6 3s2 3p6 4s2 3d10 4p6 5s2 4d10 5p6 6s1 4f14 5d10           ... done
Calculating cut-offs                               ... done
Setting up the integral package                    ... done
Initializing the effective Hamiltonian             ... done
Starting the Coulomb interaction                   ... done (   0.0 sec)
Reading the grid                                   ... done
Mapping shells                                     ... done
Starting the XC term evaluation                    ... done (   0.0 sec)
  promolecular density results
     # of electrons  =    316.009399453
     EX              =  -1463.244392310
     EC              =    -19.318832012
     EX+EC           =  -1482.563224322
Transforming the Hamiltonian                       ... done (   0.0 sec)
Diagonalizing the Hamiltonian                      ... done (   0.0 sec)
Back transforming the eigenvectors                 ... done (   0.0 sec)
Now organizing SCF variables                       ... done
                      ------------------
                      INITIAL GUESS DONE (   1.9 sec)
                      ------------------
--------------
SCF ITERATIONS
--------------
ITER       Energy         Delta-E        Max-DP      RMS-DP      [F,P]     Damp
               ***  Starting incremental Fock matrix formation  ***
  0   -542.6606743918   0.000000000000 0.25255338  0.00336571  0.5985417 0.7000
  1   -542.8812760128  -0.220601620985 0.17054226  0.00230365  0.4116449 0.7000
  2   -542.9655517585  -0.084275745640 0.10739934  0.00141928  0.2832877 0.7000
                               ***Turning on DIIS***
  3   -543.0238036145  -0.058251856031 0.07085414  0.00094123  0.1970338 0.7000
  4   -543.0669306714  -0.043127056862 0.04882712  0.00067674  0.1378411 0.7000
  5   -543.0972616947  -0.030331023301 0.11769788  0.00167014  0.0963384 0.0000
  6   -543.1683380803  -0.071076385683 0.01068614  0.00015397  0.0009478 0.0000
  7   -543.1684227918  -0.000084711413 0.00090912  0.00002038  0.0010260 0.0000
  8   -543.1684320392  -0.000009247398 0.00175289  0.00002913  0.0002793 0.0000
  9   -543.1684353743  -0.000003335132 0.00012320  0.00000349  0.0000567 0.0000
 10   -543.1684353840  -0.000000009759 0.00012248  0.00000184  0.0000873 0.0000
                 **** Energy Check signals convergence ****

               *****************************************************
               *                     SUCCESS                       *
               *           SCF CONVERGED AFTER  11 CYCLES          *
               *****************************************************


----------------
TOTAL SCF ENERGY
----------------

Total Energy       :         -543.16843543 Eh          -14780.36455 eV

Components:
Nuclear Repulsion  :          399.17119114 Eh           10862.00032 eV
Electronic Energy  :         -942.33962657 Eh          -25642.36487 eV
One Electron Energy:        -1752.16151052 Eh          -47678.73864 eV
Two Electron Energy:          809.82188395 Eh           22036.37377 eV

Virial components:
Potential Energy   :         -727.13129736 Eh          -19786.24851 eV
Kinetic Energy     :          183.96286194 Eh            5005.88397 eV
Virial Ratio       :            3.95259831


DFT components:
N(Alpha)           :       37.999979590758 electrons
N(Beta)            :       37.999979590758 electrons
N(Total)           :       75.999959181517 electrons
E(XC)              :      -38.745618943052 Eh       
DFET-embed. en.    :        0.000000000000 Eh       

---------------
SCF CONVERGENCE
---------------

  Last Energy change         ...   -4.3017e-08  Tolerance :   1.0000e-06
  Last MAX-Density change    ...    3.5974e-05  Tolerance :   1.0000e-05
  Last RMS-Density change    ...    6.5913e-07  Tolerance :   1.0000e-06
  Last DIIS Error            ...    1.4597e-05  Tolerance :   1.0000e-06

             **** THE GBW FILE WAS UPDATED (Au04N0.gbw) ****
             **** DENSITY FILE WAS UPDATED (Au04N0.scfp) ****
             **** ENERGY FILE WAS UPDATED (Au04N0.en.tmp) ****
             **** THE GBW FILE WAS UPDATED (Au04N0.gbw) ****
             **** DENSITY FILE WAS UPDATED (Au04N0.scfp) ****
----------------
ORBITAL ENERGIES
----------------

  NO   OCC          E(Eh)            E(eV) 
   0   2.0000      -4.163171      -113.2856 
   1   2.0000      -4.162791      -113.2753 
   2   2.0000      -4.137449      -112.5857 
   3   2.0000      -4.137441      -112.5855 
   4   2.0000      -2.355521       -64.0970 
   5   2.0000      -2.348933       -63.9177 
   6   2.0000      -2.347816       -63.8873 
   7   2.0000      -2.347488       -63.8784 
   8   2.0000      -2.346956       -63.8639 
   9   2.0000      -2.346300       -63.8461 
  10   2.0000      -2.325499       -63.2800 
  11   2.0000      -2.324985       -63.2660 
  12   2.0000      -2.322731       -63.2047 
  13   2.0000      -2.322516       -63.1989 
  14   2.0000      -2.318751       -63.0964 
  15   2.0000      -2.318736       -63.0960 
  16   2.0000      -0.413323       -11.2471 
  17   2.0000      -0.411084       -11.1862 
  18   2.0000      -0.382043       -10.3959 
  19   2.0000      -0.378933       -10.3113 
  20   2.0000      -0.378130       -10.2895 
  21   2.0000      -0.365277        -9.9397 
  22   2.0000      -0.349662        -9.5148 
  23   2.0000      -0.348368        -9.4796 
  24   2.0000      -0.327712        -8.9175 
  25   2.0000      -0.321375        -8.7450 
  26   2.0000      -0.320472        -8.7205 
  27   2.0000      -0.314117        -8.5476 
  28   2.0000      -0.312182        -8.4949 
  29   2.0000      -0.310481        -8.4486 
  30   2.0000      -0.308303        -8.3893 
  31   2.0000      -0.299941        -8.1618 
  32   2.0000      -0.298491        -8.1223 
  33   2.0000      -0.297234        -8.0882 
  34   2.0000      -0.295752        -8.0478 
  35   2.0000      -0.294860        -8.0236 
  36   2.0000      -0.276355        -7.5200 
  37   2.0000      -0.224228        -6.1016 
  38   0.0000      -0.140388        -3.8201 
  39   0.0000      -0.098662        -2.6847 
  40   0.0000      -0.055248        -1.5034 
  41   0.0000      -0.026449        -0.7197 
  42   0.0000      -0.022213        -0.6044 
  43   0.0000      -0.003277        -0.0892 
  44   0.0000       0.007065         0.1923 
  45   0.0000       0.024394         0.6638 
  46   0.0000       0.025445         0.6924 
  47   0.0000       0.046359         1.2615 
  48   0.0000       0.047412         1.2901 
  49   0.0000       0.050545         1.3754 
  50   0.0000       0.054354         1.4791 
  51   0.0000       0.099493         2.7073 
  52   0.0000       0.120303         3.2736 
  53   0.0000       0.127732         3.4758 
  54   0.0000       0.145845         3.9686 
  55   0.0000       0.150166         4.0862 
  56   0.0000       0.156411         4.2562 
  57   0.0000       0.169565         4.6141 
  58   0.0000       0.179926         4.8960 
  59   0.0000       0.197037         5.3617 
  60   0.0000       0.208426         5.6716 
  61   0.0000       0.209704         5.7063 
  62   0.0000       0.215406         5.8615 
  63   0.0000       0.229582         6.2472 
  64   0.0000       0.278372         7.5749 
  65   0.0000       0.282778         7.6948 
  66   0.0000       0.302182         8.2228 
  67   0.0000       0.307056         8.3554 
  68   0.0000       0.312743         8.5102 
  69   0.0000       0.319351         8.6900 
  70   0.0000       0.326914         8.8958 
  71   0.0000       0.333405         9.0724 
  72   0.0000       0.338900         9.2219 
  73   0.0000       0.368426        10.0254 
  74   0.0000       0.414414        11.2768 
  75   0.0000       0.427364        11.6292 
  76   0.0000       0.431709        11.7474 
  77   0.0000       0.440705        11.9922 
  78   0.0000       0.447986        12.1903 
  79   0.0000       0.451159        12.2767 
  80   0.0000       0.453178        12.3316 
  81   0.0000       0.454718        12.3735 
  82   0.0000       0.495238        13.4761 
  83   0.0000       0.508276        13.8309 
  84   0.0000       0.530923        14.4472 
  85   0.0000       0.531583        14.4651 
  86   0.0000       0.552015        15.0211 
  87   0.0000       0.619872        16.8676 
  88   0.0000       0.809500        22.0276 
  89   0.0000       0.847540        23.0627 
  90   0.0000       0.897280        24.4162 
  91   0.0000       0.914336        24.8803 
  92   0.0000       0.940021        25.5793 
  93   0.0000       0.952687        25.9239 
  94   0.0000       0.963770        26.2255 
  95   0.0000       0.973008        26.4769 
  96   0.0000       1.008050        27.4304 
  97   0.0000       1.021081        27.7850 
  98   0.0000       1.058413        28.8009 
  99   0.0000       1.076600        29.2958 
 100   0.0000       1.083191        29.4751 
 101   0.0000       1.087972        29.6052 
 102   0.0000       1.095231        29.8028 
 103   0.0000       1.096104        29.8265 
 104   0.0000       1.111113        30.2349 
 105   0.0000       1.121810        30.5260 
 106   0.0000       1.157229        31.4898 
 107   0.0000       1.159520        31.5521 
 108   0.0000       1.159528        31.5524 
 109   0.0000       1.160089        31.5676 
 110   0.0000       1.164364        31.6839 
 111   0.0000       1.260097        34.2890 
 112   0.0000       1.272308        34.6213 
 113   0.0000       1.276532        34.7362 
 114   0.0000       1.301231        35.4083 
 115   0.0000       1.308834        35.6152 
 116   0.0000       1.314227        35.7619 
 117   0.0000       1.315453        35.7953 
 118   0.0000       1.320460        35.9315 
 119   0.0000       1.348772        36.7020 
 120   0.0000       1.353017        36.8175 
 121   0.0000       1.357571        36.9414 
 122   0.0000       1.358442        36.9651 
 123   0.0000       1.370013        37.2800 
 124   0.0000       1.402816        38.1726 
 125   0.0000       1.410124        38.3714 
 126   0.0000       1.420842        38.6631 
 127   0.0000       1.441607        39.2281 
 128   0.0000       1.442127        39.2423 
 129   0.0000       1.456069        39.6216 
 130   0.0000       1.463109        39.8132 
 131   0.0000       1.481359        40.3098 
 132   0.0000       1.491068        40.5740 
 133   0.0000       1.508949        41.0606 
 134   0.0000       1.513746        41.1911 
 135   0.0000       1.522948        41.4415 
 136   0.0000       1.546963        42.0950 
 137   0.0000       1.560226        42.4559 
 138   0.0000       1.594991        43.4019 
 139   0.0000       1.604130        43.6506 
 140   0.0000       1.611423        43.8490 
 141   0.0000       1.639538        44.6141 
 142   0.0000       1.649451        44.8838 
 143   0.0000       1.806510        49.1576 
 144   0.0000       1.809938        49.2509 
 145   0.0000       1.850596        50.3573 
 146   0.0000       1.970479        53.6194 
 147   0.0000       2.045941        55.6729 
 148   0.0000       2.057663        55.9919 
 149   0.0000       2.528366        68.8003 
 150   0.0000       2.570197        69.9386 
 151   0.0000       2.631932        71.6185 
 152   0.0000       3.369996        91.7022 
 153   0.0000       3.423069        93.1464 
 154   0.0000       3.434327        93.4528 
 155   0.0000       3.436886        93.5224 
 156   0.0000       3.460778        94.1726 
 157   0.0000       3.492824        95.0446 
 158   0.0000       3.526513        95.9613 
 159   0.0000       3.553401        96.6930 
 160   0.0000       3.553812        96.7041 
 161   0.0000       3.558327        96.8270 
 162   0.0000       3.562483        96.9401 
 163   0.0000       3.583379        97.5087 
 164   0.0000       3.584220        97.5316 
 165   0.0000       3.585466        97.5655 
 166   0.0000       3.588469        97.6472 
 167   0.0000       3.657387        99.5226 
 168   0.0000       3.704453       100.8033 
 169   0.0000       3.709114       100.9301 
 170   0.0000       3.731472       101.5385 
 171   0.0000       3.741972       101.8242 
 172   0.0000       3.747337       101.9702 
 173   0.0000       3.754820       102.1739 
 174   0.0000       3.766348       102.4875 
 175   0.0000       3.793104       103.2156 
 176   0.0000       3.825764       104.1043 
 177   0.0000       3.877994       105.5256 
 178   0.0000       3.900888       106.1486 
 179   0.0000       3.927344       106.8685 
 180   0.0000       4.071755       110.7981 
 181   0.0000       4.074417       110.8705 
 182   0.0000       4.075336       110.8955 
 183   0.0000       4.076736       110.9336 
 184   0.0000       4.078293       110.9760 
 185   0.0000       4.080439       111.0344 
 186   0.0000       4.082691       111.0957 
 187   0.0000       4.085787       111.1799 
 188   0.0000       4.088536       111.2547 
 189   0.0000       4.089300       111.2755 
 190   0.0000       4.091044       111.3230 
 191   0.0000       4.091078       111.3239 
 192   0.0000       4.091187       111.3268 
 193   0.0000       4.093660       111.3942 
 194   0.0000       4.103729       111.6682 
 195   0.0000       4.104446       111.6877 
 196   0.0000       4.105137       111.7065 
 197   0.0000       4.105533       111.7172 
 198   0.0000       4.109478       111.8246 
 199   0.0000       4.109857       111.8349 
 200   0.0000       4.110035       111.8397 
 201   0.0000       4.110706       111.8580 
 202   0.0000       4.111335       111.8751 
 203   0.0000       4.123463       112.2051 
 204   0.0000       4.125726       112.2667 
 205   0.0000       4.126143       112.2781 
 206   0.0000       4.127711       112.3207 
 207   0.0000       4.130155       112.3872 
 208   0.0000       4.130313       112.3915 
 209   0.0000       4.136587       112.5623 
 210   0.0000       4.152160       112.9860 
 211   0.0000       4.217602       114.7668 
 212   0.0000       4.248686       115.6126 
 213   0.0000       4.254184       115.7622 
 214   0.0000       4.254599       115.7735 
 215   0.0000       4.386353       119.3587 
 216   0.0000      27.130062       738.2465 
 217   0.0000      27.308967       743.1148 
 218   0.0000      27.407045       745.7836 
 219   0.0000      27.468423       747.4538 
 220   0.0000      27.511788       748.6338 
 221   0.0000      27.523131       748.9425 
 222   0.0000      27.612610       751.3773 
 223   0.0000      28.101733       764.6870 
 224   0.0000      29.102466       791.9184 
 225   0.0000      29.493923       802.5704 
 226   0.0000      29.710791       808.4717 
 227   0.0000      29.787676       810.5639 
 228   0.0000      44.005758      1197.4575 
 229   0.0000      44.492072      1210.6908 
 230   0.0000      44.526191      1211.6193 
 231   0.0000      44.610595      1213.9160 
 232   0.0000     204.567516      5566.5651 
 233   0.0000     204.790526      5572.6335 
 234   0.0000     204.797498      5572.8232 
 235   0.0000     204.824937      5573.5699 

                    ********************************
                    * MULLIKEN POPULATION ANALYSIS *
                    ********************************

-----------------------
MULLIKEN ATOMIC CHARGES
-----------------------
   0 Au:    0.048950
   1 Au:   -0.049053
   2 Au:    0.048991
   3 Au:   -0.048889
Sum of atomic charges:    0.0000000

--------------------------------
MULLIKEN REDUCED ORBITAL CHARGES
--------------------------------
  0 Aus       :     3.025571  s :     3.025571
      pz      :     2.037138  p :     6.065605
      px      :     2.018180
      py      :     2.010287
      dz2     :     1.954748  d :     9.853310
      dxz     :     1.937203
      dyz     :     1.987706
      dx2y2   :     1.979901
      dxy     :     1.993752
      f0      :     0.001834  f :     0.006455
      f+1     :     0.001727
      f-1     :     0.000893
      f+2     :     0.000829
      f-2     :     0.000621
      f+3     :     0.000281
      f-3     :     0.000270
      g0      :     0.000026  g :     0.000108
      g+1     :     0.000021
      g-1     :     0.000014
      g+2     :     0.000014
      g-2     :     0.000008
      g+3     :     0.000009
      g-3     :     0.000008
      g+4     :     0.000004
      g-4     :     0.000004
  1 Aus       :     2.769231  s :     2.769231
      pz      :     2.282393  p :     6.389659
      px      :     2.086053
      py      :     2.021213
      dz2     :     1.963596  d :     9.877335
      dxz     :     1.964065
      dyz     :     1.991258
      dx2y2   :     1.968056
      dxy     :     1.990359
      f0      :     0.002501  f :     0.012642
      f+1     :     0.002899
      f-1     :     0.001095
      f+2     :     0.002194
      f-2     :     0.001141
      f+3     :     0.001505
      f-3     :     0.001307
      g0      :     0.000029  g :     0.000186
      g+1     :     0.000034
      g-1     :     0.000013
      g+2     :     0.000025
      g-2     :     0.000008
      g+3     :     0.000024
      g-3     :     0.000016
      g+4     :     0.000019
      g-4     :     0.000017
  2 Aus       :     3.025529  s :     3.025529
      pz      :     2.037155  p :     6.065623
      px      :     2.018178
      py      :     2.010290
      dz2     :     1.954777  d :     9.853291
      dxz     :     1.937159
      dyz     :     1.987707
      dx2y2   :     1.979900
      dxy     :     1.993749
      f0      :     0.001834  f :     0.006458
      f+1     :     0.001728
      f-1     :     0.000893
      f+2     :     0.000829
      f-2     :     0.000622
      f+3     :     0.000281
      f-3     :     0.000271
      g0      :     0.000026  g :     0.000108
      g+1     :     0.000021
      g-1     :     0.000014
      g+2     :     0.000014
      g-2     :     0.000008
      g+3     :     0.000009
      g-3     :     0.000008
      g+4     :     0.000004
      g-4     :     0.000004
  3 Aus       :     2.769138  s :     2.769138
      pz      :     2.282292  p :     6.389529
      px      :     2.086031
      py      :     2.021206
      dz2     :     1.963621  d :     9.877400
      dxz     :     1.964092
      dyz     :     1.991264
      dx2y2   :     1.968061
      dxy     :     1.990362
      f0      :     0.002499  f :     0.012635
      f+1     :     0.002897
      f-1     :     0.001094
      f+2     :     0.002193
      f-2     :     0.001140
      f+3     :     0.001505
      f-3     :     0.001307
      g0      :     0.000029  g :     0.000186
      g+1     :     0.000034
      g-1     :     0.000013
      g+2     :     0.000025
      g-2     :     0.000008
      g+3     :     0.000024
      g-3     :     0.000016
      g+4     :     0.000019
      g-4     :     0.000017


                     *******************************
                     * LOEWDIN POPULATION ANALYSIS *
                     *******************************

----------------------
LOEWDIN ATOMIC CHARGES
----------------------
   0 Au:    0.084043
   1 Au:   -0.084132
   2 Au:    0.084061
   3 Au:   -0.083972

-------------------------------
LOEWDIN REDUCED ORBITAL CHARGES
-------------------------------
  0 Aus       :     2.839214  s :     2.839214
      pz      :     2.128107  p :     6.187740
      px      :     2.042622
      py      :     2.017011
      dz2     :     1.969248  d :     9.876177
      dxz     :     1.948310
      dyz     :     1.982365
      dx2y2   :     1.984802
      dxy     :     1.991451
      f0      :     0.003818  f :     0.012663
      f+1     :     0.003254
      f-1     :     0.001561
      f+2     :     0.001805
      f-2     :     0.001150
      f+3     :     0.000564
      f-3     :     0.000512
      g0      :     0.000045  g :     0.000162
      g+1     :     0.000029
      g-1     :     0.000019
      g+2     :     0.000024
      g-2     :     0.000010
      g+3     :     0.000015
      g-3     :     0.000011
      g+4     :     0.000005
      g-4     :     0.000005
  1 Aus       :     2.523582  s :     2.523582
      pz      :     2.431719  p :     6.618968
      px      :     2.157941
      py      :     2.029308
      dz2     :     1.976236  d :     9.917647
      dxz     :     1.982115
      dyz     :     1.985422
      dx2y2   :     1.988594
      dxy     :     1.985280
      f0      :     0.005196  f :     0.023641
      f+1     :     0.004989
      f-1     :     0.001799
      f+2     :     0.004686
      f-2     :     0.001904
      f+3     :     0.002919
      f-3     :     0.002147
      g0      :     0.000052  g :     0.000293
      g+1     :     0.000056
      g-1     :     0.000019
      g+2     :     0.000037
      g-2     :     0.000011
      g+3     :     0.000042
      g-3     :     0.000023
      g+4     :     0.000029
      g-4     :     0.000023
  2 Aus       :     2.839182  s :     2.839182
      pz      :     2.128133  p :     6.187764
      px      :     2.042616
      py      :     2.017015
      dz2     :     1.969267  d :     9.876163
      dxz     :     1.948283
      dyz     :     1.982366
      dx2y2   :     1.984801
      dxy     :     1.991447
      f0      :     0.003816  f :     0.012668
      f+1     :     0.003257
      f-1     :     0.001560
      f+2     :     0.001806
      f-2     :     0.001151
      f+3     :     0.000564
      f-3     :     0.000513
      g0      :     0.000045  g :     0.000162
      g+1     :     0.000029
      g-1     :     0.000019
      g+2     :     0.000024
      g-2     :     0.000010
      g+3     :     0.000015
      g-3     :     0.000011
      g+4     :     0.000005
      g-4     :     0.000005
  3 Aus       :     2.523557  s :     2.523557
      pz      :     2.431573  p :     6.618785
      px      :     2.157913
      py      :     2.029300
      dz2     :     1.976257  d :     9.917710
      dxz     :     1.982138
      dyz     :     1.985433
      dx2y2   :     1.988599
      dxy     :     1.985284
      f0      :     0.005192  f :     0.023627
      f+1     :     0.004986
      f-1     :     0.001797
      f+2     :     0.004684
      f-2     :     0.001902
      f+3     :     0.002918
      f-3     :     0.002147
      g0      :     0.000052  g :     0.000293
      g+1     :     0.000056
      g-1     :     0.000019
      g+2     :     0.000037
      g-2     :     0.000011
      g+3     :     0.000042
      g-3     :     0.000023
      g+4     :     0.000029
      g-4     :     0.000023


                      *****************************
                      * MAYER POPULATION ANALYSIS *
                      *****************************

  NA   - Mulliken gross atomic population
  ZA   - Total nuclear charge
  QA   - Mulliken gross atomic charge
  VA   - Mayer's total valence
  BVA  - Mayer's bonded valence
  FA   - Mayer's free valence

  ATOM       NA         ZA         QA         VA         BVA        FA
  0 Au    18.9510    19.0000     0.0490     1.4212     1.4212    -0.0000
  1 Au    19.0491    19.0000    -0.0491     1.8384     1.8384     0.0000
  2 Au    18.9510    19.0000     0.0490     1.4213     1.4213     0.0000
  3 Au    19.0489    19.0000    -0.0489     1.8380     1.8380     0.0000

  Mayer bond orders larger than 0.100000
B(  0-Au,  1-Au) :   0.6090 B(  0-Au,  2-Au) :   0.2031 B(  0-Au,  3-Au) :   0.6091 
B(  1-Au,  2-Au) :   0.6093 B(  1-Au,  3-Au) :   0.6201 B(  2-Au,  3-Au) :   0.6088 


-------
TIMINGS
-------

Total SCF time: 0 days 0 hours 0 min 11 sec 

Total time                  ....      11.402 sec
Sum of individual times     ....      11.158 sec  ( 97.9%)

Fock matrix formation       ....       9.095 sec  ( 79.8%)
  XC integration            ....       0.798 sec  (  8.8% of F)
    Basis function eval.    ....       0.084 sec  ( 10.5% of XC)
    Density eval.           ....       0.156 sec  ( 19.5% of XC)
    XC-Functional eval.     ....       0.142 sec  ( 17.8% of XC)
    XC-Potential eval.      ....       0.272 sec  ( 34.1% of XC)
Diagonalization             ....       0.094 sec  (  0.8%)
Density matrix formation    ....       0.013 sec  (  0.1%)
Population analysis         ....       0.008 sec  (  0.1%)
Initial guess               ....       1.295 sec  ( 11.4%)
Orbital Transformation      ....       0.000 sec  (  0.0%)
Orbital Orthonormalization  ....       0.000 sec  (  0.0%)
DIIS solution               ....       0.046 sec  (  0.4%)
Grid generation             ....       0.606 sec  (  5.3%)


-------------------------------------------------------------------------------
                          DFT DISPERSION CORRECTION                            
                                                                               
                              DFTD3 V3.1  Rev 1                                
                              USING zero damping                               
-------------------------------------------------------------------------------
The M06 functional is recognized
Active option DFTDOPT                   ...         3   

molecular C6(AA) [au] = 5074.506404 


            DFT-D V3
 parameters
 s6 scaling factor         :     1.0000 
 rs6 scaling factor        :     1.3250 
 s8 scaling factor         :     0.0000 
 rs8 scaling factor        :     1.0000 
 Damping factor alpha6     :    14.0000 
 Damping factor alpha8     :    16.0000 
 ad hoc parameters k1-k3   :    16.0000     1.3333    -4.0000 

 Edisp/kcal,au: -0.155457053012  -0.000247736557 
 E6   /kcal   :  -0.155457053 
 E8   /kcal   :  -0.000000000 
 % E8         :   0.000000000 

-------------------------   ----------------
Dispersion correction           -0.000247737
-------------------------   ----------------


-------------------------   --------------------
FINAL SINGLE POINT ENERGY      -543.168683163618
-------------------------   --------------------


                            ***************************************
                            *     ORCA property calculations      *
                            ***************************************

                                    ---------------------
                                    Active property flags
                                    ---------------------
   (+) Dipole Moment


------------------------------------------------------------------------------
                       ORCA ELECTRIC PROPERTIES CALCULATION
------------------------------------------------------------------------------

Dipole Moment Calculation                       ... on
Quadrupole Moment Calculation                   ... off
Polarizability Calculation                      ... off
GBWName                                         ... Au04N0.gbw
Electron density file                           ... Au04N0.scfp
The origin for moment calculation is the CENTER OF MASS  = ( 0.000000,  0.000000  0.000000)

-------------
DIPOLE MOMENT
-------------
                                X             Y             Z
Electronic contribution:      0.00034       0.00002      -0.00000
Nuclear contribution   :     -0.00000      -0.00000       0.00000
                        -----------------------------------------
Total Dipole Moment    :      0.00034       0.00002      -0.00000
                        -----------------------------------------
Magnitude (a.u.)       :      0.00034
Magnitude (Debye)      :      0.00086



--------------------
Rotational spectrum 
--------------------
 
Rotational constants in cm-1:     0.025355     0.007775     0.005950 
Rotational constants in MHz :   760.119680   233.080651   178.382130 

 Dipole components along the rotational axes: 
x,y,z [a.u.] :    -0.000114     0.000318     0.000012 
x,y,z [Debye]:    -0.000291     0.000807     0.000031 

 

Timings for individual modules:

Sum of individual times         ...       13.647 sec (=   0.227 min)
GTO integral calculation        ...        1.812 sec (=   0.030 min)  13.3 %
SCF iterations                  ...       11.834 sec (=   0.197 min)  86.7 %
                             ****ORCA TERMINATED NORMALLY****
TOTAL RUN TIME: 0 days 0 hours 0 minutes 14 seconds 257 msec
