
                                 *****************
                                 * O   R   C   A *
                                 *****************

           --- An Ab Initio, DFT and Semiempirical electronic structure package ---

                  #######################################################
                  #                        -***-                        #
                  #          Department of theory and spectroscopy      #
                  #               Directorship: Frank Neese             #
                  #        Max Planck Institute fuer Kohlenforschung    #
                  #                Kaiser Wilhelm Platz 1               #
                  #                 D-45470 Muelheim/Ruhr               #
                  #                      Germany                        #
                  #                                                     #
                  #                  All rights reserved                #
                  #                        -***-                        #
                  #######################################################


                         Program Version 4.2.0 -  RELEASE  -


 With contributions from (in alphabetic order):
   Daniel Aravena         : Magnetic Suceptibility
   Michael Atanasov       : Ab Initio Ligand Field Theory (pilot matlab implementation)
   Alexander A. Auer      : GIAO ZORA, VPT2
   Ute Becker             : Parallelization
   Giovanni Bistoni       : ED, misc. LED, open-shell LED, HFLED
   Martin Brehm           : Molecular dynamics
   Dmytro Bykov           : SCF Hessian
   Vijay G. Chilkuri      : MRCI spin determinant printing, contributions to CSF-ICE
   Dipayan Datta          : RHF DLPNO-CCSD density
   Achintya Kumar Dutta   : EOM-CC, STEOM-CC
   Dmitry Ganyushin       : Spin-Orbit,Spin-Spin,Magnetic field MRCI
   Miquel Garcia          : C-PCM Hessian, Gaussian charge scheme
   Yang Guo               : DLPNO-NEVPT2, CIM, IAO-localization
   Andreas Hansen         : Spin unrestricted coupled pair/coupled cluster methods
   Benjamin Helmich-Paris : CASSCF linear response (MC-RPA)
   Lee Huntington         : MR-EOM, pCC
   Robert Izsak           : Overlap fitted RIJCOSX, COSX-SCS-MP3, EOM
   Christian Kollmar      : KDIIS, OOCD, Brueckner-CCSD(T), CCSD density
   Simone Kossmann        : Meta GGA functionals, TD-DFT gradient, OOMP2, MP2 Hessian
   Martin Krupicka        : AUTO-CI
   Lucas Lang             : DCDCAS
   Dagmar Lenk            : GEPOL surface, SMD
   Dimitrios Liakos       : Extrapolation schemes; Compound Job, initial MDCI parallelization
   Dimitrios Manganas     : Further ROCIS development; embedding schemes
   Dimitrios Pantazis     : SARC Basis sets
   Taras Petrenko         : DFT Hessian,TD-DFT gradient, ASA, ECA, R-Raman, ABS, FL, XAS/XES, NRVS
   Peter Pinski           : DLPNO-MP2, DLPNO-MP2 Gradient
   Christoph Reimann      : Effective Core Potentials
   Marius Retegan         : Local ZFS, SOC
   Christoph Riplinger    : Optimizer, TS searches, QM/MM, DLPNO-CCSD(T), (RO)-DLPNO pert. Triples
   Tobias Risthaus        : Range-separated hybrids, TD-DFT gradient, RPA, STAB
   Michael Roemelt        : Original ROCIS implementation
   Masaaki Saitow         : Open-shell DLPNO-CCSD energy and density
   Barbara Sandhoefer     : DKH picture change effects
   Avijit Sen             : IP-ROCIS
   Kantharuban Sivalingam : CASSCF convergence, NEVPT2, FIC-MRCI
   Bernardo de Souza      : ESD, SOC TD-DFT
   Georgi Stoychev        : AutoAux, RI-MP2 NMR
   Willem Van den Heuvel  : Paramagnetic NMR
   Boris Wezisla          : Elementary symmetry handling
   Frank Wennmohs         : Technical directorship


 We gratefully acknowledge several colleagues who have allowed us to
 interface, adapt or use parts of their codes:
   Stefan Grimme, W. Hujo, H. Kruse,             : VdW corrections, initial TS optimization,
                  C. Bannwarth                     DFT functionals, gCP, sTDA/sTD-DF
   Ed Valeev, F. Pavosevic, A. Kumar             : LibInt (2-el integral package), F12 methods
   Garnet Chan, S. Sharma, J. Yang, R. Olivares  : DMRG
   Ulf Ekstrom                                   : XCFun DFT Library
   Mihaly Kallay                                 : mrcc  (arbitrary order and MRCC methods)
   Andreas Klamt, Michael Diedenhofen            : otool_cosmo (COSMO solvation model)
   Jiri Pittner, Ondrej Demel                    : Mk-CCSD
   Frank Weinhold                                : gennbo (NPA and NBO analysis)
   Christopher J. Cramer and Donald G. Truhlar   : smd solvation model
   Lars Goerigk                                  : TD-DFT with DH, B97 family of functionals
   V. Asgeirsson, H. Jonsson                     : NEB implementation
   FAccTs GmbH                                   : IRC, NEB, NEB-TS, Multilevel, MM, QM/MM, CI optimization
   S Lehtola, MJT Oliveira, MAL Marques          : LibXC Library


 Your calculation uses the libint2 library for the computation of 2-el integrals
 For citations please refer to: http://libint.valeyev.net

 Your ORCA version has been built with support for libXC version: 4.2.3
 For citations please refer to: https://tddft.org/programs/libxc/

 This ORCA versions uses:
   CBLAS   interface :  Fast vector & matrix operations
   LAPACKE interface :  Fast linear algebra routines
   SCALAPACK package :  Parallel linear algebra routines


Your calculation utilizes the atom-pairwise dispersion correction
with the zero-damping scheme (D30)
Cite in your paper:
S.Grimme, J.Antony, S.Ehrlich and H.Krieg, J.Chem.Phys., 132, (2010), 154104 
   

XCFun DFT library Copyright 2009-2010 Ulf Ekstrom and contributors.
See http://admol.org/xcfun for more information. This is free soft-
ware; see the source code for copying conditions. There is ABSOLUTELY
NO WARRANTY; not even for MERCHANTABILITY or FITNESS FOR A PARTICULAR
PURPOSE. For details see the documentation. Scientific users of this 
library should cite U. Ekstrom, L. Visscher, R. Bast, A. J. Thorvald-
sen and K. Ruud; J.Chem.Theor.Comp. 2010, DOI: 10.1021/ct100117s
XCFun Version 0.99 
----- Orbital basis set information -----
Your calculation utilizes the basis: def2-TZVPPD
   F. Weigend and R. Ahlrichs, Phys. Chem. Chem. Phys. 7, 3297 (2005).
   D. Rappoport and F. Furche, J. Chem. Phys. 133 134105 (2010).

----- AuxJK basis set information -----
Your calculation utilizes the auxiliary basis: def2/JK
   H-Ba, Hf-Rn: F. Weigend, J. Comput. Chem. 29, 167 (2008).

================================================================================
                                        WARNINGS
                       Please study these warnings very carefully!
================================================================================


WARNING: Minnesota functionals are quite sensitive to the integration grid.
         see SE Wheeler, KN Houk, JCTC 2010, 6, 395,
             N Mardirossian, M Head-Gordon, JCTC 2016, 12, 4303.
         Grid6 seems to be a minimum grid for reliable results with these functionals!
  ===> : Please increase the integration grid!


INFO   : the flag for use of LIBINT has been found!

================================================================================
                                       INPUT FILE
================================================================================
NAME = Cu03C1_LIN.in
|  1> #
|  2> # Cu03C1_LIN M06-D3BJ/Def2-TZVPPD
|  3> #
|  4> ! m06 d3zero def2-tzvppd def2/jk grid4 nofinalgrid
|  5> 
|  6> *xyz 1 1
|  7> Cu       0.000000    0.000000    0.000000 
|  8> Cu       0.000000    0.000000    2.337165 
|  9> Cu       0.000000    0.000000   -2.337165 
| 10> *
| 11> 
| 12> %maxcore 5000
| 13> 
| 14> %pal
| 15> nprocs = 24
| 16> end
| 17> 
| 18> 
| 19>                          ****END OF INPUT****
================================================================================

                       ****************************
                       * Single Point Calculation *
                       ****************************

---------------------------------
CARTESIAN COORDINATES (ANGSTROEM)
---------------------------------
  Cu     0.000000    0.000000    0.000000
  Cu     0.000000    0.000000    2.337165
  Cu     0.000000    0.000000   -2.337165

----------------------------
CARTESIAN COORDINATES (A.U.)
----------------------------
  NO LB      ZA    FRAG     MASS         X           Y           Z
   0 Cu   29.0000    0    63.550    0.000000    0.000000    0.000000
   1 Cu   29.0000    0    63.550    0.000000    0.000000    4.416602
   2 Cu   29.0000    0    63.550    0.000000    0.000000   -4.416602

--------------------------------
INTERNAL COORDINATES (ANGSTROEM)
--------------------------------
 Cu     0   0   0     0.000000000000     0.00000000     0.00000000
 Cu     1   0   0     2.337165000000     0.00000000     0.00000000
 Cu     1   2   0     2.337165000000   180.00000000     0.00000000

---------------------------
INTERNAL COORDINATES (A.U.)
---------------------------
 Cu     0   0   0     0.000000000000     0.00000000     0.00000000
 Cu     1   0   0     4.416601779786     0.00000000     0.00000000
 Cu     1   2   0     4.416601779786   180.00000000     0.00000000

---------------------
BASIS SET INFORMATION
---------------------
There are 1 groups of distinct atoms

 Group   1 Type Cu  : 17s13p7d2f1g contracted to 6s6p4d2f1g pattern {842111/631111/4111/11/1}

Atom   0Cu   basis set group =>   1
Atom   1Cu   basis set group =>   1
Atom   2Cu   basis set group =>   1
----------------------------------
AUXILIARY/JK BASIS SET INFORMATION
----------------------------------
There are 1 groups of distinct atoms

 Group   1 Type Cu  : 19s14p12d10f7g3h1i contracted to 16s13p11d9f5g3h1i pattern {4111111111111111/2111111111111/21111111111/211111111/31111/111/1}

Atom   0Cu   basis set group =>   1
Atom   1Cu   basis set group =>   1
Atom   2Cu   basis set group =>   1


           ************************************************************
           *        Program running with 24 parallel MPI-processes    *
           *              working on a common directory               *
           ************************************************************
------------------------------------------------------------------------------
                           ORCA GTO INTEGRAL CALCULATION
------------------------------------------------------------------------------

                         BASIS SET STATISTICS AND STARTUP INFO

 # of primitive gaussian shells          ...  120
 # of primitive gaussian functions       ...  342
 # of contracted shells                  ...   57
 # of contracted basis functions         ...  201
 Highest angular momentum                ...    4
 Maximum contraction depth               ...    8
 Integral package used                   ... LIBINT
 Integral threshhold            Thresh   ...  1.000e-10
 Primitive cut-off              TCut     ...  1.000e-11


------------------------------ INTEGRAL EVALUATION ----------------------------


 * One electron integrals 
 Pre-screening matrix                    ... done
 Shell pair data                         ... done (   0.000 sec)



           ************************************************************
           *        Program running with 24 parallel MPI-processes    *
           *              working on a common directory               *
           ************************************************************
-------------------------------------------------------------------------------
                                 ORCA SCF
-------------------------------------------------------------------------------

------------
SCF SETTINGS
------------
Hamiltonian:
 Density Functional     Method          .... DFT(GTOs)
 Exchange Functional    Exchange        .... M06
 Correlation Functional Correlation     .... M06
 Gradients option       PostSCFGGA      .... off
 Hybrid DFT is turned on
   Fraction HF Exchange ScalHFX         ....  0.270000
   Scaling of DF-GGA-X  ScalDFX         ....  0.730000
   Scaling of DF-GGA-C  ScalDFC         ....  1.000000
   Scaling of DF-LDA-C  ScalLDAC        ....  1.000000
   Perturbative correction              ....  0.000000
   Density functional embedding theory  .... OFF


General Settings:
 Integral files         IntName         .... Cu03C1_LIN
 Hartree-Fock type      HFTyp           .... RHF
 Total Charge           Charge          ....    1
 Multiplicity           Mult            ....    1
 Number of Electrons    NEL             ....   86
 Basis Dimension        Dim             ....  201
 Nuclear Repulsion      ENuc            ....    476.0447295979 Eh

Convergence Acceleration:
 DIIS                   CNVDIIS         .... on
   Start iteration      DIISMaxIt       ....    12
   Startup error        DIISStart       ....  0.200000
   # of expansion vecs  DIISMaxEq       ....     5
   Bias factor          DIISBfac        ....   1.050
   Max. coefficient     DIISMaxC        ....  10.000
 Newton-Raphson         CNVNR           .... off
 SOSCF                  CNVSOSCF        .... off
 Level Shifting         CNVShift        .... on
   Level shift para.    LevelShift      ....    0.2500
   Turn off err/grad.   ShiftErr        ....    0.0010
 Zerner damping         CNVZerner       .... off
 Static damping         CNVDamp         .... on
   Fraction old density DampFac         ....    0.7000
   Max. Damping (<1)    DampMax         ....    0.9800
   Min. Damping (>=0)   DampMin         ....    0.0000
   Turn off err/grad.   DampErr         ....    0.1000
 Fernandez-Rico         CNVRico         .... off

SCF Procedure:
 Maximum # iterations   MaxIter         ....   125
 SCF integral mode      SCFMode         .... Direct
   Integral package                     .... LIBINT
 Reset frequency        DirectResetFreq ....    20
 Integral Threshold     Thresh          ....  1.000e-10 Eh
 Primitive CutOff       TCut            ....  1.000e-11 Eh

Convergence Tolerance:
 Convergence Check Mode ConvCheckMode   .... Total+1el-Energy
 Convergence forced     ConvForced      .... 0
 Energy Change          TolE            ....  1.000e-06 Eh
 1-El. energy change                    ....  1.000e-03 Eh
 DIIS Error             TolErr          ....  1.000e-06


Diagonalization of the overlap matrix:
Smallest eigenvalue                        ... 3.551e-04
Time for diagonalization                   ...    0.006 sec
Threshold for overlap eigenvalues          ... 1.000e-08
Number of eigenvalues below threshold      ... 0
Time for construction of square roots      ...    0.005 sec
Total time needed                          ...    0.012 sec

-------------------
DFT GRID GENERATION
-------------------

General Integration Accuracy     IntAcc      ...  4.670
Radial Grid Type                 RadialGrid  ... Gauss-Chebyshev
Angular Grid (max. acc.)         AngularGrid ... Lebedev-302
Angular grid pruning method      GridPruning ... 3 (G Style)
Weight generation scheme         WeightScheme... Becke
Basis function cutoff            BFCut       ...    1.0000e-10
Integration weight cutoff        WCut        ...    1.0000e-14
Grids for H and He will be reduced by one unit

# of grid points (after initial pruning)     ...  28668 (   0.0 sec)
# of grid points (after weights+screening)   ...  28508 (   0.0 sec)
nearest neighbour list constructed           ...    0.0 sec
Grid point re-assignment to atoms done       ...    0.0 sec
Grid point division into batches done        ...    0.2 sec
Reduced shell lists constructed in    0.3 sec

Total number of grid points                  ...    28508
Total number of batches                      ...      447
Average number of points per batch           ...       63
Average number of grid points per atom       ...     9503
Average number of shells per batch           ...    18.10 (31.75%)
Average number of basis functions per batch  ...    52.30 (26.02%)
Average number of large shells per batch     ...    15.95 (88.12%)
Average number of large basis fcns per batch ...    46.25 (88.43%)
Maximum spatial batch extension              ...  26.18, 26.18,  4.39 au
Average spatial batch extension              ...   0.42,  0.42,  0.18 au

Time for grid setup =    0.352 sec

------------------------------
INITIAL GUESS: MODEL POTENTIAL
------------------------------
Loading Hartree-Fock densities                     ... done
Calculating cut-offs                               ... done
Setting up the integral package                    ... done
Initializing the effective Hamiltonian             ... done
Starting the Coulomb interaction                   ... done (   0.0 sec)
Reading the grid                                   ... done
Mapping shells                                     ... done
Starting the XC term evaluation                    ... done (   0.0 sec)
  promolecular density results
     # of electrons  =     87.000080809
     EX              =   -196.428260652
     EC              =     -4.044741476
     EX+EC           =   -200.473002128
Transforming the Hamiltonian                       ... done (   0.0 sec)
Diagonalizing the Hamiltonian                      ... done (   0.0 sec)
Back transforming the eigenvectors                 ... done (   0.0 sec)
Now organizing SCF variables                       ... done
                      ------------------
                      INITIAL GUESS DONE (   0.5 sec)
                      ------------------
--------------
SCF ITERATIONS
--------------
ITER       Energy         Delta-E        Max-DP      RMS-DP      [F,P]     Damp
               ***  Starting incremental Fock matrix formation  ***
  0  -4921.1248184612   0.000000000000 0.13579731  0.00171428  0.1855251 0.7000
  1  -4921.1577197142  -0.032901252990 0.10788785  0.00120825  0.0336794 0.7000
                               ***Turning on DIIS***
  2  -4921.1698052404  -0.012085526177 0.24717656  0.00262928  0.0277452 0.0000
  3  -4921.2009804212  -0.031175180802 0.03101656  0.00036014  0.0423423 0.0000
  4  -4921.2028895748  -0.001909153567 0.02688737  0.00027515  0.0093489 0.0000
  5  -4921.2031355380  -0.000245963249 0.00500977  0.00009950  0.0086753 0.0000
  6  -4921.2032759345  -0.000140396445 0.00437047  0.00006566  0.0032899 0.0000
  7  -4921.2033358862  -0.000059951697 0.00427093  0.00005564  0.0018403 0.0000
  8  -4921.2033709571  -0.000035070924 0.00398771  0.00005146  0.0012614 0.0000
  9  -4921.2033905629  -0.000019605803 0.00607088  0.00008151  0.0008591 0.0000
 10  -4921.2034045686  -0.000014005655 0.00064709  0.00000754  0.0000949 0.0000
 11  -4921.2034047421  -0.000000173573 0.00010776  0.00000136  0.0000527 0.0000
 12  -4921.2034047486  -0.000000006464 0.00004591  0.00000069  0.0000573 0.0000
                 **** Energy Check signals convergence ****

               *****************************************************
               *                     SUCCESS                       *
               *           SCF CONVERGED AFTER  13 CYCLES          *
               *****************************************************


----------------
TOTAL SCF ENERGY
----------------

Total Energy       :        -4921.20340476 Eh         -133912.75264 eV

Components:
Nuclear Repulsion  :          476.04472960 Eh           12953.83565 eV
Electronic Energy  :        -5397.24813436 Eh         -146866.58829 eV
One Electron Energy:        -7797.55397933 Eh         -212182.23091 eV
Two Electron Energy:         2400.30584497 Eh           65315.64262 eV

Virial components:
Potential Energy   :        -9836.53852496 Eh         -267665.82113 eV
Kinetic Energy     :         4915.33512020 Eh          133753.06850 eV
Virial Ratio       :            2.00119387


DFT components:
N(Alpha)           :       42.999995180235 electrons
N(Beta)            :       42.999995180235 electrons
N(Total)           :       85.999990360469 electrons
E(XC)              :     -148.276247580468 Eh       
DFET-embed. en.    :        0.000000000000 Eh       

---------------
SCF CONVERGENCE
---------------

  Last Energy change         ...   -9.1995e-09  Tolerance :   1.0000e-06
  Last MAX-Density change    ...    2.3899e-05  Tolerance :   1.0000e-05
  Last RMS-Density change    ...    4.1364e-07  Tolerance :   1.0000e-06
  Last DIIS Error            ...    2.1944e-05  Tolerance :   1.0000e-06

             **** THE GBW FILE WAS UPDATED (Cu03C1_LIN.gbw) ****
             **** DENSITY FILE WAS UPDATED (Cu03C1_LIN.scfp) ****
             **** ENERGY FILE WAS UPDATED (Cu03C1_LIN.en.tmp) ****
             **** THE GBW FILE WAS UPDATED (Cu03C1_LIN.gbw) ****
             **** DENSITY FILE WAS UPDATED (Cu03C1_LIN.scfp) ****
----------------
ORBITAL ENERGIES
----------------

  NO   OCC          E(Eh)            E(eV) 
   0   2.0000    -323.479619     -8802.3279 
   1   2.0000    -323.479616     -8802.3279 
   2   2.0000    -323.441263     -8801.2842 
   3   2.0000     -39.251203     -1068.0795 
   4   2.0000     -39.251190     -1068.0792 
   5   2.0000     -39.219896     -1067.2276 
   6   2.0000     -34.364953      -935.1179 
   7   2.0000     -34.364951      -935.1179 
   8   2.0000     -34.364250      -935.0988 
   9   2.0000     -34.364250      -935.0988 
  10   2.0000     -34.364248      -935.0987 
  11   2.0000     -34.364248      -935.0987 
  12   2.0000     -34.333671      -934.2667 
  13   2.0000     -34.331663      -934.2120 
  14   2.0000     -34.331663      -934.2120 
  15   2.0000      -4.599675      -125.1635 
  16   2.0000      -4.599661      -125.1631 
  17   2.0000      -4.563713      -124.1849 
  18   2.0000      -3.056287       -83.1658 
  19   2.0000      -3.056133       -83.1616 
  20   2.0000      -3.053751       -83.0968 
  21   2.0000      -3.053751       -83.0968 
  22   2.0000      -3.053746       -83.0967 
  23   2.0000      -3.053746       -83.0967 
  24   2.0000      -3.021482       -82.2187 
  25   2.0000      -3.014714       -82.0345 
  26   2.0000      -3.014714       -82.0345 
  27   2.0000      -0.531655       -14.4671 
  28   2.0000      -0.514281       -13.9943 
  29   2.0000      -0.514281       -13.9943 
  30   2.0000      -0.508295       -13.8314 
  31   2.0000      -0.506902       -13.7935 
  32   2.0000      -0.506902       -13.7935 
  33   2.0000      -0.504140       -13.7183 
  34   2.0000      -0.504128       -13.7180 
  35   2.0000      -0.503713       -13.7067 
  36   2.0000      -0.503701       -13.7064 
  37   2.0000      -0.461671       -12.5627 
  38   2.0000      -0.461655       -12.5623 
  39   2.0000      -0.461023       -12.5451 
  40   2.0000      -0.460151       -12.5213 
  41   2.0000      -0.460151       -12.5213 
  42   2.0000      -0.421623       -11.4729 
  43   0.0000      -0.335084        -9.1181 
  44   0.0000      -0.232824        -6.3355 
  45   0.0000      -0.201017        -5.4699 
  46   0.0000      -0.201016        -5.4699 
  47   0.0000      -0.171570        -4.6687 
  48   0.0000      -0.159114        -4.3297 
  49   0.0000      -0.159114        -4.3297 
  50   0.0000      -0.098365        -2.6767 
  51   0.0000      -0.098365        -2.6767 
  52   0.0000      -0.097873        -2.6633 
  53   0.0000      -0.083277        -2.2661 
  54   0.0000      -0.082057        -2.2329 
  55   0.0000      -0.066215        -1.8018 
  56   0.0000      -0.066215        -1.8018 
  57   0.0000      -0.039185        -1.0663 
  58   0.0000      -0.036174        -0.9843 
  59   0.0000      -0.036173        -0.9843 
  60   0.0000      -0.006792        -0.1848 
  61   0.0000      -0.006788        -0.1847 
  62   0.0000       0.003776         0.1028 
  63   0.0000       0.021698         0.5904 
  64   0.0000       0.021698         0.5904 
  65   0.0000       0.021866         0.5950 
  66   0.0000       0.021867         0.5950 
  67   0.0000       0.041235         1.1221 
  68   0.0000       0.049740         1.3535 
  69   0.0000       0.049740         1.3535 
  70   0.0000       0.068971         1.8768 
  71   0.0000       0.100806         2.7431 
  72   0.0000       0.100812         2.7432 
  73   0.0000       0.111236         3.0269 
  74   0.0000       0.147487         4.0133 
  75   0.0000       0.147487         4.0133 
  76   0.0000       0.177765         4.8372 
  77   0.0000       0.249331         6.7847 
  78   0.0000       0.249332         6.7847 
  79   0.0000       0.300419         8.1748 
  80   0.0000       0.344996         9.3878 
  81   0.0000       0.406533        11.0623 
  82   0.0000       0.467352        12.7173 
  83   0.0000       0.467352        12.7173 
  84   0.0000       0.492677        13.4064 
  85   0.0000       0.492677        13.4064 
  86   0.0000       0.547591        14.9007 
  87   0.0000       0.547591        14.9007 
  88   0.0000       0.550835        14.9890 
  89   0.0000       0.644984        17.5509 
  90   0.0000       0.645007        17.5515 
  91   0.0000       0.672894        18.3104 
  92   0.0000       0.672909        18.3108 
  93   0.0000       0.679200        18.4820 
  94   0.0000       0.679200        18.4820 
  95   0.0000       0.680177        18.5086 
  96   0.0000       0.734498        19.9867 
  97   0.0000       0.737166        20.0593 
  98   0.0000       0.737166        20.0593 
  99   0.0000       0.753034        20.4911 
 100   0.0000       0.753079        20.4923 
 101   0.0000       0.939474        25.5644 
 102   0.0000       0.939474        25.5644 
 103   0.0000       0.963268        26.2119 
 104   0.0000       1.251561        34.0567 
 105   0.0000       2.819022        76.7095 
 106   0.0000       2.821074        76.7653 
 107   0.0000       2.821074        76.7653 
 108   0.0000       2.902749        78.9878 
 109   0.0000       2.902749        78.9878 
 110   0.0000       2.913126        79.2702 
 111   0.0000       2.947364        80.2019 
 112   0.0000       2.947364        80.2019 
 113   0.0000       2.956229        80.4431 
 114   0.0000       3.050617        83.0115 
 115   0.0000       3.199259        87.0563 
 116   0.0000       3.207323        87.2757 
 117   0.0000       3.239044        88.1389 
 118   0.0000       3.239044        88.1389 
 119   0.0000       3.244284        88.2815 
 120   0.0000       3.244284        88.2815 
 121   0.0000       3.246134        88.3318 
 122   0.0000       3.246206        88.3338 
 123   0.0000       3.247184        88.3604 
 124   0.0000       3.247255        88.3623 
 125   0.0000       3.250821        88.4593 
 126   0.0000       3.250821        88.4593 
 127   0.0000       3.250821        88.4593 
 128   0.0000       3.250821        88.4593 
 129   0.0000       3.290256        89.5324 
 130   0.0000       3.290256        89.5324 
 131   0.0000       3.291809        89.5747 
 132   0.0000       3.291897        89.5771 
 133   0.0000       3.303171        89.8839 
 134   0.0000       3.303171        89.8839 
 135   0.0000       3.315031        90.2066 
 136   0.0000       3.421356        93.0998 
 137   0.0000       3.506534        95.4176 
 138   0.0000       3.506682        95.4217 
 139   0.0000       3.522038        95.8395 
 140   0.0000       3.522176        95.8433 
 141   0.0000       3.558749        96.8385 
 142   0.0000       3.558749        96.8385 
 143   0.0000       3.582675        97.4896 
 144   0.0000       3.589938        97.6872 
 145   0.0000       3.590109        97.6918 
 146   0.0000       3.618566        98.4662 
 147   0.0000       3.618566        98.4662 
 148   0.0000       3.730231       101.5048 
 149   0.0000       3.730231       101.5048 
 150   0.0000       3.839738       104.4846 
 151   0.0000       3.911933       106.4491 
 152   0.0000       4.262305       115.9832 
 153   0.0000      12.805821       348.4641 
 154   0.0000      12.805821       348.4641 
 155   0.0000      12.806215       348.4748 
 156   0.0000      12.806255       348.4759 
 157   0.0000      12.806438       348.4809 
 158   0.0000      12.806438       348.4809 
 159   0.0000      12.806817       348.4912 
 160   0.0000      12.806857       348.4923 
 161   0.0000      12.806964       348.4952 
 162   0.0000      12.807460       348.5087 
 163   0.0000      12.807576       348.5119 
 164   0.0000      12.807576       348.5119 
 165   0.0000      12.807589       348.5122 
 166   0.0000      12.807589       348.5122 
 167   0.0000      12.808557       348.5385 
 168   0.0000      12.808557       348.5386 
 169   0.0000      12.808701       348.5425 
 170   0.0000      12.808701       348.5425 
 171   0.0000      12.843034       349.4767 
 172   0.0000      12.843034       349.4767 
 173   0.0000      12.843908       349.5005 
 174   0.0000      12.844858       349.5264 
 175   0.0000      12.845972       349.5567 
 176   0.0000      12.847317       349.5933 
 177   0.0000      12.847317       349.5933 
 178   0.0000      12.850640       349.6837 
 179   0.0000      12.850839       349.6891 
 180   0.0000      13.020273       354.2996 
 181   0.0000      13.020424       354.3038 
 182   0.0000      13.020530       354.3066 
 183   0.0000      13.020530       354.3066 
 184   0.0000      13.021135       354.3231 
 185   0.0000      13.021287       354.3272 
 186   0.0000      13.021597       354.3357 
 187   0.0000      13.021597       354.3357 
 188   0.0000      13.021597       354.3357 
 189   0.0000      13.021597       354.3357 
 190   0.0000      13.032552       354.6338 
 191   0.0000      13.032552       354.6338 
 192   0.0000      13.033519       354.6601 
 193   0.0000      13.054263       355.2245 
 194   0.0000      13.054464       355.2300 
 195   0.0000      13.057764       355.3198 
 196   0.0000      13.057764       355.3198 
 197   0.0000      13.064737       355.5096 
 198   0.0000      13.064737       355.5096 
 199   0.0000      13.099352       356.4515 
 200   0.0000      13.146142       357.7247 

                    ********************************
                    * MULLIKEN POPULATION ANALYSIS *
                    ********************************

-----------------------
MULLIKEN ATOMIC CHARGES
-----------------------
   0 Cu:    0.020955
   1 Cu:    0.489524
   2 Cu:    0.489520
Sum of atomic charges:    1.0000000

--------------------------------
MULLIKEN REDUCED ORBITAL CHARGES
--------------------------------
  0 Cus       :     7.015803  s :     7.015803
      pz      :     3.993775  p :    12.019431
      px      :     4.012828
      py      :     4.012828
      dz2     :     1.975726  d :     9.943620
      dxz     :     1.983599
      dyz     :     1.983599
      dx2y2   :     2.000347
      dxy     :     2.000348
      f0      :     0.000071  f :     0.000189
      f+1     :     0.000054
      f-1     :     0.000054
      f+2     :     0.000006
      f-2     :     0.000006
      f+3     :     0.000000
      f-3     :     0.000000
      g0      :     0.000000  g :     0.000002
      g+1     :     0.000000
      g-1     :     0.000000
      g+2     :     0.000000
      g-2     :     0.000000
      g+3     :     0.000000
      g-3     :     0.000000
      g+4     :     0.000000
      g-4     :     0.000000
  1 Cus       :     6.460789  s :     6.460789
      pz      :     4.058737  p :    12.074726
      px      :     4.007994
      py      :     4.007994
      dz2     :     1.987746  d :     9.974839
      dxz     :     1.993731
      dyz     :     1.993731
      dx2y2   :     1.999816
      dxy     :     1.999815
      f0      :     0.000038  f :     0.000122
      f+1     :     0.000034
      f-1     :     0.000034
      f+2     :     0.000008
      f-2     :     0.000008
      f+3     :     0.000000
      f-3     :     0.000000
      g0      :     0.000000  g :     0.000000
      g+1     :     0.000000
      g-1     :     0.000000
      g+2     :     0.000000
      g-2     :     0.000000
      g+3     :     0.000000
      g-3     :     0.000000
      g+4     :     0.000000
      g-4     :     0.000000
  2 Cus       :     6.460792  s :     6.460792
      pz      :     4.058738  p :    12.074727
      px      :     4.007994
      py      :     4.007994
      dz2     :     1.987746  d :     9.974839
      dxz     :     1.993731
      dyz     :     1.993731
      dx2y2   :     1.999816
      dxy     :     1.999815
      f0      :     0.000038  f :     0.000122
      f+1     :     0.000034
      f-1     :     0.000034
      f+2     :     0.000008
      f-2     :     0.000008
      f+3     :     0.000000
      f-3     :     0.000000
      g0      :     0.000000  g :     0.000000
      g+1     :     0.000000
      g-1     :     0.000000
      g+2     :     0.000000
      g-2     :     0.000000
      g+3     :     0.000000
      g-3     :     0.000000
      g+4     :     0.000000
      g-4     :     0.000000


                     *******************************
                     * LOEWDIN POPULATION ANALYSIS *
                     *******************************

----------------------
LOEWDIN ATOMIC CHARGES
----------------------
   0 Cu:    0.149037
   1 Cu:    0.425481
   2 Cu:    0.425481

-------------------------------
LOEWDIN REDUCED ORBITAL CHARGES
-------------------------------
  0 Cus       :     6.739016  s :     6.739016
      pz      :     4.036265  p :    12.059456
      px      :     4.011595
      py      :     4.011595
      dz2     :     2.088581  d :    10.051971
      dxz     :     1.982082
      dyz     :     1.982082
      dx2y2   :     1.999613
      dxy     :     1.999613
      f0      :     0.000250  f :     0.000518
      f+1     :     0.000126
      f-1     :     0.000126
      f+2     :     0.000008
      f-2     :     0.000008
      f+3     :     0.000000
      f-3     :     0.000000
      g0      :     0.000001  g :     0.000002
      g+1     :     0.000001
      g-1     :     0.000001
      g+2     :     0.000000
      g-2     :     0.000000
      g+3     :     0.000000
      g-3     :     0.000000
      g+4     :     0.000000
      g-4     :     0.000000
  1 Cus       :     6.387714  s :     6.387714
      pz      :     4.146562  p :    12.164542
      px      :     4.008990
      py      :     4.008990
      dz2     :     2.033541  d :    10.021967
      dxz     :     1.994033
      dyz     :     1.994033
      dx2y2   :     2.000181
      dxy     :     2.000181
      f0      :     0.000126  f :     0.000295
      f+1     :     0.000075
      f-1     :     0.000075
      f+2     :     0.000009
      f-2     :     0.000009
      f+3     :     0.000000
      f-3     :     0.000000
      g0      :     0.000000  g :     0.000001
      g+1     :     0.000000
      g-1     :     0.000000
      g+2     :     0.000000
      g-2     :     0.000000
      g+3     :     0.000000
      g-3     :     0.000000
      g+4     :     0.000000
      g-4     :     0.000000
  2 Cus       :     6.387714  s :     6.387714
      pz      :     4.146562  p :    12.164542
      px      :     4.008990
      py      :     4.008990
      dz2     :     2.033541  d :    10.021967
      dxz     :     1.994033
      dyz     :     1.994033
      dx2y2   :     2.000181
      dxy     :     2.000181
      f0      :     0.000126  f :     0.000295
      f+1     :     0.000075
      f-1     :     0.000075
      f+2     :     0.000009
      f-2     :     0.000009
      f+3     :     0.000000
      f-3     :     0.000000
      g0      :     0.000000  g :     0.000001
      g+1     :     0.000000
      g-1     :     0.000000
      g+2     :     0.000000
      g-2     :     0.000000
      g+3     :     0.000000
      g-3     :     0.000000
      g+4     :     0.000000
      g-4     :     0.000000


                      *****************************
                      * MAYER POPULATION ANALYSIS *
                      *****************************

  NA   - Mulliken gross atomic population
  ZA   - Total nuclear charge
  QA   - Mulliken gross atomic charge
  VA   - Mayer's total valence
  BVA  - Mayer's bonded valence
  FA   - Mayer's free valence

  ATOM       NA         ZA         QA         VA         BVA        FA
  0 Cu    28.9790    29.0000     0.0210     1.1070     1.1070    -0.0000
  1 Cu    28.5105    29.0000     0.4895     0.8627     0.8627    -0.0000
  2 Cu    28.5105    29.0000     0.4895     0.8627     0.8627    -0.0000

  Mayer bond orders larger than 0.100000
B(  0-Cu,  1-Cu) :   0.5535 B(  0-Cu,  2-Cu) :   0.5535 B(  1-Cu,  2-Cu) :   0.3092 


-------
TIMINGS
-------

Total SCF time: 0 days 0 hours 0 min 7 sec 

Total time                  ....       7.145 sec
Sum of individual times     ....       6.903 sec  ( 96.6%)

Fock matrix formation       ....       6.300 sec  ( 88.2%)
  XC integration            ....       0.721 sec  ( 11.4% of F)
    Basis function eval.    ....       0.041 sec  (  5.6% of XC)
    Density eval.           ....       0.061 sec  (  8.5% of XC)
    XC-Functional eval.     ....       0.103 sec  ( 14.3% of XC)
    XC-Potential eval.      ....       0.118 sec  ( 16.3% of XC)
Diagonalization             ....       0.081 sec  (  1.1%)
Density matrix formation    ....       0.011 sec  (  0.2%)
Population analysis         ....       0.006 sec  (  0.1%)
Initial guess               ....       0.116 sec  (  1.6%)
Orbital Transformation      ....       0.000 sec  (  0.0%)
Orbital Orthonormalization  ....       0.000 sec  (  0.0%)
DIIS solution               ....       0.038 sec  (  0.5%)
Grid generation             ....       0.352 sec  (  4.9%)


-------------------------------------------------------------------------------
                          DFT DISPERSION CORRECTION                            
                                                                               
                              DFTD3 V3.1  Rev 1                                
                              USING zero damping                               
-------------------------------------------------------------------------------
The M06 functional is recognized
Active option DFTDOPT                   ...         3   

molecular C6(AA) [au] = 1599.926199 


            DFT-D V3
 parameters
 s6 scaling factor         :     1.0000 
 rs6 scaling factor        :     1.3250 
 s8 scaling factor         :     0.0000 
 rs8 scaling factor        :     1.0000 
 Damping factor alpha6     :    14.0000 
 Damping factor alpha8     :    16.0000 
 ad hoc parameters k1-k3   :    16.0000     1.3333    -4.0000 

 Edisp/kcal,au: -0.071116589312  -0.000113331487 
 E6   /kcal   :  -0.071116589 
 E8   /kcal   :  -0.000000000 
 % E8         :   0.000000000 

-------------------------   ----------------
Dispersion correction           -0.000113331
-------------------------   ----------------


-------------------------   --------------------
FINAL SINGLE POINT ENERGY     -4921.203518089275
-------------------------   --------------------


                            ***************************************
                            *     ORCA property calculations      *
                            ***************************************

                                    ---------------------
                                    Active property flags
                                    ---------------------
   (+) Dipole Moment


------------------------------------------------------------------------------
                       ORCA ELECTRIC PROPERTIES CALCULATION
------------------------------------------------------------------------------

Dipole Moment Calculation                       ... on
Quadrupole Moment Calculation                   ... off
Polarizability Calculation                      ... off
GBWName                                         ... Cu03C1_LIN.gbw
Electron density file                           ... Cu03C1_LIN.scfp
The origin for moment calculation is the CENTER OF MASS  = ( 0.000000,  0.000000  0.000000)

-------------
DIPOLE MOMENT
-------------
                                X             Y             Z
Electronic contribution:      0.00000       0.00000       0.00000
Nuclear contribution   :      0.00000       0.00000       0.00000
                        -----------------------------------------
Total Dipole Moment    :      0.00000       0.00000       0.00000
                        -----------------------------------------
Magnitude (a.u.)       :      0.00000
Magnitude (Debye)      :      0.00000



--------------------
Rotational spectrum 
--------------------
 
Rotational constants in cm-1:     0.000000     0.024281     0.024281 
Rotational constants in MHz :     0.000000   727.936180   727.936180 

 Dipole components along the rotational axes: 
x,y,z [a.u.] :     0.000000     0.000000     0.000001 
x,y,z [Debye]:     0.000001     0.000001     0.000001 

 

Timings for individual modules:

Sum of individual times         ...        8.525 sec (=   0.142 min)
GTO integral calculation        ...        0.948 sec (=   0.016 min)  11.1 %
SCF iterations                  ...        7.578 sec (=   0.126 min)  88.9 %
                             ****ORCA TERMINATED NORMALLY****
TOTAL RUN TIME: 0 days 0 hours 0 minutes 9 seconds 117 msec
