
                                 *****************
                                 * O   R   C   A *
                                 *****************

           --- An Ab Initio, DFT and Semiempirical electronic structure package ---

                  #######################################################
                  #                        -***-                        #
                  #          Department of theory and spectroscopy      #
                  #               Directorship: Frank Neese             #
                  #        Max Planck Institute fuer Kohlenforschung    #
                  #                Kaiser Wilhelm Platz 1               #
                  #                 D-45470 Muelheim/Ruhr               #
                  #                      Germany                        #
                  #                                                     #
                  #                  All rights reserved                #
                  #                        -***-                        #
                  #######################################################


                         Program Version 4.2.0 -  RELEASE  -


 With contributions from (in alphabetic order):
   Daniel Aravena         : Magnetic Suceptibility
   Michael Atanasov       : Ab Initio Ligand Field Theory (pilot matlab implementation)
   Alexander A. Auer      : GIAO ZORA, VPT2
   Ute Becker             : Parallelization
   Giovanni Bistoni       : ED, misc. LED, open-shell LED, HFLED
   Martin Brehm           : Molecular dynamics
   Dmytro Bykov           : SCF Hessian
   Vijay G. Chilkuri      : MRCI spin determinant printing, contributions to CSF-ICE
   Dipayan Datta          : RHF DLPNO-CCSD density
   Achintya Kumar Dutta   : EOM-CC, STEOM-CC
   Dmitry Ganyushin       : Spin-Orbit,Spin-Spin,Magnetic field MRCI
   Miquel Garcia          : C-PCM Hessian, Gaussian charge scheme
   Yang Guo               : DLPNO-NEVPT2, CIM, IAO-localization
   Andreas Hansen         : Spin unrestricted coupled pair/coupled cluster methods
   Benjamin Helmich-Paris : CASSCF linear response (MC-RPA)
   Lee Huntington         : MR-EOM, pCC
   Robert Izsak           : Overlap fitted RIJCOSX, COSX-SCS-MP3, EOM
   Christian Kollmar      : KDIIS, OOCD, Brueckner-CCSD(T), CCSD density
   Simone Kossmann        : Meta GGA functionals, TD-DFT gradient, OOMP2, MP2 Hessian
   Martin Krupicka        : AUTO-CI
   Lucas Lang             : DCDCAS
   Dagmar Lenk            : GEPOL surface, SMD
   Dimitrios Liakos       : Extrapolation schemes; Compound Job, initial MDCI parallelization
   Dimitrios Manganas     : Further ROCIS development; embedding schemes
   Dimitrios Pantazis     : SARC Basis sets
   Taras Petrenko         : DFT Hessian,TD-DFT gradient, ASA, ECA, R-Raman, ABS, FL, XAS/XES, NRVS
   Peter Pinski           : DLPNO-MP2, DLPNO-MP2 Gradient
   Christoph Reimann      : Effective Core Potentials
   Marius Retegan         : Local ZFS, SOC
   Christoph Riplinger    : Optimizer, TS searches, QM/MM, DLPNO-CCSD(T), (RO)-DLPNO pert. Triples
   Tobias Risthaus        : Range-separated hybrids, TD-DFT gradient, RPA, STAB
   Michael Roemelt        : Original ROCIS implementation
   Masaaki Saitow         : Open-shell DLPNO-CCSD energy and density
   Barbara Sandhoefer     : DKH picture change effects
   Avijit Sen             : IP-ROCIS
   Kantharuban Sivalingam : CASSCF convergence, NEVPT2, FIC-MRCI
   Bernardo de Souza      : ESD, SOC TD-DFT
   Georgi Stoychev        : AutoAux, RI-MP2 NMR
   Willem Van den Heuvel  : Paramagnetic NMR
   Boris Wezisla          : Elementary symmetry handling
   Frank Wennmohs         : Technical directorship


 We gratefully acknowledge several colleagues who have allowed us to
 interface, adapt or use parts of their codes:
   Stefan Grimme, W. Hujo, H. Kruse,             : VdW corrections, initial TS optimization,
                  C. Bannwarth                     DFT functionals, gCP, sTDA/sTD-DF
   Ed Valeev, F. Pavosevic, A. Kumar             : LibInt (2-el integral package), F12 methods
   Garnet Chan, S. Sharma, J. Yang, R. Olivares  : DMRG
   Ulf Ekstrom                                   : XCFun DFT Library
   Mihaly Kallay                                 : mrcc  (arbitrary order and MRCC methods)
   Andreas Klamt, Michael Diedenhofen            : otool_cosmo (COSMO solvation model)
   Jiri Pittner, Ondrej Demel                    : Mk-CCSD
   Frank Weinhold                                : gennbo (NPA and NBO analysis)
   Christopher J. Cramer and Donald G. Truhlar   : smd solvation model
   Lars Goerigk                                  : TD-DFT with DH, B97 family of functionals
   V. Asgeirsson, H. Jonsson                     : NEB implementation
   FAccTs GmbH                                   : IRC, NEB, NEB-TS, Multilevel, MM, QM/MM, CI optimization
   S Lehtola, MJT Oliveira, MAL Marques          : LibXC Library


 Your calculation uses the libint2 library for the computation of 2-el integrals
 For citations please refer to: http://libint.valeyev.net

 Your ORCA version has been built with support for libXC version: 4.2.3
 For citations please refer to: https://tddft.org/programs/libxc/

 This ORCA versions uses:
   CBLAS   interface :  Fast vector & matrix operations
   LAPACKE interface :  Fast linear algebra routines
   SCALAPACK package :  Parallel linear algebra routines


Your calculation utilizes the atom-pairwise dispersion correction
with the Becke-Johnson damping scheme (D3BJ)
Cite in your paper:
S.Grimme, S.Ehrlich, L.Goerigk, J Comput Chem, (2011), 32, 1456–1465 
S.Grimme, J.Antony, S.Ehrlich and H.Krieg, J.Chem.Phys., 132, (2010), 154104 
   

----- Orbital basis set information -----
Your calculation utilizes the basis: def2-TZVPPD
   F. Weigend and R. Ahlrichs, Phys. Chem. Chem. Phys. 7, 3297 (2005).
   D. Rappoport and F. Furche, J. Chem. Phys. 133 134105 (2010).

----- AuxJK basis set information -----
Your calculation utilizes the auxiliary basis: def2/JK
   H-Ba, Hf-Rn: F. Weigend, J. Comput. Chem. 29, 167 (2008).

cite the ECPs for Ag [Def2-ECP] as follows:
Ce-Yb(ecp-28): M. Dolg, H. Stoll, H.Preuss, J. Chem. Phys., 1989, 90, 1730-1734.
Y-Cd(ecp-28), Hf-Hg(ecp-46): D. Andrae,U. Haeussermann, M. Dolg, H. Stoll, H. Preuss, Theor. Chim. Acta, 1990, 77, 123-141.
In-Sb(ecp-28), Tl-Bi(ecp-46): B. Metz, H. Stoll, M. Dolg, J. Chem. Phys., 2000, 113, 2563-2569.
Te-Xe(ecp-28), Po-Rn(ecp-46): K. A. Peterson, D. Figgen, E. Goll, H. Stoll, M. Dolg, J. Chem. Phys., 2003, 119, 11113-11123.
Rb(ecp-28), Cs(ecp-46): T. Leininger, A. Nicklass, W. Kuechle, H. Stoll, M. Dolg, A. Bergner, Chem. Phys. Lett., 1996, 255, 274-280.
Sr(ecp-28), Ba(ecp-46): M. Kaupp, P. V. Schleyer, H. Stoll and H. Preuss, J. Chem. Phys., 1991, 94, 1360-1366.
La(ecp-46): M. Dolg, H. Stoll, A. Savin, H. Preuss, Theor. Chim. Acta, 1989, 75, 173-194.
Lu(ecp-28): X. Cao, M. Dolg, J. Chem. Phys., 2001, 115, 7348-7355.

ECP parameters for Ag [Def2-ECP] have been obtained from:
TURBOMOLE (7.0.2)

================================================================================
                                        WARNINGS
                       Please study these warnings very carefully!
================================================================================


WARNING: Geometry Optimization
  ===> : Switching off AutoStart
         For restart on a previous wavefunction, please use MOREAD

INFO   : the flag for use of LIBINT has been found!

================================================================================
                                       INPUT FILE
================================================================================
NAME = Ag01N0_H.in
|  1> #
|  2> # Ag01N0_H TPSSh-D3BJ/Def2-TZVPPD
|  3> #
|  4> ! tpssh d3bj def2-tzvppd def2/jk grid4 nofinalgrid opt xyzfile numfreq
|  5> 
|  6> *xyz 0 1
|  7> Ag       0.000000    0.000000    0.033547 
|  8> H        0.000000    0.000000   -1.576706 
|  9> *
| 10> 
| 11> %maxcore 5000
| 12> 
| 13> %pal
| 14> nprocs = 24
| 15> end
| 16> 
| 17> 
| 18>                          ****END OF INPUT****
================================================================================

                       *****************************
                       * Geometry Optimization Run *
                       *****************************

Geometry optimization settings:
Update method            Update   .... BFGS
Choice of coordinates    CoordSys .... Z-matrix Internals
Initial Hessian          InHess   .... Almoef's Model

Convergence Tolerances:
Energy Change            TolE     ....  5.0000e-06 Eh
Max. Gradient            TolMAXG  ....  3.0000e-04 Eh/bohr
RMS Gradient             TolRMSG  ....  1.0000e-04 Eh/bohr
Max. Displacement        TolMAXD  ....  4.0000e-03 bohr
RMS Displacement         TolRMSD  ....  2.0000e-03 bohr
Strict Convergence                ....  False
------------------------------------------------------------------------------
                        ORCA OPTIMIZATION COORDINATE SETUP
------------------------------------------------------------------------------

The optimization will be done in new redundant internal coordinates
Making redundant internal coordinates   ...  (new redundants) done
Evaluating the initial hessian          ...  (Almloef) done
Evaluating the coordinates              ...  done
Calculating the B-matrix                .... done
Calculating the G-matrix                .... done
Diagonalizing the G-matrix              .... done
The first mode is                       ....    0
The number of degrees of freedom        ....    1

    -----------------------------------------------------------------
                    Redundant Internal Coordinates


    -----------------------------------------------------------------
         Definition                    Initial Value    Approx d2E/dq
    -----------------------------------------------------------------
      1. B(H   1,Ag  0)                  1.6103         0.538912   
    -----------------------------------------------------------------

Number of atoms                         .... 2
Number of degrees of freedom            .... 1

         *************************************************************
         *                GEOMETRY OPTIMIZATION CYCLE   1            *
         *************************************************************
---------------------------------
CARTESIAN COORDINATES (ANGSTROEM)
---------------------------------
  Ag     0.000000    0.000000    0.033547
  H      0.000000    0.000000   -1.576706

----------------------------
CARTESIAN COORDINATES (A.U.)
----------------------------
  NO LB      ZA    FRAG     MASS         X           Y           Z
   0 Ag   19.0000*   0   107.870    0.000000    0.000000    0.063395
   1 H     1.0000    0     1.008    0.000000    0.000000   -2.979543
* core charge reduced due to ECP

--------------------------------
INTERNAL COORDINATES (ANGSTROEM)
--------------------------------
 Ag     0   0   0     0.000000000000     0.00000000     0.00000000
 H      1   0   0     1.610253000000     0.00000000     0.00000000

---------------------------
INTERNAL COORDINATES (A.U.)
---------------------------
 Ag     0   0   0     0.000000000000     0.00000000     0.00000000
 H      1   0   0     3.042937176325     0.00000000     0.00000000

---------------------
BASIS SET INFORMATION
---------------------
There are 2 groups of distinct atoms

 Group   1 Type Ag  : 7s7p6d2f1g contracted to 6s4p3d2f1g pattern {211111/4111/411/11/1}
 Group   2 Type H   : 5s3p1d contracted to 3s3p1d pattern {311/111/1}

Atom   0Ag   basis set group =>   1
Atom   1H    basis set group =>   2
----------------------------------
AUXILIARY/JK BASIS SET INFORMATION
----------------------------------
There are 2 groups of distinct atoms

 Group   1 Type Ag  : 13s12p10d9f6g3h2i contracted to 11s10p9d8f6g3h2i pattern {31111111111/3111111111/211111111/21111111/111111/111/11}
 Group   2 Type H   : 4s2p2d contracted to 2s2p2d pattern {31/11/11}

Atom   0Ag   basis set group =>   1
Atom   1H    basis set group =>   2
-------------------------
ECP PARAMETER INFORMATION
-------------------------

 Group 1, Type Ag ECP Def2-ECP (replacing 28 core electrons, lmax=3)

Atom   0Ag   ECP group =>   1



           ************************************************************
           *        Program running with 24 parallel MPI-processes    *
           *              working on a common directory               *
           ************************************************************
------------------------------------------------------------------------------
                           ORCA GTO INTEGRAL CALCULATION
------------------------------------------------------------------------------

                         BASIS SET STATISTICS AND STARTUP INFO

 # of primitive gaussian shells          ...   32
 # of primitive gaussian functions       ...  100
 # of contracted shells                  ...   23
 # of contracted basis functions         ...   73
 Highest angular momentum                ...    4
 Maximum contraction depth               ...    4
 Integral package used                   ... LIBINT
 Integral threshhold            Thresh   ...  2.500e-11
 Primitive cut-off              TCut     ...  2.500e-12


------------------------------ INTEGRAL EVALUATION ----------------------------


 * One electron integrals 

   ECP integrals                         ... done
 Pre-screening matrix                    ... done
 Shell pair data                         ... done (   0.000 sec)



           ************************************************************
           *        Program running with 24 parallel MPI-processes    *
           *              working on a common directory               *
           ************************************************************
-------------------------------------------------------------------------------
                                 ORCA SCF
-------------------------------------------------------------------------------

------------
SCF SETTINGS
------------
Hamiltonian:
 Density Functional     Method          .... DFT(GTOs)
 Exchange Functional    Exchange        .... TPSS
 Correlation Functional Correlation     .... TPSS
 LDA part of GGA corr.  LDAOpt          .... PW91-LDA
 Gradients option       PostSCFGGA      .... off
 Hybrid DFT is turned on
   Fraction HF Exchange ScalHFX         ....  0.100000
   Scaling of DF-GGA-X  ScalDFX         ....  0.900000
   Scaling of DF-GGA-C  ScalDFC         ....  1.000000
   Scaling of DF-LDA-C  ScalLDAC        ....  1.000000
   Perturbative correction              ....  0.000000
   Density functional embedding theory  .... OFF
   NL short-range parameter             ....  5.200000


General Settings:
 Integral files         IntName         .... Ag01N0_H
 Hartree-Fock type      HFTyp           .... RHF
 Total Charge           Charge          ....    0
 Multiplicity           Mult            ....    1
 Number of Electrons    NEL             ....   20
 Basis Dimension        Dim             ....   73
 Nuclear Repulsion      ENuc            ....      6.2439672261 Eh

Convergence Acceleration:
 DIIS                   CNVDIIS         .... on
   Start iteration      DIISMaxIt       ....    12
   Startup error        DIISStart       ....  0.200000
   # of expansion vecs  DIISMaxEq       ....     5
   Bias factor          DIISBfac        ....   1.050
   Max. coefficient     DIISMaxC        ....  10.000
 Newton-Raphson         CNVNR           .... off
 SOSCF                  CNVSOSCF        .... off
 Level Shifting         CNVShift        .... on
   Level shift para.    LevelShift      ....    0.2500
   Turn off err/grad.   ShiftErr        ....    0.0010
 Zerner damping         CNVZerner       .... off
 Static damping         CNVDamp         .... on
   Fraction old density DampFac         ....    0.7000
   Max. Damping (<1)    DampMax         ....    0.9800
   Min. Damping (>=0)   DampMin         ....    0.0000
   Turn off err/grad.   DampErr         ....    0.1000
 Fernandez-Rico         CNVRico         .... off

SCF Procedure:
 Maximum # iterations   MaxIter         ....   125
 SCF integral mode      SCFMode         .... Direct
   Integral package                     .... LIBINT
 Reset frequency        DirectResetFreq ....    20
 Integral Threshold     Thresh          ....  2.500e-11 Eh
 Primitive CutOff       TCut            ....  2.500e-12 Eh

Convergence Tolerance:
 Convergence Check Mode ConvCheckMode   .... Total+1el-Energy
 Convergence forced     ConvForced      .... 0
 Energy Change          TolE            ....  1.000e-08 Eh
 1-El. energy change                    ....  1.000e-05 Eh
 DIIS Error             TolErr          ....  5.000e-07


Diagonalization of the overlap matrix:
Smallest eigenvalue                        ... 3.316e-03
Time for diagonalization                   ...    0.022 sec
Threshold for overlap eigenvalues          ... 1.000e-08
Number of eigenvalues below threshold      ... 0
Time for construction of square roots      ...    0.001 sec
Total time needed                          ...    0.023 sec

-------------------
DFT GRID GENERATION
-------------------

General Integration Accuracy     IntAcc      ...  4.670
Radial Grid Type                 RadialGrid  ... Gauss-Chebyshev
Angular Grid (max. acc.)         AngularGrid ... Lebedev-302
Angular grid pruning method      GridPruning ... 3 (G Style)
Weight generation scheme         WeightScheme... Becke
Basis function cutoff            BFCut       ...    1.0000e-11
Integration weight cutoff        WCut        ...    1.0000e-14
Grids for H and He will be reduced by one unit

# of grid points (after initial pruning)     ...  14052 (   0.0 sec)
# of grid points (after weights+screening)   ...  13996 (   0.0 sec)
nearest neighbour list constructed           ...    0.0 sec
Grid point re-assignment to atoms done       ...    0.0 sec
Grid point division into batches done        ...    0.1 sec
Reduced shell lists constructed in    0.1 sec

Total number of grid points                  ...    13996
Total number of batches                      ...      220
Average number of points per batch           ...       63
Average number of grid points per atom       ...     6998
Average number of shells per batch           ...     2.27 ( 9.88%)
Average number of basis functions per batch  ...     4.82 ( 6.60%)
Average number of large shells per batch     ...     2.09 (92.00%)
Average number of large basis fcns per batch ...     4.09 (84.91%)
Maximum spatial batch extension              ...  40.43, 36.77, 24.60 au
Average spatial batch extension              ...   1.31,  1.23,  0.88 au

Time for grid setup =    0.121 sec

------------------------------
INITIAL GUESS: MODEL POTENTIAL
------------------------------
Loading Hartree-Fock densities                     ... done
  calling /sw/apps/orca/orca_4_2_0_linux_x86-64_openmpi314/orca Ag01N0_H_atom47.inp > Ag01N0_H_atom47.out in order to generate an atomic fitting density for atom 0 (Ag with ECP) on-the-fly... 
    atom 0 (Ag), assumed electronic state with S=2: 1s2 2s2 2p6 3s2 3p6 4s2 3d10 4p6 5s2 4d9           ... done
Calculating cut-offs                               ... done
Setting up the integral package                    ... done
Initializing the effective Hamiltonian             ... done
Starting the Coulomb interaction                   ... done (   0.0 sec)
Reading the grid                                   ... done
Mapping shells                                     ... done
Starting the XC term evaluation                    ... done (   0.0 sec)
  promolecular density results
     # of electrons  =     48.000708508
     EX              =   -143.701119984
     EC              =     -2.507503173
     EX+EC           =   -146.208623157
Transforming the Hamiltonian                       ... done (   0.0 sec)
Diagonalizing the Hamiltonian                      ... done (   0.0 sec)
Back transforming the eigenvectors                 ... done (   0.0 sec)
Now organizing SCF variables                       ... done
                      ------------------
                      INITIAL GUESS DONE (   1.8 sec)
                      ------------------
--------------
SCF ITERATIONS
--------------
ITER       Energy         Delta-E        Max-DP      RMS-DP      [F,P]     Damp
               ***  Starting incremental Fock matrix formation  ***
  0   -147.3960994456   0.000000000000 0.10247477  0.00341692  0.5074111 0.7000
  1   -147.4475689967  -0.051469551067 0.04118619  0.00178748  0.3289488 0.7000
  2   -147.4653720231  -0.017803026448 0.02400210  0.00080300  0.2170807 0.7000
                               ***Turning on DIIS***
  3   -147.4767722467  -0.011400223551 0.01855375  0.00048660  0.1491020 0.7000
  4   -147.4849295167  -0.008157269981 0.00533152  0.00021665  0.1046431 0.7000
  5   -147.4906789707  -0.005749454023 0.01286090  0.00044505  0.0733881 0.0000
  6   -147.5041071113  -0.013428140631 0.00262672  0.00011504  0.0030177 0.0000
  7   -147.5041222013  -0.000015090008 0.00140307  0.00004624  0.0010792 0.0000
  8   -147.5041263331  -0.000004131787 0.00256056  0.00005995  0.0004292 0.0000
  9   -147.5041271915  -0.000000858392 0.00032225  0.00001328  0.0004575 0.0000
 10   -147.5041276613  -0.000000469787 0.00034607  0.00000739  0.0001438 0.0000
 11   -147.5041277100  -0.000000048672 0.00013792  0.00000251  0.0000453 0.0000
 12   -147.5041277145  -0.000000004498 0.00000560  0.00000016  0.0000022 0.0000
                 **** Energy Check signals convergence ****

               *****************************************************
               *                     SUCCESS                       *
               *           SCF CONVERGED AFTER  13 CYCLES          *
               *****************************************************


----------------
TOTAL SCF ENERGY
----------------

Total Energy       :         -147.50412771 Eh           -4013.79137 eV

Components:
Nuclear Repulsion  :            6.24396723 Eh             169.90699 eV
Electronic Energy  :         -153.74809494 Eh           -4183.69836 eV
One Electron Energy:         -273.85335879 Eh           -7451.92874 eV
Two Electron Energy:          120.10526385 Eh            3268.23038 eV

Virial components:
Potential Energy   :         -204.17351897 Eh           -5555.84390 eV
Kinetic Energy     :           56.66939125 Eh            1542.05253 eV
Virial Ratio       :            3.60288887


DFT components:
N(Alpha)           :        9.999999077350 electrons
N(Beta)            :        9.999999077350 electrons
N(Total)           :       19.999998154700 electrons
E(X)               :      -12.199037849840 Eh       
E(C)               :       -0.846706483896 Eh       
E(XC)              :      -13.045744333737 Eh       
DFET-embed. en.    :        0.000000000000 Eh       

---------------
SCF CONVERGENCE
---------------

  Last Energy change         ...   -3.3339e-11  Tolerance :   1.0000e-08
  Last MAX-Density change    ...    1.7943e-06  Tolerance :   1.0000e-07
  Last RMS-Density change    ...    3.3262e-08  Tolerance :   5.0000e-09
  Last DIIS Error            ...    3.3005e-07  Tolerance :   5.0000e-07

             **** THE GBW FILE WAS UPDATED (Ag01N0_H.gbw) ****
             **** DENSITY FILE WAS UPDATED (Ag01N0_H.scfp) ****
             **** ENERGY FILE WAS UPDATED (Ag01N0_H.en.tmp) ****
             **** THE GBW FILE WAS UPDATED (Ag01N0_H.gbw) ****
             **** DENSITY FILE WAS UPDATED (Ag01N0_H.scfp) ****
----------------
ORBITAL ENERGIES
----------------

  NO   OCC          E(Eh)            E(eV) 
   0   2.0000      -3.682547      -100.2072 
   1   2.0000      -2.292972       -62.3949 
   2   2.0000      -2.284244       -62.1574 
   3   2.0000      -2.284244       -62.1574 
   4   2.0000      -0.364684        -9.9235 
   5   2.0000      -0.313232        -8.5235 
   6   2.0000      -0.313232        -8.5235 
   7   2.0000      -0.304761        -8.2930 
   8   2.0000      -0.304761        -8.2930 
   9   2.0000      -0.228582        -6.2200 
  10   0.0000      -0.087412        -2.3786 
  11   0.0000      -0.008140        -0.2215 
  12   0.0000      -0.008140        -0.2215 
  13   0.0000       0.071035         1.9330 
  14   0.0000       0.091982         2.5030 
  15   0.0000       0.169547         4.6136 
  16   0.0000       0.169547         4.6136 
  17   0.0000       0.171015         4.6536 
  18   0.0000       0.215759         5.8711 
  19   0.0000       0.215759         5.8711 
  20   0.0000       0.380867        10.3639 
  21   0.0000       0.409338        11.1386 
  22   0.0000       0.409338        11.1386 
  23   0.0000       0.440846        11.9960 
  24   0.0000       0.514294        13.9946 
  25   0.0000       0.514294        13.9946 
  26   0.0000       0.580057        15.7842 
  27   0.0000       0.851234        23.1632 
  28   0.0000       0.851234        23.1632 
  29   0.0000       1.059786        28.8382 
  30   0.0000       1.562150        42.5083 
  31   0.0000       1.562156        42.5084 
  32   0.0000       1.573338        42.8127 
  33   0.0000       1.573338        42.8127 
  34   0.0000       1.589966        43.2652 
  35   0.0000       1.589966        43.2652 
  36   0.0000       1.642442        44.6931 
  37   0.0000       1.642442        44.6931 
  38   0.0000       1.654382        45.0180 
  39   0.0000       1.839452        50.0540 
  40   0.0000       2.007144        54.6172 
  41   0.0000       2.020090        54.9694 
  42   0.0000       2.020096        54.9696 
  43   0.0000       2.083655        56.6991 
  44   0.0000       2.083655        56.6991 
  45   0.0000       2.231854        60.7318 
  46   0.0000       2.708989        73.7153 
  47   0.0000       3.284869        89.3858 
  48   0.0000       3.284983        89.3889 
  49   0.0000       3.495271        95.1111 
  50   0.0000       3.495271        95.1111 
  51   0.0000       3.968324       107.9836 
  52   0.0000       3.968324       107.9836 
  53   0.0000       3.984181       108.4151 
  54   0.0000       4.578432       124.5855 
  55   0.0000       4.791817       130.3920 
  56   0.0000       4.791817       130.3920 
  57   0.0000       4.804481       130.7366 
  58   0.0000       4.804488       130.7368 
  59   0.0000       4.984872       135.6453 
  60   0.0000       4.984872       135.6453 
  61   0.0000       5.194200       141.3414 
  62   0.0000       5.555753       151.1797 
  63   0.0000       5.555753       151.1797 
  64   0.0000       5.557452       151.2259 
  65   0.0000       5.557459       151.2261 
  66   0.0000       5.560204       151.3008 
  67   0.0000       5.560234       151.3017 
  68   0.0000       5.693049       154.9157 
  69   0.0000       5.693049       154.9157 
  70   0.0000       6.164343       167.7403 
  71   0.0000      33.488428       911.2664 
  72   0.0000     110.788250      3014.7015 

                    ********************************
                    * MULLIKEN POPULATION ANALYSIS *
                    ********************************

-----------------------
MULLIKEN ATOMIC CHARGES
-----------------------
   0 Ag:   -0.041678
   1 H :    0.041678
Sum of atomic charges:   -0.0000000

--------------------------------
MULLIKEN REDUCED ORBITAL CHARGES
--------------------------------
  0 Ags       :     3.075201  s :     3.075201
      pz      :     2.105961  p :     6.106757
      px      :     2.000398
      py      :     2.000398
      dz2     :     1.877458  d :     9.858159
      dxz     :     1.990499
      dyz     :     1.990499
      dx2y2   :     1.999852
      dxy     :     1.999852
      f0      :     0.001164  f :     0.001519
      f+1     :     0.000077
      f-1     :     0.000077
      f+2     :     0.000101
      f-2     :     0.000101
      f+3     :     0.000000
      f-3     :     0.000000
      g0      :     0.000032  g :     0.000043
      g+1     :     0.000004
      g-1     :     0.000004
      g+2     :     0.000001
      g-2     :     0.000001
      g+3     :     0.000000
      g-3     :     0.000000
      g+4     :     0.000000
      g-4     :     0.000000
  1 H s       :     0.954726  s :     0.954726
      pz      :    -0.015320  p :     0.001549
      px      :     0.008434
      py      :     0.008434
      dz2     :     0.000777  d :     0.002047
      dxz     :     0.000588
      dyz     :     0.000588
      dx2y2   :     0.000047
      dxy     :     0.000047


                     *******************************
                     * LOEWDIN POPULATION ANALYSIS *
                     *******************************

----------------------
LOEWDIN ATOMIC CHARGES
----------------------
   0 Ag:    0.313585
   1 H :   -0.313585

-------------------------------
LOEWDIN REDUCED ORBITAL CHARGES
-------------------------------
  0 Ags       :     2.791829  s :     2.791829
      pz      :     2.076207  p :     6.073986
      px      :     1.998890
      py      :     1.998890
      dz2     :     1.881325  d :     9.817292
      dxz     :     1.968340
      dyz     :     1.968340
      dx2y2   :     1.999643
      dxy     :     1.999643
      f0      :     0.002580  f :     0.003260
      f+1     :     0.000237
      f-1     :     0.000237
      f+2     :     0.000103
      f-2     :     0.000103
      f+3     :     0.000000
      f-3     :     0.000000
      g0      :     0.000046  g :     0.000048
      g+1     :     0.000000
      g-1     :     0.000000
      g+2     :     0.000001
      g-2     :     0.000001
      g+3     :     0.000000
      g-3     :     0.000000
      g+4     :     0.000000
      g-4     :     0.000000
  1 H s       :     1.124384  s :     1.124384
      pz      :     0.113742  p :     0.169982
      px      :     0.028120
      py      :     0.028120
      dz2     :     0.009886  d :     0.019218
      dxz     :     0.004413
      dyz     :     0.004413
      dx2y2   :     0.000252
      dxy     :     0.000252


                      *****************************
                      * MAYER POPULATION ANALYSIS *
                      *****************************

  NA   - Mulliken gross atomic population
  ZA   - Total nuclear charge
  QA   - Mulliken gross atomic charge
  VA   - Mayer's total valence
  BVA  - Mayer's bonded valence
  FA   - Mayer's free valence

  ATOM       NA         ZA         QA         VA         BVA        FA
  0 Ag    19.0417    19.0000    -0.0417     1.0424     1.0424    -0.0000
  1 H      0.9583     1.0000     0.0417     1.0424     1.0424    -0.0000

  Mayer bond orders larger than 0.100000
B(  0-Ag,  1-H ) :   1.0424 

-------
TIMINGS
-------

Total SCF time: 0 days 0 hours 0 min 4 sec 

Total time                  ....       4.038 sec
Sum of individual times     ....       3.836 sec  ( 95.0%)

Fock matrix formation       ....       2.053 sec  ( 50.9%)
  XC integration            ....       0.297 sec  ( 14.5% of F)
    Basis function eval.    ....       0.014 sec  (  4.7% of XC)
    Density eval.           ....       0.016 sec  (  5.4% of XC)
    XC-Functional eval.     ....       0.015 sec  (  5.0% of XC)
    XC-Potential eval.      ....       0.028 sec  (  9.4% of XC)
Diagonalization             ....       0.012 sec  (  0.3%)
Density matrix formation    ....       0.003 sec  (  0.1%)
Population analysis         ....       0.002 sec  (  0.1%)
Initial guess               ....       1.636 sec  ( 40.5%)
Orbital Transformation      ....       0.000 sec  (  0.0%)
Orbital Orthonormalization  ....       0.000 sec  (  0.0%)
DIIS solution               ....       0.008 sec  (  0.2%)
Grid generation             ....       0.121 sec  (  3.0%)


-------------------------------------------------------------------------------
                          DFT DISPERSION CORRECTION                            
                                                                               
                              DFTD3 V3.1  Rev 1                                
                          USING Becke-Johnson damping                          
-------------------------------------------------------------------------------
The TPSSH functional is recognized
Active option DFTDOPT                   ...         4   

molecular C6(AA) [au] = 331.597041 


            DFT-D V3
 parameters
 s6 scaling factor         :     1.0000 
 a1 scaling factor         :     0.4529 
 s8 scaling factor         :     2.2382 
 a2 scaling factor         :     4.6550 
 ad hoc parameters k1-k3   :    16.0000     1.3333    -4.0000 

 Edisp/kcal,au: -0.294479366055  -0.000469282691 
 E6   /kcal   :  -0.122558446 
 E8   /kcal   :  -0.171920921 
 % E8         :  58.381313038 

-------------------------   ----------------
Dispersion correction           -0.000469283
-------------------------   ----------------


-------------------------   --------------------
FINAL SINGLE POINT ENERGY      -147.504596997186
-------------------------   --------------------



           ************************************************************
           *        Program running with 24 parallel MPI-processes    *
           *              working on a common directory               *
           ************************************************************
------------------------------------------------------------------------------
                         ORCA SCF GRADIENT CALCULATION
------------------------------------------------------------------------------

Gradient of the Kohn-Sham DFT energy:
Kohn-Sham wavefunction type      ... RKS
Hartree-Fock exchange scaling    ...    0.100
Number of operators              ...    1
Number of atoms                  ...    2
Basis set dimensions             ...   73
Integral neglect threshold       ... 2.5e-11
Integral primitive cutoff        ... 2.5e-12

Nuclear repulsion gradient       ... done
One Electron Gradient            
  ECP gradient                   ... done
Pre-screening matrix             ... done
Starting the two electron gradient:
Two electron gradient done
Exchange-correlation gradient    ... done
Dispersion correction            ... done

------------------
CARTESIAN GRADIENT
------------------

   1   Ag  :    0.000000005    0.000000003   -0.001312418
   2   H   :   -0.000000001   -0.000000001    0.001624529

Difference to translation invariance:
           :    0.0000000047    0.0000000018    0.0003121116

Norm of the cartesian gradient     ...    0.0020884288
RMS gradient                       ...    0.0008525975
MAX gradient                       ...    0.0016245292

-------
TIMINGS
-------

Total SCF gradient time            ...        0.454 sec

One electron gradient       ....       0.087 sec  ( 19.1%)
Prescreening matrices       ....       0.006 sec  (  1.3%)
Two electron gradient       ....       0.169 sec  ( 37.1%)
XC gradient                 ....       0.008 sec  (  1.7%)
------------------------------------------------------------------------------
                         ORCA GEOMETRY RELAXATION STEP
------------------------------------------------------------------------------

Reading the OPT-File                    .... done
Getting information on internals        .... done
Copying old internal coords+grads       .... done
Making the new internal coordinates     .... (new redundants).... done
Validating the new internal coordinates .... (new redundants).... done
Calculating the B-matrix                .... done
Calculating the G,G- and P matrices     .... done
Transforming gradient to internals      .... done
Projecting the internal gradient        .... done
Number of atoms                         ....   2
Number of internal coordinates          ....   1
Current Energy                          ....  -147.504596997 Eh
Current gradient norm                   ....     0.002088429 Eh/bohr
Maximum allowed component of the step   ....  0.300
Current trust radius                    ....  0.300
Evaluating the initial hessian          ....  (Almloef) done
Projecting the Hessian                  .... done
Forming the augmented Hessian           .... done
Diagonalizing the augmented Hessian     .... done
Last element of RFO vector              ....  0.999996288
Lowest eigenvalues of augmented Hessian:
 -0.000004001
Length of the computed step             ....  0.002724868
The final length of the internal step   ....  0.002724868
Converting the step to cartesian space:
 Initial RMS(Int)=    0.0027248676
Transforming coordinates:
 Iter   0:  RMS(Cart)=    0.0007866015 RMS(Int)=    0.0027248676
 Iter   1:  RMS(Cart)=    0.0000000000 RMS(Int)=    0.0000000000
done
Storing new coordinates                 .... done

                                .--------------------.
          ----------------------|Geometry convergence|-------------------------
          Item                value                   Tolerance       Converged
          ---------------------------------------------------------------------
          RMS gradient        0.0014684734            0.0001000000      NO
          MAX gradient        0.0014684734            0.0003000000      NO
          RMS step            0.0027248676            0.0020000000      NO
          MAX step            0.0027248676            0.0040000000      YES
          ........................................................
          Max(Bonds)      0.0014      Max(Angles)    0.00
          Max(Dihed)        0.00      Max(Improp)    0.00
          ---------------------------------------------------------------------

The optimization has not yet converged - more geometry cycles are needed


    ---------------------------------------------------------------------------
                         Redundant Internal Coordinates
                            (Angstroem and degrees)

        Definition                    Value    dE/dq     Step     New-Value
    ----------------------------------------------------------------------------
     1. B(H   1,Ag  0)                1.6103 -0.001468  0.0014    1.6117   
    ----------------------------------------------------------------------------

         *************************************************************
         *                GEOMETRY OPTIMIZATION CYCLE   2            *
         *************************************************************
---------------------------------
CARTESIAN COORDINATES (ANGSTROEM)
---------------------------------
  Ag     0.000000    0.000000    0.034268
  H      0.000000    0.000000   -1.577427

----------------------------
CARTESIAN COORDINATES (A.U.)
----------------------------
  NO LB      ZA    FRAG     MASS         X           Y           Z
   0 Ag   19.0000*   0   107.870    0.000000    0.000000    0.064757
   1 H     1.0000    0     1.008    0.000000    0.000000   -2.980905
* core charge reduced due to ECP

--------------------------------
INTERNAL COORDINATES (ANGSTROEM)
--------------------------------
 Ag     0   0   0     0.000000000000     0.00000000     0.00000000
 H      1   0   0     1.611694937806     0.00000000     0.00000000

---------------------------
INTERNAL COORDINATES (A.U.)
---------------------------
 Ag     0   0   0     0.000000000000     0.00000000     0.00000000
 H      1   0   0     3.045662043880     0.00000000     0.00000000



           ************************************************************
           *        Program running with 24 parallel MPI-processes    *
           *              working on a common directory               *
           ************************************************************


           ************************************************************
           *        Program running with 24 parallel MPI-processes    *
           *              working on a common directory               *
           ************************************************************

Diagonalization of the overlap matrix:
Smallest eigenvalue                        ... 3.335e-03
Time for diagonalization                   ...    0.002 sec
Threshold for overlap eigenvalues          ... 1.000e-08
Number of eigenvalues below threshold      ... 0
Time for construction of square roots      ...    0.001 sec
Total time needed                          ...    0.004 sec

-------------------
DFT GRID GENERATION
-------------------

General Integration Accuracy     IntAcc      ...  4.670
Radial Grid Type                 RadialGrid  ... Gauss-Chebyshev
Angular Grid (max. acc.)         AngularGrid ... Lebedev-302
Angular grid pruning method      GridPruning ... 3 (G Style)
Weight generation scheme         WeightScheme... Becke
Basis function cutoff            BFCut       ...    1.0000e-11
Integration weight cutoff        WCut        ...    1.0000e-14
Grids for H and He will be reduced by one unit

# of grid points (after initial pruning)     ...  14052 (   0.0 sec)
# of grid points (after weights+screening)   ...  13996 (   0.0 sec)
nearest neighbour list constructed           ...    0.0 sec
Grid point re-assignment to atoms done       ...    0.0 sec
Grid point division into batches done        ...    0.1 sec
Reduced shell lists constructed in    0.1 sec

Total number of grid points                  ...    13996
Total number of batches                      ...      220
Average number of points per batch           ...       63
Average number of grid points per atom       ...     6998
Average number of shells per batch           ...     2.27 ( 9.88%)
Average number of basis functions per batch  ...     4.82 ( 6.60%)
Average number of large shells per batch     ...     2.09 (92.00%)
Average number of large basis fcns per batch ...     4.09 (84.91%)
Maximum spatial batch extension              ...  40.43, 36.77, 24.60 au
Average spatial batch extension              ...   1.31,  1.23,  0.88 au

Time for grid setup =    0.122 sec

--------------
SCF ITERATIONS
--------------
ITER       Energy         Delta-E        Max-DP      RMS-DP      [F,P]     Damp
               ***  Starting incremental Fock matrix formation  ***
  0   -147.5041314565   0.000000000000 0.00014251  0.00000312  0.0019237 0.7000
  1   -147.5041315113  -0.000000054817 0.00017247  0.00000348  0.0013498 0.7000
                               ***Turning on DIIS***
  2   -147.5041315537  -0.000000042371 0.00069153  0.00001298  0.0009456 0.0000
  3   -147.5041316651  -0.000000111409 0.00004536  0.00000146  0.0000277 0.0000
  4   -147.5041316654  -0.000000000315 0.00006101  0.00000121  0.0000230 0.0000
                 **** Energy Check signals convergence ****

               *****************************************************
               *                     SUCCESS                       *
               *           SCF CONVERGED AFTER   5 CYCLES          *
               *****************************************************

Total Energy       :         -147.50413167 Eh           -4013.79148 eV
  Last Energy change         ...   -1.2720e-09  Tolerance :   1.0000e-08
  Last MAX-Density change    ...    4.4772e-06  Tolerance :   1.0000e-07
             **** THE GBW FILE WAS UPDATED (Ag01N0_H.gbw) ****
             **** DENSITY FILE WAS UPDATED (Ag01N0_H.scfp) ****
             **** ENERGY FILE WAS UPDATED (Ag01N0_H.en.tmp) ****
             **** THE GBW FILE WAS UPDATED (Ag01N0_H.gbw) ****
             **** DENSITY FILE WAS UPDATED (Ag01N0_H.scfp) ****
Total SCF time: 0 days 0 hours 0 min 1 sec 


-------------------------------------------------------------------------------
                          DFT DISPERSION CORRECTION                            
                                                                               
                              DFTD3 V3.1  Rev 1                                
                          USING Becke-Johnson damping                          
-------------------------------------------------------------------------------
-------------------------   ----------------
Dispersion correction           -0.000469307
-------------------------   ----------------


-------------------------   --------------------
FINAL SINGLE POINT ENERGY      -147.504600973463
-------------------------   --------------------



           ************************************************************
           *        Program running with 24 parallel MPI-processes    *
           *              working on a common directory               *
           ************************************************************
------------------------------------------------------------------------------
                         ORCA SCF GRADIENT CALCULATION
------------------------------------------------------------------------------

Gradient of the Kohn-Sham DFT energy:
Kohn-Sham wavefunction type      ... RKS
Hartree-Fock exchange scaling    ...    0.100
Number of operators              ...    1
Number of atoms                  ...    2
Basis set dimensions             ...   73
Integral neglect threshold       ... 2.5e-11
Integral primitive cutoff        ... 2.5e-12

Nuclear repulsion gradient       ... done
One Electron Gradient            
  ECP gradient                   ... done
Pre-screening matrix             ... done
Starting the two electron gradient:
Two electron gradient done
Exchange-correlation gradient    ... done
Dispersion correction            ... done

------------------
CARTESIAN GRADIENT
------------------

   1   Ag  :    0.000000009   -0.000000000   -0.000974986
   2   H   :   -0.000000001    0.000000000    0.001285978

Difference to translation invariance:
           :    0.0000000084   -0.0000000003    0.0003109921

Norm of the cartesian gradient     ...    0.0016137960
RMS gradient                       ...    0.0006588295
MAX gradient                       ...    0.0012859782

-------
TIMINGS
-------

Total SCF gradient time            ...        0.454 sec

One electron gradient       ....       0.085 sec  ( 18.7%)
Prescreening matrices       ....       0.006 sec  (  1.4%)
Two electron gradient       ....       0.169 sec  ( 37.2%)
XC gradient                 ....       0.008 sec  (  1.7%)
------------------------------------------------------------------------------
                         ORCA GEOMETRY RELAXATION STEP
------------------------------------------------------------------------------

Reading the OPT-File                    .... done
Getting information on internals        .... done
Copying old internal coords+grads       .... done
Making the new internal coordinates     .... (new redundants).... done
Validating the new internal coordinates .... (new redundants).... done
Calculating the B-matrix                .... done
Calculating the G,G- and P matrices     .... done
Transforming gradient to internals      .... done
Projecting the internal gradient        .... done
Number of atoms                         ....   2
Number of internal coordinates          ....   1
Current Energy                          ....  -147.504600973 Eh
Current gradient norm                   ....     0.001613796 Eh/bohr
Maximum allowed component of the step   ....  0.300
Current trust radius                    ....  0.300
Updating the Hessian (BFGS)             .... done
Forming the augmented Hessian           .... done
Diagonalizing the augmented Hessian     .... done
Last element of RFO vector              ....  0.999958478
Lowest eigenvalues of augmented Hessian:
 -0.000010302
Length of the computed step             ....  0.009113129
The final length of the internal step   ....  0.009113129
Converting the step to cartesian space:
 Initial RMS(Int)=    0.0091131294
Transforming coordinates:
 Iter   0:  RMS(Cart)=    0.0026307339 RMS(Int)=    0.0091131294
 Iter   1:  RMS(Cart)=    0.0000000000 RMS(Int)=    0.0000000000
done
Storing new coordinates                 .... done

                                .--------------------.
          ----------------------|Geometry convergence|-------------------------
          Item                value                   Tolerance       Converged
          ---------------------------------------------------------------------
          Energy change      -0.0000039763            0.0000050000      YES
          RMS gradient        0.0011304821            0.0001000000      NO
          MAX gradient        0.0011304821            0.0003000000      NO
          RMS step            0.0091131294            0.0020000000      NO
          MAX step            0.0091131294            0.0040000000      NO
          ........................................................
          Max(Bonds)      0.0048      Max(Angles)    0.00
          Max(Dihed)        0.00      Max(Improp)    0.00
          ---------------------------------------------------------------------

The optimization has not yet converged - more geometry cycles are needed


    ---------------------------------------------------------------------------
                         Redundant Internal Coordinates
                            (Angstroem and degrees)

        Definition                    Value    dE/dq     Step     New-Value
    ----------------------------------------------------------------------------
     1. B(H   1,Ag  0)                1.6117 -0.001130  0.0048    1.6165   
    ----------------------------------------------------------------------------

         *************************************************************
         *                GEOMETRY OPTIMIZATION CYCLE   3            *
         *************************************************************
---------------------------------
CARTESIAN COORDINATES (ANGSTROEM)
---------------------------------
  Ag     0.000000    0.000000    0.036679
  H      0.000000    0.000000   -1.579838

----------------------------
CARTESIAN COORDINATES (A.U.)
----------------------------
  NO LB      ZA    FRAG     MASS         X           Y           Z
   0 Ag   19.0000*   0   107.870    0.000000    0.000000    0.069314
   1 H     1.0000    0     1.008    0.000000    0.000000   -2.985462
* core charge reduced due to ECP

--------------------------------
INTERNAL COORDINATES (ANGSTROEM)
--------------------------------
 Ag     0   0   0     0.000000000000     0.00000000     0.00000000
 H      1   0   0     1.616517398173     0.00000000     0.00000000

---------------------------
INTERNAL COORDINATES (A.U.)
---------------------------
 Ag     0   0   0     0.000000000000     0.00000000     0.00000000
 H      1   0   0     3.054775173265     0.00000000     0.00000000



           ************************************************************
           *        Program running with 24 parallel MPI-processes    *
           *              working on a common directory               *
           ************************************************************


           ************************************************************
           *        Program running with 24 parallel MPI-processes    *
           *              working on a common directory               *
           ************************************************************

Diagonalization of the overlap matrix:
Smallest eigenvalue                        ... 3.397e-03
Time for diagonalization                   ...    0.002 sec
Threshold for overlap eigenvalues          ... 1.000e-08
Number of eigenvalues below threshold      ... 0
Time for construction of square roots      ...    0.001 sec
Total time needed                          ...    0.003 sec

-------------------
DFT GRID GENERATION
-------------------

General Integration Accuracy     IntAcc      ...  4.670
Radial Grid Type                 RadialGrid  ... Gauss-Chebyshev
Angular Grid (max. acc.)         AngularGrid ... Lebedev-302
Angular grid pruning method      GridPruning ... 3 (G Style)
Weight generation scheme         WeightScheme... Becke
Basis function cutoff            BFCut       ...    1.0000e-11
Integration weight cutoff        WCut        ...    1.0000e-14
Grids for H and He will be reduced by one unit

# of grid points (after initial pruning)     ...  14052 (   0.0 sec)
# of grid points (after weights+screening)   ...  13996 (   0.0 sec)
nearest neighbour list constructed           ...    0.0 sec
Grid point re-assignment to atoms done       ...    0.0 sec
Grid point division into batches done        ...    0.1 sec
Reduced shell lists constructed in    0.1 sec

Total number of grid points                  ...    13996
Total number of batches                      ...      220
Average number of points per batch           ...       63
Average number of grid points per atom       ...     6998
Average number of shells per batch           ...     2.27 ( 9.88%)
Average number of basis functions per batch  ...     4.82 ( 6.60%)
Average number of large shells per batch     ...     2.09 (92.00%)
Average number of large basis fcns per batch ...     4.09 (84.91%)
Maximum spatial batch extension              ...  40.43, 36.77, 24.61 au
Average spatial batch extension              ...   1.32,  1.23,  0.90 au

Time for grid setup =    0.128 sec

--------------
SCF ITERATIONS
--------------
ITER       Energy         Delta-E        Max-DP      RMS-DP      [F,P]     Damp
               ***  Starting incremental Fock matrix formation  ***
  0   -147.5041358981   0.000000000000 0.00047651  0.00001046  0.0063793 0.7000
  1   -147.5041365074  -0.000000609264 0.00057606  0.00001163  0.0044761 0.7000
                               ***Turning on DIIS***
  2   -147.5041369776  -0.000000470243 0.00179314  0.00003453  0.0031359 0.0000
  3   -147.5041381722  -0.000001194572 0.00073352  0.00001454  0.0000774 0.0000
  4   -147.5041382110  -0.000000038836 0.00016637  0.00000337  0.0001036 0.0000
  5   -147.5041382319  -0.000000020863 0.00002912  0.00000101  0.0000144 0.0000
  6   -147.5041382323  -0.000000000415 0.00001080  0.00000044  0.0000119 0.0000
  7   -147.5041382326  -0.000000000283 0.00000810  0.00000018  0.0000053 0.0000
                            ***DIIS convergence achieved***

               *****************************************************
               *                     SUCCESS                       *
               *           SCF CONVERGED AFTER   8 CYCLES          *
               *****************************************************

Total Energy       :         -147.50413823 Eh           -4013.79166 eV
  Last Energy change         ...   -2.9416e-11  Tolerance :   1.0000e-08
  Last MAX-Density change    ...    5.1591e-07  Tolerance :   1.0000e-07
             **** THE GBW FILE WAS UPDATED (Ag01N0_H.gbw) ****
             **** DENSITY FILE WAS UPDATED (Ag01N0_H.scfp) ****
             **** ENERGY FILE WAS UPDATED (Ag01N0_H.en.tmp) ****
             **** THE GBW FILE WAS UPDATED (Ag01N0_H.gbw) ****
             **** DENSITY FILE WAS UPDATED (Ag01N0_H.scfp) ****
Total SCF time: 0 days 0 hours 0 min 1 sec 


-------------------------------------------------------------------------------
                          DFT DISPERSION CORRECTION                            
                                                                               
                              DFTD3 V3.1  Rev 1                                
                          USING Becke-Johnson damping                          
-------------------------------------------------------------------------------
-------------------------   ----------------
Dispersion correction           -0.000469391
-------------------------   ----------------


-------------------------   --------------------
FINAL SINGLE POINT ENERGY      -147.504607623882
-------------------------   --------------------



           ************************************************************
           *        Program running with 24 parallel MPI-processes    *
           *              working on a common directory               *
           ************************************************************
------------------------------------------------------------------------------
                         ORCA SCF GRADIENT CALCULATION
------------------------------------------------------------------------------

Gradient of the Kohn-Sham DFT energy:
Kohn-Sham wavefunction type      ... RKS
Hartree-Fock exchange scaling    ...    0.100
Number of operators              ...    1
Number of atoms                  ...    2
Basis set dimensions             ...   73
Integral neglect threshold       ... 2.5e-11
Integral primitive cutoff        ... 2.5e-12

Nuclear repulsion gradient       ... done
One Electron Gradient            
  ECP gradient                   ... done
Pre-screening matrix             ... done
Starting the two electron gradient:
Two electron gradient done
Exchange-correlation gradient    ... done
Dispersion correction            ... done

------------------
CARTESIAN GRADIENT
------------------

   1   Ag  :    0.000000009    0.000000001    0.000142044
   2   H   :   -0.000000001    0.000000001    0.000165154

Difference to translation invariance:
           :    0.0000000081    0.0000000012    0.0003071980

Norm of the cartesian gradient     ...    0.0002178356
RMS gradient                       ...    0.0000889310
MAX gradient                       ...    0.0001651541

-------
TIMINGS
-------

Total SCF gradient time            ...        0.453 sec

One electron gradient       ....       0.083 sec  ( 18.3%)
Prescreening matrices       ....       0.005 sec  (  1.2%)
Two electron gradient       ....       0.169 sec  ( 37.2%)
XC gradient                 ....       0.008 sec  (  1.7%)
------------------------------------------------------------------------------
                         ORCA GEOMETRY RELAXATION STEP
------------------------------------------------------------------------------

Reading the OPT-File                    .... done
Getting information on internals        .... done
Copying old internal coords+grads       .... done
Making the new internal coordinates     .... (new redundants).... done
Validating the new internal coordinates .... (new redundants).... done
Calculating the B-matrix                .... done
Calculating the G,G- and P matrices     .... done
Transforming gradient to internals      .... done
Projecting the internal gradient        .... done
Number of atoms                         ....   2
Number of internal coordinates          ....   1
Current Energy                          ....  -147.504607624 Eh
Current gradient norm                   ....     0.000217836 Eh/bohr
Maximum allowed component of the step   ....  0.300
Current trust radius                    ....  0.300
Updating the Hessian (BFGS)             .... done
Forming the augmented Hessian           .... done
Diagonalizing the augmented Hessian     .... done
Last element of RFO vector              ....  0.999999996
Lowest eigenvalues of augmented Hessian:
 -0.000000001
Length of the computed step             ....  0.000094111
The final length of the internal step   ....  0.000094111
Converting the step to cartesian space:
 Initial RMS(Int)=    0.0000941109
Transforming coordinates:
 Iter   0:  RMS(Cart)=    0.0000271675 RMS(Int)=    0.0000941109
 Iter   1:  RMS(Cart)=    0.0000000000 RMS(Int)=    0.0000000000
done
Storing new coordinates                 .... done

                                .--------------------.
          ----------------------|Geometry convergence|-------------------------
          Item                value                   Tolerance       Converged
          ---------------------------------------------------------------------
          Energy change      -0.0000066504            0.0000050000      NO
          RMS gradient        0.0000115551            0.0001000000      YES
          MAX gradient        0.0000115551            0.0003000000      YES
          RMS step            0.0000941109            0.0020000000      YES
          MAX step            0.0000941109            0.0040000000      YES
          ........................................................
          Max(Bonds)      0.0000      Max(Angles)    0.00
          Max(Dihed)        0.00      Max(Improp)    0.00
          ---------------------------------------------------------------------

       Everything but the energy has converged. However, the energy
       appears to be close enough to convergence to make sure that the
       final evaluation at the new geometry represents the equilibrium energy.
       Convergence will therefore be signaled now


                    ***********************HURRAY********************
                    ***        THE OPTIMIZATION HAS CONVERGED     ***
                    *************************************************


    ---------------------------------------------------------------------------
                         Redundant Internal Coordinates

                          --- Optimized Parameters ---  
                            (Angstroem and degrees)

        Definition                    OldVal   dE/dq     Step     FinalVal
    ----------------------------------------------------------------------------
     1. B(H   1,Ag  0)                1.6165 -0.000012  0.0000    1.6166   
    ----------------------------------------------------------------------------
                 *******************************************************
                 *** FINAL ENERGY EVALUATION AT THE STATIONARY POINT ***
                 ***               (AFTER    3 CYCLES)               ***
                 *******************************************************
---------------------------------
CARTESIAN COORDINATES (ANGSTROEM)
---------------------------------
  Ag     0.000000    0.000000    0.036704
  H      0.000000    0.000000   -1.579863

----------------------------
CARTESIAN COORDINATES (A.U.)
----------------------------
  NO LB      ZA    FRAG     MASS         X           Y           Z
   0 Ag   19.0000*   0   107.870    0.000000    0.000000    0.069361
   1 H     1.0000    0     1.008    0.000000    0.000000   -2.985509
* core charge reduced due to ECP

--------------------------------
INTERNAL COORDINATES (ANGSTROEM)
--------------------------------
 Ag     0   0   0     0.000000000000     0.00000000     0.00000000
 H      1   0   0     1.616567199495     0.00000000     0.00000000

---------------------------
INTERNAL COORDINATES (A.U.)
---------------------------
 Ag     0   0   0     0.000000000000     0.00000000     0.00000000
 H      1   0   0     3.054869284126     0.00000000     0.00000000

---------------------
BASIS SET INFORMATION
---------------------
There are 2 groups of distinct atoms

 Group   1 Type Ag  : 7s7p6d2f1g contracted to 6s4p3d2f1g pattern {211111/4111/411/11/1}
 Group   2 Type H   : 5s3p1d contracted to 3s3p1d pattern {311/111/1}

Atom   0Ag   basis set group =>   1
Atom   1H    basis set group =>   2
----------------------------------
AUXILIARY/JK BASIS SET INFORMATION
----------------------------------
There are 2 groups of distinct atoms

 Group   1 Type Ag  : 13s12p10d9f6g3h2i contracted to 11s10p9d8f6g3h2i pattern {31111111111/3111111111/211111111/21111111/111111/111/11}
 Group   2 Type H   : 4s2p2d contracted to 2s2p2d pattern {31/11/11}

Atom   0Ag   basis set group =>   1
Atom   1H    basis set group =>   2
-------------------------
ECP PARAMETER INFORMATION
-------------------------

 Group 1, Type Ag ECP Def2-ECP (replacing 28 core electrons, lmax=3)

Atom   0Ag   ECP group =>   1



           ************************************************************
           *        Program running with 24 parallel MPI-processes    *
           *              working on a common directory               *
           ************************************************************
------------------------------------------------------------------------------
                           ORCA GTO INTEGRAL CALCULATION
------------------------------------------------------------------------------

                         BASIS SET STATISTICS AND STARTUP INFO

 # of primitive gaussian shells          ...   32
 # of primitive gaussian functions       ...  100
 # of contracted shells                  ...   23
 # of contracted basis functions         ...   73
 Highest angular momentum                ...    4
 Maximum contraction depth               ...    4
 Integral package used                   ... LIBINT
 Integral threshhold            Thresh   ...  2.500e-11
 Primitive cut-off              TCut     ...  2.500e-12


------------------------------ INTEGRAL EVALUATION ----------------------------


 * One electron integrals 

   ECP integrals                         ... done
 Pre-screening matrix                    ... done
 Shell pair data                         ... done (   0.000 sec)



           ************************************************************
           *        Program running with 24 parallel MPI-processes    *
           *              working on a common directory               *
           ************************************************************
-------------------------------------------------------------------------------
                                 ORCA SCF
-------------------------------------------------------------------------------

------------
SCF SETTINGS
------------
Hamiltonian:
 Density Functional     Method          .... DFT(GTOs)
 Exchange Functional    Exchange        .... TPSS
 Correlation Functional Correlation     .... TPSS
 LDA part of GGA corr.  LDAOpt          .... PW91-LDA
 Gradients option       PostSCFGGA      .... off
 Hybrid DFT is turned on
   Fraction HF Exchange ScalHFX         ....  0.100000
   Scaling of DF-GGA-X  ScalDFX         ....  0.900000
   Scaling of DF-GGA-C  ScalDFC         ....  1.000000
   Scaling of DF-LDA-C  ScalLDAC        ....  1.000000
   Perturbative correction              ....  0.000000
   Density functional embedding theory  .... OFF
   NL short-range parameter             ....  5.200000


General Settings:
 Integral files         IntName         .... Ag01N0_H
 Hartree-Fock type      HFTyp           .... RHF
 Total Charge           Charge          ....    0
 Multiplicity           Mult            ....    1
 Number of Electrons    NEL             ....   20
 Basis Dimension        Dim             ....   73
 Nuclear Repulsion      ENuc            ....      6.2195787226 Eh

Convergence Acceleration:
 DIIS                   CNVDIIS         .... on
   Start iteration      DIISMaxIt       ....    12
   Startup error        DIISStart       ....  0.200000
   # of expansion vecs  DIISMaxEq       ....     5
   Bias factor          DIISBfac        ....   1.050
   Max. coefficient     DIISMaxC        ....  10.000
 Newton-Raphson         CNVNR           .... off
 SOSCF                  CNVSOSCF        .... off
 Level Shifting         CNVShift        .... on
   Level shift para.    LevelShift      ....    0.2500
   Turn off err/grad.   ShiftErr        ....    0.0010
 Zerner damping         CNVZerner       .... off
 Static damping         CNVDamp         .... on
   Fraction old density DampFac         ....    0.7000
   Max. Damping (<1)    DampMax         ....    0.9800
   Min. Damping (>=0)   DampMin         ....    0.0000
   Turn off err/grad.   DampErr         ....    0.1000
 Fernandez-Rico         CNVRico         .... off

SCF Procedure:
 Maximum # iterations   MaxIter         ....   125
 SCF integral mode      SCFMode         .... Direct
   Integral package                     .... LIBINT
 Reset frequency        DirectResetFreq ....    20
 Integral Threshold     Thresh          ....  2.500e-11 Eh
 Primitive CutOff       TCut            ....  2.500e-12 Eh

Convergence Tolerance:
 Convergence Check Mode ConvCheckMode   .... Total+1el-Energy
 Convergence forced     ConvForced      .... 0
 Energy Change          TolE            ....  1.000e-08 Eh
 1-El. energy change                    ....  1.000e-05 Eh
 DIIS Error             TolErr          ....  5.000e-07


Diagonalization of the overlap matrix:
Smallest eigenvalue                        ... 3.398e-03
Time for diagonalization                   ...    0.002 sec
Threshold for overlap eigenvalues          ... 1.000e-08
Number of eigenvalues below threshold      ... 0
Time for construction of square roots      ...    0.001 sec
Total time needed                          ...    0.003 sec

---------------------
INITIAL GUESS: MOREAD
---------------------
Guess MOs are being read from file: Ag01N0_H.gbw
Input Geometry matches current geometry (good)
Input basis set matches current basis set (good)
MOs were renormalized
MOs were reorthogonalized (Cholesky)
                      ------------------
                      INITIAL GUESS DONE (   0.0 sec)
                      ------------------
-------------------
DFT GRID GENERATION
-------------------

General Integration Accuracy     IntAcc      ...  4.670
Radial Grid Type                 RadialGrid  ... Gauss-Chebyshev
Angular Grid (max. acc.)         AngularGrid ... Lebedev-302
Angular grid pruning method      GridPruning ... 3 (G Style)
Weight generation scheme         WeightScheme... Becke
Basis function cutoff            BFCut       ...    1.0000e-11
Integration weight cutoff        WCut        ...    1.0000e-14
Grids for H and He will be reduced by one unit

# of grid points (after initial pruning)     ...  14052 (   0.0 sec)
# of grid points (after weights+screening)   ...  13996 (   0.0 sec)
nearest neighbour list constructed           ...    0.0 sec
Grid point re-assignment to atoms done       ...    0.0 sec
Grid point division into batches done        ...    0.1 sec
Reduced shell lists constructed in    0.1 sec

Total number of grid points                  ...    13996
Total number of batches                      ...      220
Average number of points per batch           ...       63
Average number of grid points per atom       ...     6998
Average number of shells per batch           ...     2.27 ( 9.88%)
Average number of basis functions per batch  ...     4.82 ( 6.60%)
Average number of large shells per batch     ...     2.09 (92.00%)
Average number of large basis fcns per batch ...     4.09 (84.91%)
Maximum spatial batch extension              ...  40.43, 36.77, 24.61 au
Average spatial batch extension              ...   1.31,  1.23,  0.89 au

Time for grid setup =    0.131 sec

--------------
SCF ITERATIONS
--------------
ITER       Energy         Delta-E        Max-DP      RMS-DP      [F,P]     Damp
               ***  Starting incremental Fock matrix formation  ***
  0   -147.5041382446   0.000000000000 0.00000449  0.00000010  0.0000655 0.7000
                 **** Energy Check signals convergence ****

               *****************************************************
               *                     SUCCESS                       *
               *           SCF CONVERGED AFTER   1 CYCLES          *
               *****************************************************


----------------
TOTAL SCF ENERGY
----------------

Total Energy       :         -147.50413824 Eh           -4013.79166 eV

Components:
Nuclear Repulsion  :            6.21957872 Eh             169.24334 eV
Electronic Energy  :         -153.72371697 Eh           -4183.03500 eV
One Electron Energy:         -273.81023200 Eh           -7450.75520 eV
Two Electron Energy:          120.08651504 Eh            3267.72020 eV

Virial components:
Potential Energy   :         -204.17324655 Eh           -5555.83649 eV
Kinetic Energy     :           56.66910830 Eh            1542.04483 eV
Virial Ratio       :            3.60290205


DFT components:
N(Alpha)           :        9.999999003355 electrons
N(Beta)            :        9.999999003355 electrons
N(Total)           :       19.999998006709 electrons
E(X)               :      -12.198636170402 Eh       
E(C)               :       -0.846614388638 Eh       
E(XC)              :      -13.045250559041 Eh       
DFET-embed. en.    :        0.000000000000 Eh       

---------------
SCF CONVERGENCE
---------------

  Last Energy change         ...   -5.9458e-11  Tolerance :   1.0000e-08
  Last MAX-Density change    ...    1.4819e-06  Tolerance :   1.0000e-07
  Last RMS-Density change    ...    3.8629e-08  Tolerance :   5.0000e-09
  Last DIIS Error            ...    4.5960e-05  Tolerance :   5.0000e-07

             **** THE GBW FILE WAS UPDATED (Ag01N0_H.gbw) ****
             **** DENSITY FILE WAS UPDATED (Ag01N0_H.scfp) ****
             **** ENERGY FILE WAS UPDATED (Ag01N0_H.en.tmp) ****
             **** THE GBW FILE WAS UPDATED (Ag01N0_H.gbw) ****
             **** DENSITY FILE WAS UPDATED (Ag01N0_H.scfp) ****
----------------
ORBITAL ENERGIES
----------------

  NO   OCC          E(Eh)            E(eV) 
   0   2.0000      -3.682304      -100.2006 
   1   2.0000      -2.292612       -62.3851 
   2   2.0000      -2.284069       -62.1527 
   3   2.0000      -2.284069       -62.1527 
   4   2.0000      -0.363635        -9.8950 
   5   2.0000      -0.312970        -8.5163 
   6   2.0000      -0.312970        -8.5163 
   7   2.0000      -0.304660        -8.2902 
   8   2.0000      -0.304660        -8.2902 
   9   2.0000      -0.228647        -6.2218 
  10   0.0000      -0.087680        -2.3859 
  11   0.0000      -0.008124        -0.2211 
  12   0.0000      -0.008124        -0.2211 
  13   0.0000       0.071119         1.9353 
  14   0.0000       0.091648         2.4939 
  15   0.0000       0.169576         4.6144 
  16   0.0000       0.169576         4.6144 
  17   0.0000       0.170805         4.6478 
  18   0.0000       0.215549         5.8654 
  19   0.0000       0.215549         5.8654 
  20   0.0000       0.379936        10.3386 
  21   0.0000       0.409365        11.1394 
  22   0.0000       0.409365        11.1394 
  23   0.0000       0.441187        12.0053 
  24   0.0000       0.513914        13.9843 
  25   0.0000       0.513914        13.9843 
  26   0.0000       0.579472        15.7682 
  27   0.0000       0.851469        23.1697 
  28   0.0000       0.851469        23.1697 
  29   0.0000       1.058454        28.8020 
  30   0.0000       1.562455        42.5166 
  31   0.0000       1.562460        42.5167 
  32   0.0000       1.573364        42.8134 
  33   0.0000       1.573364        42.8134 
  34   0.0000       1.589737        43.2590 
  35   0.0000       1.589737        43.2590 
  36   0.0000       1.641261        44.6610 
  37   0.0000       1.641261        44.6610 
  38   0.0000       1.654399        45.0185 
  39   0.0000       1.836990        49.9870 
  40   0.0000       2.009489        54.6810 
  41   0.0000       2.020171        54.9716 
  42   0.0000       2.020178        54.9718 
  43   0.0000       2.083070        56.6832 
  44   0.0000       2.083070        56.6832 
  45   0.0000       2.225888        60.5695 
  46   0.0000       2.709163        73.7201 
  47   0.0000       3.285611        89.4060 
  48   0.0000       3.285725        89.4091 
  49   0.0000       3.491313        95.0035 
  50   0.0000       3.491313        95.0035 
  51   0.0000       3.968361       107.9846 
  52   0.0000       3.968361       107.9846 
  53   0.0000       3.979272       108.2815 
  54   0.0000       4.567842       124.2973 
  55   0.0000       4.791948       130.3955 
  56   0.0000       4.791948       130.3955 
  57   0.0000       4.804104       130.7263 
  58   0.0000       4.804112       130.7265 
  59   0.0000       4.983122       135.5976 
  60   0.0000       4.983122       135.5976 
  61   0.0000       5.195339       141.3724 
  62   0.0000       5.555894       151.1836 
  63   0.0000       5.555894       151.1836 
  64   0.0000       5.557284       151.2214 
  65   0.0000       5.557292       151.2216 
  66   0.0000       5.560273       151.3027 
  67   0.0000       5.560304       151.3036 
  68   0.0000       5.687245       154.7578 
  69   0.0000       5.687245       154.7578 
  70   0.0000       6.150775       167.3711 
  71   0.0000      33.481811       911.0864 
  72   0.0000     110.786460      3014.6528 

                    ********************************
                    * MULLIKEN POPULATION ANALYSIS *
                    ********************************

-----------------------
MULLIKEN ATOMIC CHARGES
-----------------------
   0 Ag:   -0.040028
   1 H :    0.040028
Sum of atomic charges:   -0.0000000

--------------------------------
MULLIKEN REDUCED ORBITAL CHARGES
--------------------------------
  0 Ags       :     3.070996  s :     3.070996
      pz      :     2.106351  p :     6.107160
      px      :     2.000405
      py      :     2.000405
      dz2     :     1.879368  d :     9.860321
      dxz     :     1.990623
      dyz     :     1.990623
      dx2y2   :     1.999853
      dxy     :     1.999853
      f0      :     0.001152  f :     0.001511
      f+1     :     0.000078
      f-1     :     0.000078
      f+2     :     0.000101
      f-2     :     0.000101
      f+3     :     0.000000
      f-3     :     0.000000
      g0      :     0.000031  g :     0.000041
      g+1     :     0.000004
      g-1     :     0.000004
      g+2     :     0.000001
      g-2     :     0.000001
      g+3     :     0.000000
      g-3     :     0.000000
      g+4     :     0.000000
      g-4     :     0.000000
  1 H s       :     0.956678  s :     0.956678
      pz      :    -0.015333  p :     0.001306
      px      :     0.008320
      py      :     0.008320
      dz2     :     0.000758  d :     0.001988
      dxz     :     0.000570
      dyz     :     0.000570
      dx2y2   :     0.000045
      dxy     :     0.000045


                     *******************************
                     * LOEWDIN POPULATION ANALYSIS *
                     *******************************

----------------------
LOEWDIN ATOMIC CHARGES
----------------------
   0 Ag:    0.310543
   1 H :   -0.310543

-------------------------------
LOEWDIN REDUCED ORBITAL CHARGES
-------------------------------
  0 Ags       :     2.790800  s :     2.790800
      pz      :     2.077234  p :     6.075116
      px      :     1.998941
      py      :     1.998941
      dz2     :     1.883194  d :     9.820285
      dxz     :     1.968892
      dyz     :     1.968892
      dx2y2   :     1.999653
      dxy     :     1.999653
      f0      :     0.002534  f :     0.003209
      f+1     :     0.000234
      f-1     :     0.000234
      f+2     :     0.000103
      f-2     :     0.000103
      f+3     :     0.000000
      f-3     :     0.000000
      g0      :     0.000045  g :     0.000047
      g+1     :     0.000000
      g-1     :     0.000000
      g+2     :     0.000001
      g-2     :     0.000001
      g+3     :     0.000000
      g-3     :     0.000000
      g+4     :     0.000000
      g-4     :     0.000000
  1 H s       :     1.124086  s :     1.124086
      pz      :     0.112598  p :     0.167943
      px      :     0.027673
      py      :     0.027673
      dz2     :     0.009508  d :     0.018514
      dxz     :     0.004260
      dyz     :     0.004260
      dx2y2   :     0.000243
      dxy     :     0.000243


                      *****************************
                      * MAYER POPULATION ANALYSIS *
                      *****************************

  NA   - Mulliken gross atomic population
  ZA   - Total nuclear charge
  QA   - Mulliken gross atomic charge
  VA   - Mayer's total valence
  BVA  - Mayer's bonded valence
  FA   - Mayer's free valence

  ATOM       NA         ZA         QA         VA         BVA        FA
  0 Ag    19.0400    19.0000    -0.0400     1.0420     1.0420     0.0000
  1 H      0.9600     1.0000     0.0400     1.0420     1.0420     0.0000

  Mayer bond orders larger than 0.100000
B(  0-Ag,  1-H ) :   1.0420 

-------
TIMINGS
-------

Total SCF time: 0 days 0 hours 0 min 0 sec 

Total time                  ....       0.601 sec
Sum of individual times     ....       0.415 sec  ( 69.0%)

Fock matrix formation       ....       0.275 sec  ( 45.8%)
  XC integration            ....       0.018 sec  (  6.7% of F)
    Basis function eval.    ....       0.002 sec  ( 10.7% of XC)
    Density eval.           ....       0.002 sec  ( 12.7% of XC)
    XC-Functional eval.     ....       0.002 sec  ( 11.5% of XC)
    XC-Potential eval.      ....       0.003 sec  ( 18.5% of XC)
Diagonalization             ....       0.002 sec  (  0.3%)
Density matrix formation    ....       0.001 sec  (  0.1%)
Population analysis         ....       0.002 sec  (  0.4%)
Initial guess               ....       0.003 sec  (  0.6%)
Orbital Transformation      ....       0.000 sec  (  0.0%)
Orbital Orthonormalization  ....       0.001 sec  (  0.2%)
DIIS solution               ....       0.000 sec  (  0.0%)
Grid generation             ....       0.131 sec  ( 21.8%)


-------------------------------------------------------------------------------
                          DFT DISPERSION CORRECTION                            
                                                                               
                              DFTD3 V3.1  Rev 1                                
                          USING Becke-Johnson damping                          
-------------------------------------------------------------------------------
The TPSSH functional is recognized
Active option DFTDOPT                   ...         4   

molecular C6(AA) [au] = 331.667570 


            DFT-D V3
 parameters
 s6 scaling factor         :     1.0000 
 a1 scaling factor         :     0.4529 
 s8 scaling factor         :     2.2382 
 a2 scaling factor         :     4.6550 
 ad hoc parameters k1-k3   :    16.0000     1.3333    -4.0000 

 Edisp/kcal,au: -0.294548072353  -0.000469392181 
 E6   /kcal   :  -0.122579974 
 E8   /kcal   :  -0.171968098 
 % E8         :  58.383711898 

-------------------------   ----------------
Dispersion correction           -0.000469392
-------------------------   ----------------


-------------------------   --------------------
FINAL SINGLE POINT ENERGY      -147.504607636797
-------------------------   --------------------

                                *** OPTIMIZATION RUN DONE ***

                            ***************************************
                            *     ORCA property calculations      *
                            ***************************************

                                    ---------------------
                                    Active property flags
                                    ---------------------
   (+) Dipole Moment


------------------------------------------------------------------------------
                       ORCA ELECTRIC PROPERTIES CALCULATION
------------------------------------------------------------------------------

Dipole Moment Calculation                       ... on
Quadrupole Moment Calculation                   ... off
Polarizability Calculation                      ... off
GBWName                                         ... Ag01N0_H.gbw
Electron density file                           ... Ag01N0_H.scfp
The origin for moment calculation is the CENTER OF MASS  = ( 0.000000,  0.000000  0.041079)

-------------
DIPOLE MOMENT
-------------
                                X             Y             Z
Electronic contribution:      0.00000       0.00000       3.61057
Nuclear contribution   :      0.00000       0.00000      -2.48923
                        -----------------------------------------
Total Dipole Moment    :      0.00000       0.00000       1.12134
                        -----------------------------------------
Magnitude (a.u.)       :      1.12134
Magnitude (Debye)      :      2.85022



--------------------
Rotational spectrum 
--------------------
 
Rotational constants in cm-1:     0.000000     6.459342     6.459342 
Rotational constants in MHz :     0.000000 193646.210449 193646.210449 

 Dipole components along the rotational axes: 
x,y,z [a.u.] :     1.121341     0.000000     0.000000 
x,y,z [Debye]:     2.850221     0.000000     0.000000 

 

----------------------------------------------------------------------------
                           ORCA NUMERICAL FREQUENCIES
                              (24-process run)
----------------------------------------------------------------------------

Number of atoms                ... 2
Central differences            ... used
Number of displacements        ... 12
Numerical increment            ... 5.000e-03 bohr
IR-spectrum generation         ... on
Raman-spectrum generation      ... off
Surface Crossing Hessian       ... off

 WARNING: There are more processes than displacements to do
  ====> : Reducing number of processes to   6

The output will be reduced. Please look at the following files:
SCF program output             ... >Ag01N0_H.lastscf
Integral program output        ... >Ag01N0_H.lastint
Gradient program output        ... >Ag01N0_H.lastgrad
Dipole moment program output   ... >Ag01N0_H.lastmom
AutoCI program output          ... >Ag01N0_H.lastautoci


         <<< Energy and Gradient at the input geometry >>>

        <<< Energy and Gradient at displaced geometries >>>
             <<<Displacing   1/coordinate 3 (+)>>>
             <<<Displacing   2/coordinate 2 (+)>>>
             <<<Displacing   2/coordinate 1 (+)>>>
             <<<Displacing   2/coordinate 3 (+)>>>
             <<<Displacing   1/coordinate 1 (+)>>>
             <<<Displacing   1/coordinate 2 (+)>>>
             <<<Displacing   1/coordinate 3 (-)>>>
             <<<Displacing   2/coordinate 3 (-)>>>
             <<<Displacing   2/coordinate 2 (-)>>>
             <<<Displacing   2/coordinate 1 (-)>>>
             <<<Displacing   1/coordinate 1 (-)>>>
             <<<Displacing   1/coordinate 2 (-)>>>
Warning: T+R mode no 5 is zero 

-----------------------
VIBRATIONAL FREQUENCIES
-----------------------

Scaling factor for frequencies =  1.000000000 (already applied!)

   0:         0.00 cm**-1
   1:         0.00 cm**-1
   2:         0.00 cm**-1
   3:         0.00 cm**-1
   4:         0.00 cm**-1
   5:      1793.33 cm**-1


------------
NORMAL MODES
------------

These modes are the cartesian displacements weighted by the diagonal matrix
M(i,i)=1/sqrt(m[i]) where m[i] is the mass of the displaced atom
Thus, these vectors are normalized but *not* orthogonal

                  0          1          2          3          4          5    
      0       0.000000   0.000000   0.000000   0.000000   0.000000   0.000000
      1       0.000000   0.000000   0.000000   0.000000   0.000000   0.000000
      2       0.000000   0.000000   0.000000   0.000000   0.000000   0.009344
      3       0.000000   0.000000   0.000000   0.000000   0.000000   0.000000
      4       0.000000   0.000000   0.000000   0.000000   0.000000   0.000000
      5       0.000000   0.000000   0.000000   0.000000   0.000000  -0.999956


-----------
IR SPECTRUM  
-----------

 Mode    freq (cm**-1)   T**2         TX         TY         TZ
-------------------------------------------------------------------
   5:      1793.33   69.249704  ( -0.000003   0.000046   8.321641)

The first frequency considered to be a vibration is 5
The total number of vibrations considered is 1


--------------------------
THERMOCHEMISTRY AT 298.15K
--------------------------

Temperature         ... 298.15 K
Pressure            ... 1.00 atm
Total Mass          ... 108.88 AMU
The molecule is recognized as being linear

Throughout the following assumptions are being made:
  (1) The electronic state is orbitally nondegenerate
  (2) There are no thermally accessible electronically excited states
  (3) Hindered rotations indicated by low frequency modes are not
      treated as such but are treated as vibrations and this may
      cause some error
  (4) All equations used are the standard statistical mechanics
      equations for an ideal gas
  (5) All vibrations are strictly harmonic

freq.    1793.33  E(vib)   ...       0.00 

------------
INNER ENERGY
------------

The inner energy is: U= E(el) + E(ZPE) + E(vib) + E(rot) + E(trans)
    E(el)   - is the total energy from the electronic structure calculation
              = E(kin-el) + E(nuc-el) + E(el-el) + E(nuc-nuc)
    E(ZPE)  - the the zero temperature vibrational energy from the frequency calculation
    E(vib)  - the the finite temperature correction to E(ZPE) due to population
              of excited vibrational states
    E(rot)  - is the rotational thermal energy
    E(trans)- is the translational thermal energy

Summary of contributions to the inner energy U:
Electronic energy                ...   -147.50460764 Eh
Zero point energy                ...      0.00408551 Eh       2.56 kcal/mol
Thermal vibrational correction   ...      0.00000143 Eh       0.00 kcal/mol
Thermal rotational correction    ...      0.00094418 Eh       0.59 kcal/mol
Thermal translational correction ...      0.00141627 Eh       0.89 kcal/mol
-----------------------------------------------------------------------
Total thermal energy                   -147.49816025 Eh


Summary of corrections to the electronic energy:
(perhaps to be used in another calculation)
Total thermal correction                  0.00236188 Eh       1.48 kcal/mol
Non-thermal (ZPE) correction              0.00408551 Eh       2.56 kcal/mol
-----------------------------------------------------------------------
Total correction                          0.00644739 Eh       4.05 kcal/mol


--------
ENTHALPY
--------

The enthalpy is H = U + kB*T
                kB is Boltzmann's constant
Total free energy                 ...   -147.49816025 Eh 
Thermal Enthalpy correction       ...      0.00094421 Eh       0.59 kcal/mol
-----------------------------------------------------------------------
Total Enthalpy                    ...   -147.49721604 Eh


Note: Rotational entropy computed according to Herzberg 
Infrared and Raman Spectra, Chapter V,1, Van Nostrand Reinhold, 1945 
Point Group:  Cinfv, Symmetry Number:   1  
Rotational constants in cm-1:     0.000000     6.459342     6.459342 

Vibrational entropy computed according to the QRRHO of S. Grimme
Chem.Eur.J. 2012 18 9955


-------
ENTROPY
-------

The entropy contributions are T*S = T*(S(el)+S(vib)+S(rot)+S(trans))
     S(el)   - electronic entropy
     S(vib)  - vibrational entropy
     S(rot)  - rotational entropy
     S(trans)- translational entropy
The entropies will be listed as mutliplied by the temperature to get
units of energy

Electronic entropy                ...      0.00000000 Eh      0.00 kcal/mol
Vibrational entropy               ...      0.00000159 Eh      0.00 kcal/mol
Rotational entropy                ...      0.00421887 Eh      2.65 kcal/mol
Translational entropy             ...      0.01899171 Eh     11.92 kcal/mol
-----------------------------------------------------------------------
Final entropy term                ...      0.02321216 Eh     14.57 kcal/mol

In case the symmetry of your molecule has not been determined correctly
or in case you have a reason to use a different symmetry number we print 
out the resulting rotational entropy values for sn=1,12 :
 --------------------------------------------------------
|  sn= 1 | S(rot)=             -inf Eh      -inf kcal/mol|
|  sn= 2 | S(rot)=             -inf Eh      -inf kcal/mol|
|  sn= 3 | S(rot)=             -inf Eh      -inf kcal/mol|
|  sn= 4 | S(rot)=             -inf Eh      -inf kcal/mol|
|  sn= 5 | S(rot)=             -inf Eh      -inf kcal/mol|
|  sn= 6 | S(rot)=             -inf Eh      -inf kcal/mol|
|  sn= 7 | S(rot)=             -inf Eh      -inf kcal/mol|
|  sn= 8 | S(rot)=             -inf Eh      -inf kcal/mol|
|  sn= 9 | S(rot)=             -inf Eh      -inf kcal/mol|
|  sn=10 | S(rot)=             -inf Eh      -inf kcal/mol|
|  sn=11 | S(rot)=             -inf Eh      -inf kcal/mol|
|  sn=12 | S(rot)=             -inf Eh      -inf kcal/mol|
 --------------------------------------------------------


-------------------
GIBBS FREE ENERGY
-------------------

The Gibbs free energy is G = H - T*S

Total enthalpy                    ...   -147.49721604 Eh 
Total entropy correction          ...     -0.02321216 Eh    -14.57 kcal/mol
-----------------------------------------------------------------------
Final Gibbs free energy         ...   -147.52042820 Eh

For completeness - the Gibbs free energy minus the electronic energy
G-E(el)                           ...     -0.01582057 Eh     -9.93 kcal/mol


Total Time for Numerical Frequencies  :        16.043 sec

Timings for individual modules:

Sum of individual times         ...       17.613 sec (=   0.294 min)
GTO integral calculation        ...        3.687 sec (=   0.061 min)  20.9 %
SCF iterations                  ...       10.248 sec (=   0.171 min)  58.2 %
SCF Gradient evaluation         ...        3.455 sec (=   0.058 min)  19.6 %
Geometry relaxation             ...        0.223 sec (=   0.004 min)   1.3 %
                             ****ORCA TERMINATED NORMALLY****
TOTAL RUN TIME: 0 days 0 hours 0 minutes 32 seconds 738 msec
