
                                 *****************
                                 * O   R   C   A *
                                 *****************

           --- An Ab Initio, DFT and Semiempirical electronic structure package ---

                  #######################################################
                  #                        -***-                        #
                  #          Department of theory and spectroscopy      #
                  #               Directorship: Frank Neese             #
                  #        Max Planck Institute fuer Kohlenforschung    #
                  #                Kaiser Wilhelm Platz 1               #
                  #                 D-45470 Muelheim/Ruhr               #
                  #                      Germany                        #
                  #                                                     #
                  #                  All rights reserved                #
                  #                        -***-                        #
                  #######################################################


                         Program Version 4.2.0 -  RELEASE  -


 With contributions from (in alphabetic order):
   Daniel Aravena         : Magnetic Suceptibility
   Michael Atanasov       : Ab Initio Ligand Field Theory (pilot matlab implementation)
   Alexander A. Auer      : GIAO ZORA, VPT2
   Ute Becker             : Parallelization
   Giovanni Bistoni       : ED, misc. LED, open-shell LED, HFLED
   Martin Brehm           : Molecular dynamics
   Dmytro Bykov           : SCF Hessian
   Vijay G. Chilkuri      : MRCI spin determinant printing, contributions to CSF-ICE
   Dipayan Datta          : RHF DLPNO-CCSD density
   Achintya Kumar Dutta   : EOM-CC, STEOM-CC
   Dmitry Ganyushin       : Spin-Orbit,Spin-Spin,Magnetic field MRCI
   Miquel Garcia          : C-PCM Hessian, Gaussian charge scheme
   Yang Guo               : DLPNO-NEVPT2, CIM, IAO-localization
   Andreas Hansen         : Spin unrestricted coupled pair/coupled cluster methods
   Benjamin Helmich-Paris : CASSCF linear response (MC-RPA)
   Lee Huntington         : MR-EOM, pCC
   Robert Izsak           : Overlap fitted RIJCOSX, COSX-SCS-MP3, EOM
   Christian Kollmar      : KDIIS, OOCD, Brueckner-CCSD(T), CCSD density
   Simone Kossmann        : Meta GGA functionals, TD-DFT gradient, OOMP2, MP2 Hessian
   Martin Krupicka        : AUTO-CI
   Lucas Lang             : DCDCAS
   Dagmar Lenk            : GEPOL surface, SMD
   Dimitrios Liakos       : Extrapolation schemes; Compound Job, initial MDCI parallelization
   Dimitrios Manganas     : Further ROCIS development; embedding schemes
   Dimitrios Pantazis     : SARC Basis sets
   Taras Petrenko         : DFT Hessian,TD-DFT gradient, ASA, ECA, R-Raman, ABS, FL, XAS/XES, NRVS
   Peter Pinski           : DLPNO-MP2, DLPNO-MP2 Gradient
   Christoph Reimann      : Effective Core Potentials
   Marius Retegan         : Local ZFS, SOC
   Christoph Riplinger    : Optimizer, TS searches, QM/MM, DLPNO-CCSD(T), (RO)-DLPNO pert. Triples
   Tobias Risthaus        : Range-separated hybrids, TD-DFT gradient, RPA, STAB
   Michael Roemelt        : Original ROCIS implementation
   Masaaki Saitow         : Open-shell DLPNO-CCSD energy and density
   Barbara Sandhoefer     : DKH picture change effects
   Avijit Sen             : IP-ROCIS
   Kantharuban Sivalingam : CASSCF convergence, NEVPT2, FIC-MRCI
   Bernardo de Souza      : ESD, SOC TD-DFT
   Georgi Stoychev        : AutoAux, RI-MP2 NMR
   Willem Van den Heuvel  : Paramagnetic NMR
   Boris Wezisla          : Elementary symmetry handling
   Frank Wennmohs         : Technical directorship


 We gratefully acknowledge several colleagues who have allowed us to
 interface, adapt or use parts of their codes:
   Stefan Grimme, W. Hujo, H. Kruse,             : VdW corrections, initial TS optimization,
                  C. Bannwarth                     DFT functionals, gCP, sTDA/sTD-DF
   Ed Valeev, F. Pavosevic, A. Kumar             : LibInt (2-el integral package), F12 methods
   Garnet Chan, S. Sharma, J. Yang, R. Olivares  : DMRG
   Ulf Ekstrom                                   : XCFun DFT Library
   Mihaly Kallay                                 : mrcc  (arbitrary order and MRCC methods)
   Andreas Klamt, Michael Diedenhofen            : otool_cosmo (COSMO solvation model)
   Jiri Pittner, Ondrej Demel                    : Mk-CCSD
   Frank Weinhold                                : gennbo (NPA and NBO analysis)
   Christopher J. Cramer and Donald G. Truhlar   : smd solvation model
   Lars Goerigk                                  : TD-DFT with DH, B97 family of functionals
   V. Asgeirsson, H. Jonsson                     : NEB implementation
   FAccTs GmbH                                   : IRC, NEB, NEB-TS, Multilevel, MM, QM/MM, CI optimization
   S Lehtola, MJT Oliveira, MAL Marques          : LibXC Library


 Your calculation uses the libint2 library for the computation of 2-el integrals
 For citations please refer to: http://libint.valeyev.net

 Your ORCA version has been built with support for libXC version: 4.2.3
 For citations please refer to: https://tddft.org/programs/libxc/

 This ORCA versions uses:
   CBLAS   interface :  Fast vector & matrix operations
   LAPACKE interface :  Fast linear algebra routines
   SCALAPACK package :  Parallel linear algebra routines


Your calculation utilizes the atom-pairwise dispersion correction
with the Becke-Johnson damping scheme (D3BJ)
Cite in your paper:
S.Grimme, S.Ehrlich, L.Goerigk, J Comput Chem, (2011), 32, 1456–1465 
S.Grimme, J.Antony, S.Ehrlich and H.Krieg, J.Chem.Phys., 132, (2010), 154104 
   

----- Orbital basis set information -----
Your calculation utilizes the basis: def2-TZVPPD
   F. Weigend and R. Ahlrichs, Phys. Chem. Chem. Phys. 7, 3297 (2005).
   D. Rappoport and F. Furche, J. Chem. Phys. 133 134105 (2010).

----- AuxJK basis set information -----
Your calculation utilizes the auxiliary basis: def2/JK
   H-Ba, Hf-Rn: F. Weigend, J. Comput. Chem. 29, 167 (2008).

cite the ECPs for Ag [Def2-ECP] as follows:
Ce-Yb(ecp-28): M. Dolg, H. Stoll, H.Preuss, J. Chem. Phys., 1989, 90, 1730-1734.
Y-Cd(ecp-28), Hf-Hg(ecp-46): D. Andrae,U. Haeussermann, M. Dolg, H. Stoll, H. Preuss, Theor. Chim. Acta, 1990, 77, 123-141.
In-Sb(ecp-28), Tl-Bi(ecp-46): B. Metz, H. Stoll, M. Dolg, J. Chem. Phys., 2000, 113, 2563-2569.
Te-Xe(ecp-28), Po-Rn(ecp-46): K. A. Peterson, D. Figgen, E. Goll, H. Stoll, M. Dolg, J. Chem. Phys., 2003, 119, 11113-11123.
Rb(ecp-28), Cs(ecp-46): T. Leininger, A. Nicklass, W. Kuechle, H. Stoll, M. Dolg, A. Bergner, Chem. Phys. Lett., 1996, 255, 274-280.
Sr(ecp-28), Ba(ecp-46): M. Kaupp, P. V. Schleyer, H. Stoll and H. Preuss, J. Chem. Phys., 1991, 94, 1360-1366.
La(ecp-46): M. Dolg, H. Stoll, A. Savin, H. Preuss, Theor. Chim. Acta, 1989, 75, 173-194.
Lu(ecp-28): X. Cao, M. Dolg, J. Chem. Phys., 2001, 115, 7348-7355.

ECP parameters for Ag [Def2-ECP] have been obtained from:
TURBOMOLE (7.0.2)

================================================================================
                                        WARNINGS
                       Please study these warnings very carefully!
================================================================================


WARNING: Geometry Optimization
  ===> : Switching off AutoStart
         For restart on a previous wavefunction, please use MOREAD

INFO   : the flag for use of LIBINT has been found!

================================================================================
                                       INPUT FILE
================================================================================
NAME = Ag01N0_F.in
|  1> #
|  2> # Ag01N0_F TPSSh-D3BJ/Def2-TZVPPD
|  3> #
|  4> ! tpssh d3bj def2-tzvppd def2/jk grid4 nofinalgrid opt xyzfile numfreq
|  5> 
|  6> *xyz 0 1
|  7> Ag       0.000000    0.000000    0.317712 
|  8> F        0.000000    0.000000   -1.659163 
|  9> *
| 10> 
| 11> %maxcore 5000
| 12> 
| 13> %pal
| 14> nprocs = 24
| 15> end
| 16> 
| 17> 
| 18>                          ****END OF INPUT****
================================================================================

                       *****************************
                       * Geometry Optimization Run *
                       *****************************

Geometry optimization settings:
Update method            Update   .... BFGS
Choice of coordinates    CoordSys .... Z-matrix Internals
Initial Hessian          InHess   .... Almoef's Model

Convergence Tolerances:
Energy Change            TolE     ....  5.0000e-06 Eh
Max. Gradient            TolMAXG  ....  3.0000e-04 Eh/bohr
RMS Gradient             TolRMSG  ....  1.0000e-04 Eh/bohr
Max. Displacement        TolMAXD  ....  4.0000e-03 bohr
RMS Displacement         TolRMSD  ....  2.0000e-03 bohr
Strict Convergence                ....  False
------------------------------------------------------------------------------
                        ORCA OPTIMIZATION COORDINATE SETUP
------------------------------------------------------------------------------

The optimization will be done in new redundant internal coordinates
Making redundant internal coordinates   ...  (new redundants) done
Evaluating the initial hessian          ...  (Almloef) done
Evaluating the coordinates              ...  done
Calculating the B-matrix                .... done
Calculating the G-matrix                .... done
Diagonalizing the G-matrix              .... done
The first mode is                       ....    0
The number of degrees of freedom        ....    1

    -----------------------------------------------------------------
                    Redundant Internal Coordinates


    -----------------------------------------------------------------
         Definition                    Initial Value    Approx d2E/dq
    -----------------------------------------------------------------
      1. B(F   1,Ag  0)                  1.9769         0.609214   
    -----------------------------------------------------------------

Number of atoms                         .... 2
Number of degrees of freedom            .... 1

         *************************************************************
         *                GEOMETRY OPTIMIZATION CYCLE   1            *
         *************************************************************
---------------------------------
CARTESIAN COORDINATES (ANGSTROEM)
---------------------------------
  Ag     0.000000    0.000000    0.317712
  F      0.000000    0.000000   -1.659163

----------------------------
CARTESIAN COORDINATES (A.U.)
----------------------------
  NO LB      ZA    FRAG     MASS         X           Y           Z
   0 Ag   19.0000*   0   107.870    0.000000    0.000000    0.600389
   1 F     9.0000    0    18.998    0.000000    0.000000   -3.135364
* core charge reduced due to ECP

--------------------------------
INTERNAL COORDINATES (ANGSTROEM)
--------------------------------
 Ag     0   0   0     0.000000000000     0.00000000     0.00000000
 F      1   0   0     1.976875000000     0.00000000     0.00000000

---------------------------
INTERNAL COORDINATES (A.U.)
---------------------------
 Ag     0   0   0     0.000000000000     0.00000000     0.00000000
 F      1   0   0     3.735752350996     0.00000000     0.00000000

---------------------
BASIS SET INFORMATION
---------------------
There are 2 groups of distinct atoms

 Group   1 Type Ag  : 7s7p6d2f1g contracted to 6s4p3d2f1g pattern {211111/4111/411/11/1}
 Group   2 Type F   : 12s7p3d1f contracted to 6s4p3d1f pattern {621111/4111/111/1}

Atom   0Ag   basis set group =>   1
Atom   1F    basis set group =>   2
----------------------------------
AUXILIARY/JK BASIS SET INFORMATION
----------------------------------
There are 2 groups of distinct atoms

 Group   1 Type Ag  : 13s12p10d9f6g3h2i contracted to 11s10p9d8f6g3h2i pattern {31111111111/3111111111/211111111/21111111/111111/111/11}
 Group   2 Type F   : 14s10p6d2f1g contracted to 10s8p4d2f1g pattern {5111111111/31111111/3111/11/1}

Atom   0Ag   basis set group =>   1
Atom   1F    basis set group =>   2
-------------------------
ECP PARAMETER INFORMATION
-------------------------

 Group 1, Type Ag ECP Def2-ECP (replacing 28 core electrons, lmax=3)

Atom   0Ag   ECP group =>   1



           ************************************************************
           *        Program running with 24 parallel MPI-processes    *
           *              working on a common directory               *
           ************************************************************
------------------------------------------------------------------------------
                           ORCA GTO INTEGRAL CALCULATION
------------------------------------------------------------------------------

                         BASIS SET STATISTICS AND STARTUP INFO

 # of primitive gaussian shells          ...   46
 # of primitive gaussian functions       ...  136
 # of contracted shells                  ...   30
 # of contracted basis functions         ...   96
 Highest angular momentum                ...    4
 Maximum contraction depth               ...    6
 Integral package used                   ... LIBINT
 Integral threshhold            Thresh   ...  2.500e-11
 Primitive cut-off              TCut     ...  2.500e-12


------------------------------ INTEGRAL EVALUATION ----------------------------


 * One electron integrals 

   ECP integrals                         ... done
 Pre-screening matrix                    ... done
 Shell pair data                         ... done (   0.000 sec)



           ************************************************************
           *        Program running with 24 parallel MPI-processes    *
           *              working on a common directory               *
           ************************************************************
-------------------------------------------------------------------------------
                                 ORCA SCF
-------------------------------------------------------------------------------

------------
SCF SETTINGS
------------
Hamiltonian:
 Density Functional     Method          .... DFT(GTOs)
 Exchange Functional    Exchange        .... TPSS
 Correlation Functional Correlation     .... TPSS
 LDA part of GGA corr.  LDAOpt          .... PW91-LDA
 Gradients option       PostSCFGGA      .... off
 Hybrid DFT is turned on
   Fraction HF Exchange ScalHFX         ....  0.100000
   Scaling of DF-GGA-X  ScalDFX         ....  0.900000
   Scaling of DF-GGA-C  ScalDFC         ....  1.000000
   Scaling of DF-LDA-C  ScalLDAC        ....  1.000000
   Perturbative correction              ....  0.000000
   Density functional embedding theory  .... OFF
   NL short-range parameter             ....  5.200000


General Settings:
 Integral files         IntName         .... Ag01N0_F
 Hartree-Fock type      HFTyp           .... RHF
 Total Charge           Charge          ....    0
 Multiplicity           Mult            ....    1
 Number of Electrons    NEL             ....   28
 Basis Dimension        Dim             ....   96
 Nuclear Repulsion      ENuc            ....     45.7739121691 Eh

Convergence Acceleration:
 DIIS                   CNVDIIS         .... on
   Start iteration      DIISMaxIt       ....    12
   Startup error        DIISStart       ....  0.200000
   # of expansion vecs  DIISMaxEq       ....     5
   Bias factor          DIISBfac        ....   1.050
   Max. coefficient     DIISMaxC        ....  10.000
 Newton-Raphson         CNVNR           .... off
 SOSCF                  CNVSOSCF        .... off
 Level Shifting         CNVShift        .... on
   Level shift para.    LevelShift      ....    0.2500
   Turn off err/grad.   ShiftErr        ....    0.0010
 Zerner damping         CNVZerner       .... off
 Static damping         CNVDamp         .... on
   Fraction old density DampFac         ....    0.7000
   Max. Damping (<1)    DampMax         ....    0.9800
   Min. Damping (>=0)   DampMin         ....    0.0000
   Turn off err/grad.   DampErr         ....    0.1000
 Fernandez-Rico         CNVRico         .... off

SCF Procedure:
 Maximum # iterations   MaxIter         ....   125
 SCF integral mode      SCFMode         .... Direct
   Integral package                     .... LIBINT
 Reset frequency        DirectResetFreq ....    20
 Integral Threshold     Thresh          ....  2.500e-11 Eh
 Primitive CutOff       TCut            ....  2.500e-12 Eh

Convergence Tolerance:
 Convergence Check Mode ConvCheckMode   .... Total+1el-Energy
 Convergence forced     ConvForced      .... 0
 Energy Change          TolE            ....  1.000e-08 Eh
 1-El. energy change                    ....  1.000e-05 Eh
 DIIS Error             TolErr          ....  5.000e-07


Diagonalization of the overlap matrix:
Smallest eigenvalue                        ... 3.392e-03
Time for diagonalization                   ...    0.021 sec
Threshold for overlap eigenvalues          ... 1.000e-08
Number of eigenvalues below threshold      ... 0
Time for construction of square roots      ...    0.001 sec
Total time needed                          ...    0.022 sec

-------------------
DFT GRID GENERATION
-------------------

General Integration Accuracy     IntAcc      ...  4.670
Radial Grid Type                 RadialGrid  ... Gauss-Chebyshev
Angular Grid (max. acc.)         AngularGrid ... Lebedev-302
Angular grid pruning method      GridPruning ... 3 (G Style)
Weight generation scheme         WeightScheme... Becke
Basis function cutoff            BFCut       ...    1.0000e-11
Integration weight cutoff        WCut        ...    1.0000e-14
Grids for H and He will be reduced by one unit

# of grid points (after initial pruning)     ...  16930 (   0.0 sec)
# of grid points (after weights+screening)   ...  16875 (   0.0 sec)
nearest neighbour list constructed           ...    0.0 sec
Grid point re-assignment to atoms done       ...    0.0 sec
Grid point division into batches done        ...    0.1 sec
Reduced shell lists constructed in    0.1 sec

Total number of grid points                  ...    16875
Total number of batches                      ...      265
Average number of points per batch           ...       63
Average number of grid points per atom       ...     8438
Average number of shells per batch           ...     3.31 (11.03%)
Average number of basis functions per batch  ...     7.62 ( 7.93%)
Average number of large shells per batch     ...     2.08 (62.79%)
Average number of large basis fcns per batch ...     4.38 (57.58%)
Maximum spatial batch extension              ...  36.77, 40.43, 23.83 au
Average spatial batch extension              ...   1.19,  1.22,  0.86 au

Time for grid setup =    0.161 sec

------------------------------
INITIAL GUESS: MODEL POTENTIAL
------------------------------
Loading Hartree-Fock densities                     ... done
  calling /sw/apps/orca/orca_4_2_0_linux_x86-64_openmpi314/orca Ag01N0_F_atom47.inp > Ag01N0_F_atom47.out in order to generate an atomic fitting density for atom 0 (Ag with ECP) on-the-fly... 
    atom 0 (Ag), assumed electronic state with S=2: 1s2 2s2 2p6 3s2 3p6 4s2 3d10 4p6 5s2 4d9           ... done
Calculating cut-offs                               ... done
Setting up the integral package                    ... done
Initializing the effective Hamiltonian             ... done
Starting the Coulomb interaction                   ... done (   0.0 sec)
Reading the grid                                   ... done
Mapping shells                                     ... done
Starting the XC term evaluation                    ... done (   0.0 sec)
  promolecular density results
     # of electrons  =     56.001290403
     EX              =   -153.357809509
     EC              =     -2.789793162
     EX+EC           =   -156.147602671
Transforming the Hamiltonian                       ... done (   0.0 sec)
Diagonalizing the Hamiltonian                      ... done (   0.0 sec)
Back transforming the eigenvectors                 ... done (   0.0 sec)
Now organizing SCF variables                       ... done
                      ------------------
                      INITIAL GUESS DONE (   1.8 sec)
                      ------------------
--------------
SCF ITERATIONS
--------------
ITER       Energy         Delta-E        Max-DP      RMS-DP      [F,P]     Damp
               ***  Starting incremental Fock matrix formation  ***
  0   -246.6264149038   0.000000000000 0.07439021  0.00308768  0.5271693 0.7000
  1   -246.7172622811  -0.090847377243 0.05557417  0.00173017  0.3426927 0.7000
  2   -246.7405338550  -0.023271573904 0.01730405  0.00062019  0.2252679 0.7000
                               ***Turning on DIIS***
  3   -246.7583890256  -0.017855170588 0.01113044  0.00028688  0.1533060 0.7000
  4   -246.7722400085  -0.013850982901 0.00688599  0.00018605  0.1069234 0.7000
  5   -246.7817748248  -0.009534816308 0.01477554  0.00040370  0.0756117 0.0000
  6   -246.8040984609  -0.022323636173 0.00356009  0.00008990  0.0033131 0.0000
  7   -246.8041096513  -0.000011190342 0.00090011  0.00003893  0.0038471 0.0000
  8   -246.8041224990  -0.000012847677 0.00062863  0.00001985  0.0013046 0.0000
  9   -246.8041247250  -0.000002226028 0.00102223  0.00002861  0.0003638 0.0000
 10   -246.8041255614  -0.000000836362 0.00014148  0.00000513  0.0002601 0.0000
 11   -246.8041256794  -0.000000118051 0.00005237  0.00000144  0.0000519 0.0000
 12   -246.8041256841  -0.000000004739 0.00000716  0.00000028  0.0000110 0.0000
 13   -246.8041256844  -0.000000000276 0.00000313  0.00000009  0.0000055 0.0000
                 **** Energy Check signals convergence ****

               *****************************************************
               *                     SUCCESS                       *
               *           SCF CONVERGED AFTER  14 CYCLES          *
               *****************************************************


----------------
TOTAL SCF ENERGY
----------------

Total Energy       :         -246.80412568 Eh           -6715.88169 eV

Components:
Nuclear Repulsion  :           45.77391217 Eh            1245.57147 eV
Electronic Energy  :         -292.57803785 Eh           -7961.45316 eV
One Electron Energy:         -492.73446979 Eh          -13407.98657 eV
Two Electron Energy:          200.15643194 Eh            5446.53341 eV

Virial components:
Potential Energy   :         -402.70675784 Eh          -10958.20799 eV
Kinetic Energy     :          155.90263216 Eh            4242.32630 eV
Virial Ratio       :            2.58306580


DFT components:
N(Alpha)           :       14.000010743559 electrons
N(Beta)            :       14.000010743559 electrons
N(Total)           :       28.000021487118 electrons
E(X)               :      -21.098478488407 Eh       
E(C)               :       -1.136199156056 Eh       
E(XC)              :      -22.234677644463 Eh       
DFET-embed. en.    :        0.000000000000 Eh       

---------------
SCF CONVERGENCE
---------------

  Last Energy change         ...   -4.8885e-12  Tolerance :   1.0000e-08
  Last MAX-Density change    ...    5.1211e-07  Tolerance :   1.0000e-07
  Last RMS-Density change    ...    1.4071e-08  Tolerance :   5.0000e-09
  Last DIIS Error            ...    8.3955e-07  Tolerance :   5.0000e-07

             **** THE GBW FILE WAS UPDATED (Ag01N0_F.gbw) ****
             **** DENSITY FILE WAS UPDATED (Ag01N0_F.scfp) ****
             **** ENERGY FILE WAS UPDATED (Ag01N0_F.en.tmp) ****
             **** THE GBW FILE WAS UPDATED (Ag01N0_F.gbw) ****
             **** DENSITY FILE WAS UPDATED (Ag01N0_F.scfp) ****
----------------
ORBITAL ENERGIES
----------------

  NO   OCC          E(Eh)            E(eV) 
   0   2.0000     -24.486934      -666.3234 
   1   2.0000      -3.697736      -100.6205 
   2   2.0000      -2.305303       -62.7305 
   3   2.0000      -2.302960       -62.6667 
   4   2.0000      -2.302960       -62.6667 
   5   2.0000      -1.014006       -27.5925 
   6   2.0000      -0.375329       -10.2132 
   7   2.0000      -0.345698        -9.4069 
   8   2.0000      -0.345698        -9.4069 
   9   2.0000      -0.327141        -8.9020 
  10   2.0000      -0.327141        -8.9019 
  11   2.0000      -0.265642        -7.2285 
  12   2.0000      -0.265642        -7.2285 
  13   2.0000      -0.262225        -7.1355 
  14   0.0000      -0.130398        -3.5483 
  15   0.0000      -0.005783        -0.1574 
  16   0.0000      -0.005783        -0.1574 
  17   0.0000       0.033937         0.9235 
  18   0.0000       0.083493         2.2720 
  19   0.0000       0.145693         3.9645 
  20   0.0000       0.153367         4.1733 
  21   0.0000       0.153367         4.1733 
  22   0.0000       0.189879         5.1669 
  23   0.0000       0.189879         5.1669 
  24   0.0000       0.238149         6.4804 
  25   0.0000       0.338845         9.2204 
  26   0.0000       0.386913        10.5284 
  27   0.0000       0.386914        10.5285 
  28   0.0000       0.471797        12.8383 
  29   0.0000       0.471797        12.8383 
  30   0.0000       0.514580        14.0024 
  31   0.0000       0.560841        15.2613 
  32   0.0000       0.560851        15.2615 
  33   0.0000       0.680915        18.5286 
  34   0.0000       0.680915        18.5286 
  35   0.0000       0.682335        18.5673 
  36   0.0000       0.805524        21.9194 
  37   0.0000       0.805524        21.9194 
  38   0.0000       1.067380        29.0449 
  39   0.0000       1.117724        30.4148 
  40   0.0000       1.545330        42.0506 
  41   0.0000       1.545330        42.0506 
  42   0.0000       1.559611        42.4392 
  43   0.0000       1.559612        42.4392 
  44   0.0000       1.565428        42.5975 
  45   0.0000       1.565428        42.5975 
  46   0.0000       1.636856        44.5411 
  47   0.0000       1.657676        45.1077 
  48   0.0000       1.657676        45.1077 
  49   0.0000       1.746265        47.5183 
  50   0.0000       1.955069        53.2001 
  51   0.0000       2.002934        54.5026 
  52   0.0000       2.002935        54.5026 
  53   0.0000       2.012703        54.7684 
  54   0.0000       2.012703        54.7684 
  55   0.0000       2.053206        55.8706 
  56   0.0000       2.317516        63.0628 
  57   0.0000       2.317572        63.0643 
  58   0.0000       2.390696        65.0542 
  59   0.0000       2.390696        65.0542 
  60   0.0000       2.762235        75.1642 
  61   0.0000       3.398800        92.4860 
  62   0.0000       3.398800        92.4860 
  63   0.0000       3.706927       100.8706 
  64   0.0000       4.136581       112.5621 
  65   0.0000       4.771318       129.8342 
  66   0.0000       4.771318       129.8342 
  67   0.0000       4.781523       130.1119 
  68   0.0000       4.781537       130.1122 
  69   0.0000       4.846544       131.8812 
  70   0.0000       4.846544       131.8812 
  71   0.0000       5.038249       137.0977 
  72   0.0000       5.531895       150.5305 
  73   0.0000       5.531905       150.5308 
  74   0.0000       5.532945       150.5591 
  75   0.0000       5.532945       150.5591 
  76   0.0000       5.534454       150.6001 
  77   0.0000       5.534454       150.6001 
  78   0.0000       5.534802       150.6096 
  79   0.0000       5.534840       150.6106 
  80   0.0000       5.598083       152.3316 
  81   0.0000       7.012088       190.8086 
  82   0.0000       7.013273       190.8408 
  83   0.0000       7.028692       191.2604 
  84   0.0000       7.028692       191.2604 
  85   0.0000       7.038048       191.5150 
  86   0.0000       7.038048       191.5150 
  87   0.0000       7.152776       194.6369 
  88   0.0000       8.543574       232.4825 
  89   0.0000       8.543922       232.4919 
  90   0.0000       8.575625       233.3546 
  91   0.0000       8.575625       233.3546 
  92   0.0000       8.775965       238.8061 
  93   0.0000      33.318021       906.6294 
  94   0.0000      57.113372      1554.1339 
  95   0.0000     110.728844      3013.0850 

                    ********************************
                    * MULLIKEN POPULATION ANALYSIS *
                    ********************************

-----------------------
MULLIKEN ATOMIC CHARGES
-----------------------
   0 Ag:    0.681058
   1 F :   -0.681058
Sum of atomic charges:    0.0000000

--------------------------------
MULLIKEN REDUCED ORBITAL CHARGES
--------------------------------
  0 Ags       :     2.328638  s :     2.328638
      pz      :     2.019960  p :     6.072260
      px      :     2.026150
      py      :     2.026150
      dz2     :     1.914148  d :     9.911472
      dxz     :     1.998506
      dyz     :     1.998506
      dx2y2   :     2.000156
      dxy     :     2.000156
      f0      :     0.003118  f :     0.006487
      f+1     :     0.001586
      f-1     :     0.001586
      f+2     :     0.000098
      f-2     :     0.000098
      f+3     :     0.000000
      f-3     :     0.000000
      g0      :     0.000045  g :     0.000084
      g+1     :     0.000019
      g-1     :     0.000019
      g+2     :     0.000000
      g-2     :     0.000000
      g+3     :     0.000000
      g-3     :     0.000000
      g+4     :     0.000000
      g-4     :     0.000000
  1 F s       :     3.993845  s :     3.993845
      pz      :     1.736223  p :     5.683186
      px      :     1.973481
      py      :     1.973481
      dz2     :     0.003974  d :     0.003912
      dxz     :     0.000226
      dyz     :     0.000226
      dx2y2   :    -0.000257
      dxy     :    -0.000257
      f0      :     0.000049  f :     0.000115
      f+1     :     0.000031
      f-1     :     0.000031
      f+2     :     0.000002
      f-2     :     0.000002
      f+3     :     0.000000
      f-3     :     0.000000


                     *******************************
                     * LOEWDIN POPULATION ANALYSIS *
                     *******************************

----------------------
LOEWDIN ATOMIC CHARGES
----------------------
   0 Ag:    0.700297
   1 F :   -0.700297

-------------------------------
LOEWDIN REDUCED ORBITAL CHARGES
-------------------------------
  0 Ags       :     2.212821  s :     2.212821
      pz      :     2.062323  p :     6.135717
      px      :     2.036697
      py      :     2.036697
      dz2     :     1.957379  d :     9.939430
      dxz     :     1.994074
      dyz     :     1.994074
      dx2y2   :     1.996952
      dxy     :     1.996952
      f0      :     0.006114  f :     0.011578
      f+1     :     0.002618
      f-1     :     0.002618
      f+2     :     0.000114
      f-2     :     0.000114
      f+3     :     0.000000
      f-3     :     0.000000
      g0      :     0.000090  g :     0.000156
      g+1     :     0.000033
      g-1     :     0.000033
      g+2     :     0.000000
      g-2     :     0.000000
      g+3     :     0.000000
      g-3     :     0.000000
      g+4     :     0.000000
      g-4     :     0.000000
  1 F s       :     3.891864  s :     3.891864
      pz      :     1.815790  p :     5.706992
      px      :     1.945601
      py      :     1.945601
      dz2     :     0.053495  d :     0.101169
      dxz     :     0.020908
      dyz     :     0.020908
      dx2y2   :     0.002929
      dxy     :     0.002929
      f0      :     0.000124  f :     0.000273
      f+1     :     0.000069
      f-1     :     0.000069
      f+2     :     0.000005
      f-2     :     0.000005
      f+3     :     0.000000
      f-3     :     0.000000


                      *****************************
                      * MAYER POPULATION ANALYSIS *
                      *****************************

  NA   - Mulliken gross atomic population
  ZA   - Total nuclear charge
  QA   - Mulliken gross atomic charge
  VA   - Mayer's total valence
  BVA  - Mayer's bonded valence
  FA   - Mayer's free valence

  ATOM       NA         ZA         QA         VA         BVA        FA
  0 Ag    18.3189    19.0000     0.6811     0.5269     0.5269     0.0000
  1 F      9.6811     9.0000    -0.6811     0.5269     0.5269    -0.0000

  Mayer bond orders larger than 0.100000
B(  0-Ag,  1-F ) :   0.5269 

-------
TIMINGS
-------

Total SCF time: 0 days 0 hours 0 min 4 sec 

Total time                  ....       4.376 sec
Sum of individual times     ....       4.170 sec  ( 95.3%)

Fock matrix formation       ....       2.346 sec  ( 53.6%)
  XC integration            ....       0.287 sec  ( 12.3% of F)
    Basis function eval.    ....       0.026 sec  (  8.9% of XC)
    Density eval.           ....       0.032 sec  ( 11.0% of XC)
    XC-Functional eval.     ....       0.023 sec  (  8.1% of XC)
    XC-Potential eval.      ....       0.048 sec  ( 16.7% of XC)
Diagonalization             ....       0.018 sec  (  0.4%)
Density matrix formation    ....       0.004 sec  (  0.1%)
Population analysis         ....       0.003 sec  (  0.1%)
Initial guess               ....       1.630 sec  ( 37.2%)
Orbital Transformation      ....       0.000 sec  (  0.0%)
Orbital Orthonormalization  ....       0.000 sec  (  0.0%)
DIIS solution               ....       0.010 sec  (  0.2%)
Grid generation             ....       0.161 sec  (  3.7%)


-------------------------------------------------------------------------------
                          DFT DISPERSION CORRECTION                            
                                                                               
                              DFTD3 V3.1  Rev 1                                
                          USING Becke-Johnson damping                          
-------------------------------------------------------------------------------
The TPSSH functional is recognized
Active option DFTDOPT                   ...         4   

molecular C6(AA) [au] = 356.028846 


            DFT-D V3
 parameters
 s6 scaling factor         :     1.0000 
 a1 scaling factor         :     0.4529 
 s8 scaling factor         :     2.2382 
 a2 scaling factor         :     4.6550 
 ad hoc parameters k1-k3   :    16.0000     1.3333    -4.0000 

 Edisp/kcal,au: -0.349875914657  -0.000557562701 
 E6   /kcal   :  -0.135787088 
 E8   /kcal   :  -0.214088827 
 % E8         :  61.189929884 

-------------------------   ----------------
Dispersion correction           -0.000557563
-------------------------   ----------------


-------------------------   --------------------
FINAL SINGLE POINT ENERGY      -246.804683247124
-------------------------   --------------------



           ************************************************************
           *        Program running with 24 parallel MPI-processes    *
           *              working on a common directory               *
           ************************************************************
------------------------------------------------------------------------------
                         ORCA SCF GRADIENT CALCULATION
------------------------------------------------------------------------------

Gradient of the Kohn-Sham DFT energy:
Kohn-Sham wavefunction type      ... RKS
Hartree-Fock exchange scaling    ...    0.100
Number of operators              ...    1
Number of atoms                  ...    2
Basis set dimensions             ...   96
Integral neglect threshold       ... 2.5e-11
Integral primitive cutoff        ... 2.5e-12

Nuclear repulsion gradient       ... done
One Electron Gradient            
  ECP gradient                   ... done
Pre-screening matrix             ... done
Starting the two electron gradient:
Two electron gradient done
Exchange-correlation gradient    ... done
Dispersion correction            ... done

------------------
CARTESIAN GRADIENT
------------------

   1   Ag  :    0.000000002    0.000000004   -0.002517653
   2   F   :   -0.000000001   -0.000000001    0.002310231

Difference to translation invariance:
           :    0.0000000016    0.0000000032   -0.0002074219

Norm of the cartesian gradient     ...    0.0034169793
RMS gradient                       ...    0.0013949760
MAX gradient                       ...    0.0025176534

-------
TIMINGS
-------

Total SCF gradient time            ...        0.738 sec

One electron gradient       ....       0.128 sec  ( 17.3%)
Prescreening matrices       ....       0.006 sec  (  0.8%)
Two electron gradient       ....       0.402 sec  ( 54.5%)
XC gradient                 ....       0.014 sec  (  1.9%)
------------------------------------------------------------------------------
                         ORCA GEOMETRY RELAXATION STEP
------------------------------------------------------------------------------

Reading the OPT-File                    .... done
Getting information on internals        .... done
Copying old internal coords+grads       .... done
Making the new internal coordinates     .... (new redundants).... done
Validating the new internal coordinates .... (new redundants).... done
Calculating the B-matrix                .... done
Calculating the G,G- and P matrices     .... done
Transforming gradient to internals      .... done
Projecting the internal gradient        .... done
Number of atoms                         ....   2
Number of internal coordinates          ....   1
Current Energy                          ....  -246.804683247 Eh
Current gradient norm                   ....     0.003416979 Eh/bohr
Maximum allowed component of the step   ....  0.300
Current trust radius                    ....  0.300
Evaluating the initial hessian          ....  (Almloef) done
Projecting the Hessian                  .... done
Forming the augmented Hessian           .... done
Diagonalizing the augmented Hessian     .... done
Last element of RFO vector              ....  0.999992150
Lowest eigenvalues of augmented Hessian:
 -0.000009565
Length of the computed step             ....  0.003962326
The final length of the internal step   ....  0.003962326
Converting the step to cartesian space:
 Initial RMS(Int)=    0.0039623256
Transforming coordinates:
 Iter   0:  RMS(Cart)=    0.0011438249 RMS(Int)=    0.0039623256
 Iter   1:  RMS(Cart)=    0.0000000000 RMS(Int)=    0.0000000000
done
Storing new coordinates                 .... done

                                .--------------------.
          ----------------------|Geometry convergence|-------------------------
          Item                value                   Tolerance       Converged
          ---------------------------------------------------------------------
          RMS gradient        0.0024139424            0.0001000000      NO
          MAX gradient        0.0024139424            0.0003000000      NO
          RMS step            0.0039623256            0.0020000000      NO
          MAX step            0.0039623256            0.0040000000      YES
          ........................................................
          Max(Bonds)      0.0021      Max(Angles)    0.00
          Max(Dihed)        0.00      Max(Improp)    0.00
          ---------------------------------------------------------------------

The optimization has not yet converged - more geometry cycles are needed


    ---------------------------------------------------------------------------
                         Redundant Internal Coordinates
                            (Angstroem and degrees)

        Definition                    Value    dE/dq     Step     New-Value
    ----------------------------------------------------------------------------
     1. B(F   1,Ag  0)                1.9769 -0.002414  0.0021    1.9790   
    ----------------------------------------------------------------------------

         *************************************************************
         *                GEOMETRY OPTIMIZATION CYCLE   2            *
         *************************************************************
---------------------------------
CARTESIAN COORDINATES (ANGSTROEM)
---------------------------------
  Ag     0.000000    0.000000    0.318760
  F      0.000000    0.000000   -1.660211

----------------------------
CARTESIAN COORDINATES (A.U.)
----------------------------
  NO LB      ZA    FRAG     MASS         X           Y           Z
   0 Ag   19.0000*   0   107.870    0.000000    0.000000    0.602370
   1 F     9.0000    0    18.998    0.000000    0.000000   -3.137345
* core charge reduced due to ECP

--------------------------------
INTERNAL COORDINATES (ANGSTROEM)
--------------------------------
 Ag     0   0   0     0.000000000000     0.00000000     0.00000000
 F      1   0   0     1.978971772392     0.00000000     0.00000000

---------------------------
INTERNAL COORDINATES (A.U.)
---------------------------
 Ag     0   0   0     0.000000000000     0.00000000     0.00000000
 F      1   0   0     3.739714676581     0.00000000     0.00000000



           ************************************************************
           *        Program running with 24 parallel MPI-processes    *
           *              working on a common directory               *
           ************************************************************


           ************************************************************
           *        Program running with 24 parallel MPI-processes    *
           *              working on a common directory               *
           ************************************************************

Diagonalization of the overlap matrix:
Smallest eigenvalue                        ... 3.409e-03
Time for diagonalization                   ...    0.004 sec
Threshold for overlap eigenvalues          ... 1.000e-08
Number of eigenvalues below threshold      ... 0
Time for construction of square roots      ...    0.001 sec
Total time needed                          ...    0.005 sec

-------------------
DFT GRID GENERATION
-------------------

General Integration Accuracy     IntAcc      ...  4.670
Radial Grid Type                 RadialGrid  ... Gauss-Chebyshev
Angular Grid (max. acc.)         AngularGrid ... Lebedev-302
Angular grid pruning method      GridPruning ... 3 (G Style)
Weight generation scheme         WeightScheme... Becke
Basis function cutoff            BFCut       ...    1.0000e-11
Integration weight cutoff        WCut        ...    1.0000e-14
Grids for H and He will be reduced by one unit

# of grid points (after initial pruning)     ...  16930 (   0.0 sec)
# of grid points (after weights+screening)   ...  16875 (   0.0 sec)
nearest neighbour list constructed           ...    0.0 sec
Grid point re-assignment to atoms done       ...    0.0 sec
Grid point division into batches done        ...    0.1 sec
Reduced shell lists constructed in    0.1 sec

Total number of grid points                  ...    16875
Total number of batches                      ...      265
Average number of points per batch           ...       63
Average number of grid points per atom       ...     8438
Average number of shells per batch           ...     3.31 (11.03%)
Average number of basis functions per batch  ...     7.62 ( 7.93%)
Average number of large shells per batch     ...     2.08 (62.79%)
Average number of large basis fcns per batch ...     4.38 (57.58%)
Maximum spatial batch extension              ...  36.77, 40.43, 23.83 au
Average spatial batch extension              ...   1.19,  1.22,  0.86 au

Time for grid setup =    0.164 sec

--------------
SCF ITERATIONS
--------------
ITER       Energy         Delta-E        Max-DP      RMS-DP      [F,P]     Damp
               ***  Starting incremental Fock matrix formation  ***
  0   -246.8041353800   0.000000000000 0.00008457  0.00000317  0.0032494 0.7000
  1   -246.8041355495  -0.000000169458 0.00007120  0.00000279  0.0022812 0.7000
                               ***Turning on DIIS***
  2   -246.8041356687  -0.000000119224 0.00020187  0.00000708  0.0015991 0.0000
  3   -246.8041359576  -0.000000288911 0.00020455  0.00000426  0.0000515 0.0000
  4   -246.8041359590  -0.000000001347 0.00007346  0.00000178  0.0000807 0.0000
  5   -246.8041359699  -0.000000010974 0.00003791  0.00000078  0.0000383 0.0000
  6   -246.8041359708  -0.000000000853 0.00000835  0.00000031  0.0000193 0.0000
  7   -246.8041359712  -0.000000000449 0.00000313  0.00000009  0.0000033 0.0000
                 **** Energy Check signals convergence ****

               *****************************************************
               *                     SUCCESS                       *
               *           SCF CONVERGED AFTER   8 CYCLES          *
               *****************************************************

Total Energy       :         -246.80413597 Eh           -6715.88197 eV
  Last Energy change         ...   -7.4721e-11  Tolerance :   1.0000e-08
  Last MAX-Density change    ...    4.0128e-07  Tolerance :   1.0000e-07
             **** THE GBW FILE WAS UPDATED (Ag01N0_F.gbw) ****
             **** DENSITY FILE WAS UPDATED (Ag01N0_F.scfp) ****
             **** ENERGY FILE WAS UPDATED (Ag01N0_F.en.tmp) ****
             **** THE GBW FILE WAS UPDATED (Ag01N0_F.gbw) ****
             **** DENSITY FILE WAS UPDATED (Ag01N0_F.scfp) ****
Total SCF time: 0 days 0 hours 0 min 1 sec 


-------------------------------------------------------------------------------
                          DFT DISPERSION CORRECTION                            
                                                                               
                              DFTD3 V3.1  Rev 1                                
                          USING Becke-Johnson damping                          
-------------------------------------------------------------------------------
-------------------------   ----------------
Dispersion correction           -0.000557556
-------------------------   ----------------


-------------------------   --------------------
FINAL SINGLE POINT ENERGY      -246.804693527745
-------------------------   --------------------



           ************************************************************
           *        Program running with 24 parallel MPI-processes    *
           *              working on a common directory               *
           ************************************************************
------------------------------------------------------------------------------
                         ORCA SCF GRADIENT CALCULATION
------------------------------------------------------------------------------

Gradient of the Kohn-Sham DFT energy:
Kohn-Sham wavefunction type      ... RKS
Hartree-Fock exchange scaling    ...    0.100
Number of operators              ...    1
Number of atoms                  ...    2
Basis set dimensions             ...   96
Integral neglect threshold       ... 2.5e-11
Integral primitive cutoff        ... 2.5e-12

Nuclear repulsion gradient       ... done
One Electron Gradient            
  ECP gradient                   ... done
Pre-screening matrix             ... done
Starting the two electron gradient:
Two electron gradient done
Exchange-correlation gradient    ... done
Dispersion correction            ... done

------------------
CARTESIAN GRADIENT
------------------

   1   Ag  :   -0.000000004    0.000000011   -0.001899248
   2   F   :    0.000000001   -0.000000001    0.001684384

Difference to translation invariance:
           :   -0.0000000030    0.0000000103   -0.0002148639

Norm of the cartesian gradient     ...    0.0025385617
RMS gradient                       ...    0.0010363635
MAX gradient                       ...    0.0018992484

-------
TIMINGS
-------

Total SCF gradient time            ...        0.746 sec

One electron gradient       ....       0.138 sec  ( 18.4%)
Prescreening matrices       ....       0.006 sec  (  0.8%)
Two electron gradient       ....       0.402 sec  ( 53.9%)
XC gradient                 ....       0.014 sec  (  1.9%)
------------------------------------------------------------------------------
                         ORCA GEOMETRY RELAXATION STEP
------------------------------------------------------------------------------

Reading the OPT-File                    .... done
Getting information on internals        .... done
Copying old internal coords+grads       .... done
Making the new internal coordinates     .... (new redundants).... done
Validating the new internal coordinates .... (new redundants).... done
Calculating the B-matrix                .... done
Calculating the G,G- and P matrices     .... done
Transforming gradient to internals      .... done
Projecting the internal gradient        .... done
Number of atoms                         ....   2
Number of internal coordinates          ....   1
Current Energy                          ....  -246.804693528 Eh
Current gradient norm                   ....     0.002538562 Eh/bohr
Maximum allowed component of the step   ....  0.300
Current trust radius                    ....  0.300
Updating the Hessian (BFGS)             .... done
Forming the augmented Hessian           .... done
Diagonalizing the augmented Hessian     .... done
Last element of RFO vector              ....  0.999934905
Lowest eigenvalues of augmented Hessian:
 -0.000020446
Length of the computed step             ....  0.011410608
The final length of the internal step   ....  0.011410608
Converting the step to cartesian space:
 Initial RMS(Int)=    0.0114106078
Transforming coordinates:
 Iter   0:  RMS(Cart)=    0.0032939587 RMS(Int)=    0.0114106078
 Iter   1:  RMS(Cart)=    0.0000000000 RMS(Int)=    0.0000000000
done
Storing new coordinates                 .... done

                                .--------------------.
          ----------------------|Geometry convergence|-------------------------
          Item                value                   Tolerance       Converged
          ---------------------------------------------------------------------
          Energy change      -0.0000102806            0.0000050000      NO
          RMS gradient        0.0017918164            0.0001000000      NO
          MAX gradient        0.0017918164            0.0003000000      NO
          RMS step            0.0114106078            0.0020000000      NO
          MAX step            0.0114106078            0.0040000000      NO
          ........................................................
          Max(Bonds)      0.0060      Max(Angles)    0.00
          Max(Dihed)        0.00      Max(Improp)    0.00
          ---------------------------------------------------------------------

The optimization has not yet converged - more geometry cycles are needed


    ---------------------------------------------------------------------------
                         Redundant Internal Coordinates
                            (Angstroem and degrees)

        Definition                    Value    dE/dq     Step     New-Value
    ----------------------------------------------------------------------------
     1. B(F   1,Ag  0)                1.9790 -0.001792  0.0060    1.9850   
    ----------------------------------------------------------------------------

         *************************************************************
         *                GEOMETRY OPTIMIZATION CYCLE   3            *
         *************************************************************
---------------------------------
CARTESIAN COORDINATES (ANGSTROEM)
---------------------------------
  Ag     0.000000    0.000000    0.321780
  F      0.000000    0.000000   -1.663231

----------------------------
CARTESIAN COORDINATES (A.U.)
----------------------------
  NO LB      ZA    FRAG     MASS         X           Y           Z
   0 Ag   19.0000*   0   107.870    0.000000    0.000000    0.608075
   1 F     9.0000    0    18.998    0.000000    0.000000   -3.143050
* core charge reduced due to ECP

--------------------------------
INTERNAL COORDINATES (ANGSTROEM)
--------------------------------
 Ag     0   0   0     0.000000000000     0.00000000     0.00000000
 F      1   0   0     1.985010005961     0.00000000     0.00000000

---------------------------
INTERNAL COORDINATES (A.U.)
---------------------------
 Ag     0   0   0     0.000000000000     0.00000000     0.00000000
 F      1   0   0     3.751125284359     0.00000000     0.00000000



           ************************************************************
           *        Program running with 24 parallel MPI-processes    *
           *              working on a common directory               *
           ************************************************************


           ************************************************************
           *        Program running with 24 parallel MPI-processes    *
           *              working on a common directory               *
           ************************************************************

Diagonalization of the overlap matrix:
Smallest eigenvalue                        ... 3.457e-03
Time for diagonalization                   ...    0.003 sec
Threshold for overlap eigenvalues          ... 1.000e-08
Number of eigenvalues below threshold      ... 0
Time for construction of square roots      ...    0.001 sec
Total time needed                          ...    0.005 sec

-------------------
DFT GRID GENERATION
-------------------

General Integration Accuracy     IntAcc      ...  4.670
Radial Grid Type                 RadialGrid  ... Gauss-Chebyshev
Angular Grid (max. acc.)         AngularGrid ... Lebedev-302
Angular grid pruning method      GridPruning ... 3 (G Style)
Weight generation scheme         WeightScheme... Becke
Basis function cutoff            BFCut       ...    1.0000e-11
Integration weight cutoff        WCut        ...    1.0000e-14
Grids for H and He will be reduced by one unit

# of grid points (after initial pruning)     ...  16930 (   0.0 sec)
# of grid points (after weights+screening)   ...  16875 (   0.0 sec)
nearest neighbour list constructed           ...    0.0 sec
Grid point re-assignment to atoms done       ...    0.0 sec
Grid point division into batches done        ...    0.1 sec
Reduced shell lists constructed in    0.1 sec

Total number of grid points                  ...    16875
Total number of batches                      ...      265
Average number of points per batch           ...       63
Average number of grid points per atom       ...     8438
Average number of shells per batch           ...     3.31 (11.03%)
Average number of basis functions per batch  ...     7.62 ( 7.93%)
Average number of large shells per batch     ...     2.08 (62.79%)
Average number of large basis fcns per batch ...     4.38 (57.58%)
Maximum spatial batch extension              ...  36.77, 40.43, 23.83 au
Average spatial batch extension              ...   1.19,  1.22,  0.86 au

Time for grid setup =    0.157 sec

--------------
SCF ITERATIONS
--------------
ITER       Energy         Delta-E        Max-DP      RMS-DP      [F,P]     Damp
               ***  Starting incremental Fock matrix formation  ***
  0   -246.8041471036   0.000000000000 0.00024310  0.00000907  0.0092842 0.7000
  1   -246.8041484892  -0.000001385563 0.00020393  0.00000797  0.0065181 0.7000
                               ***Turning on DIIS***
  2   -246.8041494624  -0.000000973271 0.00058174  0.00002021  0.0045692 0.0000
  3   -246.8041518222  -0.000002359779 0.00058993  0.00001225  0.0001470 0.0000
  4   -246.8041518309  -0.000000008633 0.00021510  0.00000516  0.0002362 0.0000
  5   -246.8041519229  -0.000000092080 0.00010777  0.00000222  0.0001092 0.0000
  6   -246.8041519297  -0.000000006758 0.00002379  0.00000088  0.0000550 0.0000
  7   -246.8041519335  -0.000000003787 0.00000833  0.00000026  0.0000093 0.0000
  8   -246.8041519337  -0.000000000257 0.00000101  0.00000003  0.0000018 0.0000
                 **** Energy Check signals convergence ****

               *****************************************************
               *                     SUCCESS                       *
               *           SCF CONVERGED AFTER   9 CYCLES          *
               *****************************************************

Total Energy       :         -246.80415193 Eh           -6715.88240 eV
  Last Energy change         ...   -7.8586e-11  Tolerance :   1.0000e-08
  Last MAX-Density change    ...    4.4939e-07  Tolerance :   1.0000e-07
             **** THE GBW FILE WAS UPDATED (Ag01N0_F.gbw) ****
             **** DENSITY FILE WAS UPDATED (Ag01N0_F.scfp) ****
             **** ENERGY FILE WAS UPDATED (Ag01N0_F.en.tmp) ****
             **** THE GBW FILE WAS UPDATED (Ag01N0_F.gbw) ****
             **** DENSITY FILE WAS UPDATED (Ag01N0_F.scfp) ****
Total SCF time: 0 days 0 hours 0 min 1 sec 


-------------------------------------------------------------------------------
                          DFT DISPERSION CORRECTION                            
                                                                               
                              DFTD3 V3.1  Rev 1                                
                          USING Becke-Johnson damping                          
-------------------------------------------------------------------------------
-------------------------   ----------------
Dispersion correction           -0.000557541
-------------------------   ----------------


-------------------------   --------------------
FINAL SINGLE POINT ENERGY      -246.804709474382
-------------------------   --------------------



           ************************************************************
           *        Program running with 24 parallel MPI-processes    *
           *              working on a common directory               *
           ************************************************************
------------------------------------------------------------------------------
                         ORCA SCF GRADIENT CALCULATION
------------------------------------------------------------------------------

Gradient of the Kohn-Sham DFT energy:
Kohn-Sham wavefunction type      ... RKS
Hartree-Fock exchange scaling    ...    0.100
Number of operators              ...    1
Number of atoms                  ...    2
Basis set dimensions             ...   96
Integral neglect threshold       ... 2.5e-11
Integral primitive cutoff        ... 2.5e-12

Nuclear repulsion gradient       ... done
One Electron Gradient            
  ECP gradient                   ... done
Pre-screening matrix             ... done
Starting the two electron gradient:
Two electron gradient done
Exchange-correlation gradient    ... done
Dispersion correction            ... done

------------------
CARTESIAN GRADIENT
------------------

   1   Ag  :    0.000000001   -0.000000000   -0.000155257
   2   F   :    0.000000002    0.000000003   -0.000079664

Difference to translation invariance:
           :    0.0000000030    0.0000000030   -0.0002349208

Norm of the cartesian gradient     ...    0.0001745023
RMS gradient                       ...    0.0000712403
MAX gradient                       ...    0.0001552569

-------
TIMINGS
-------

Total SCF gradient time            ...        0.760 sec

One electron gradient       ....       0.131 sec  ( 17.2%)
Prescreening matrices       ....       0.006 sec  (  0.8%)
Two electron gradient       ....       0.404 sec  ( 53.2%)
XC gradient                 ....       0.015 sec  (  1.9%)
------------------------------------------------------------------------------
                         ORCA GEOMETRY RELAXATION STEP
------------------------------------------------------------------------------

Reading the OPT-File                    .... done
Getting information on internals        .... done
Copying old internal coords+grads       .... done
Making the new internal coordinates     .... (new redundants).... done
Validating the new internal coordinates .... (new redundants).... done
Calculating the B-matrix                .... done
Calculating the G,G- and P matrices     .... done
Transforming gradient to internals      .... done
Projecting the internal gradient        .... done
Number of atoms                         ....   2
Number of internal coordinates          ....   1
Current Energy                          ....  -246.804709474 Eh
Current gradient norm                   ....     0.000174502 Eh/bohr
Maximum allowed component of the step   ....  0.300
Current trust radius                    ....  0.300
Updating the Hessian (BFGS)             .... done
Forming the augmented Hessian           .... done
Diagonalizing the augmented Hessian     .... done
Last element of RFO vector              ....  0.999999970
Lowest eigenvalues of augmented Hessian:
 -0.000000009
Length of the computed step             ....  0.000245882
The final length of the internal step   ....  0.000245882
Converting the step to cartesian space:
 Initial RMS(Int)=    0.0002458816
Transforming coordinates:
 Iter   0:  RMS(Cart)=    0.0000709799 RMS(Int)=    0.0002458816
 Iter   1:  RMS(Cart)=    0.0000000000 RMS(Int)=    0.0000000000
done
Storing new coordinates                 .... done

                                .--------------------.
          ----------------------|Geometry convergence|-------------------------
          Item                value                   Tolerance       Converged
          ---------------------------------------------------------------------
          Energy change      -0.0000159466            0.0000050000      NO
          RMS gradient        0.0000377965            0.0001000000      YES
          MAX gradient        0.0000377965            0.0003000000      YES
          RMS step            0.0002458816            0.0020000000      YES
          MAX step            0.0002458816            0.0040000000      YES
          ........................................................
          Max(Bonds)      0.0001      Max(Angles)    0.00
          Max(Dihed)        0.00      Max(Improp)    0.00
          ---------------------------------------------------------------------

       Everything but the energy has converged. However, the energy
       appears to be close enough to convergence to make sure that the
       final evaluation at the new geometry represents the equilibrium energy.
       Convergence will therefore be signaled now


                    ***********************HURRAY********************
                    ***        THE OPTIMIZATION HAS CONVERGED     ***
                    *************************************************


    ---------------------------------------------------------------------------
                         Redundant Internal Coordinates

                          --- Optimized Parameters ---  
                            (Angstroem and degrees)

        Definition                    OldVal   dE/dq     Step     FinalVal
    ----------------------------------------------------------------------------
     1. B(F   1,Ag  0)                1.9850 -0.000038  0.0001    1.9851   
    ----------------------------------------------------------------------------
                 *******************************************************
                 *** FINAL ENERGY EVALUATION AT THE STATIONARY POINT ***
                 ***               (AFTER    3 CYCLES)               ***
                 *******************************************************
---------------------------------
CARTESIAN COORDINATES (ANGSTROEM)
---------------------------------
  Ag     0.000000    0.000000    0.321845
  F      0.000000    0.000000   -1.663296

----------------------------
CARTESIAN COORDINATES (A.U.)
----------------------------
  NO LB      ZA    FRAG     MASS         X           Y           Z
   0 Ag   19.0000*   0   107.870    0.000000    0.000000    0.608198
   1 F     9.0000    0    18.998    0.000000    0.000000   -3.143173
* core charge reduced due to ECP

--------------------------------
INTERNAL COORDINATES (ANGSTROEM)
--------------------------------
 Ag     0   0   0     0.000000000000     0.00000000     0.00000000
 F      1   0   0     1.985140120900     0.00000000     0.00000000

---------------------------
INTERNAL COORDINATES (A.U.)
---------------------------
 Ag     0   0   0     0.000000000000     0.00000000     0.00000000
 F      1   0   0     3.751371165960     0.00000000     0.00000000

---------------------
BASIS SET INFORMATION
---------------------
There are 2 groups of distinct atoms

 Group   1 Type Ag  : 7s7p6d2f1g contracted to 6s4p3d2f1g pattern {211111/4111/411/11/1}
 Group   2 Type F   : 12s7p3d1f contracted to 6s4p3d1f pattern {621111/4111/111/1}

Atom   0Ag   basis set group =>   1
Atom   1F    basis set group =>   2
----------------------------------
AUXILIARY/JK BASIS SET INFORMATION
----------------------------------
There are 2 groups of distinct atoms

 Group   1 Type Ag  : 13s12p10d9f6g3h2i contracted to 11s10p9d8f6g3h2i pattern {31111111111/3111111111/211111111/21111111/111111/111/11}
 Group   2 Type F   : 14s10p6d2f1g contracted to 10s8p4d2f1g pattern {5111111111/31111111/3111/11/1}

Atom   0Ag   basis set group =>   1
Atom   1F    basis set group =>   2
-------------------------
ECP PARAMETER INFORMATION
-------------------------

 Group 1, Type Ag ECP Def2-ECP (replacing 28 core electrons, lmax=3)

Atom   0Ag   ECP group =>   1



           ************************************************************
           *        Program running with 24 parallel MPI-processes    *
           *              working on a common directory               *
           ************************************************************
------------------------------------------------------------------------------
                           ORCA GTO INTEGRAL CALCULATION
------------------------------------------------------------------------------

                         BASIS SET STATISTICS AND STARTUP INFO

 # of primitive gaussian shells          ...   46
 # of primitive gaussian functions       ...  136
 # of contracted shells                  ...   30
 # of contracted basis functions         ...   96
 Highest angular momentum                ...    4
 Maximum contraction depth               ...    6
 Integral package used                   ... LIBINT
 Integral threshhold            Thresh   ...  2.500e-11
 Primitive cut-off              TCut     ...  2.500e-12


------------------------------ INTEGRAL EVALUATION ----------------------------


 * One electron integrals 

   ECP integrals                         ... done
 Pre-screening matrix                    ... done
 Shell pair data                         ... done (   0.000 sec)



           ************************************************************
           *        Program running with 24 parallel MPI-processes    *
           *              working on a common directory               *
           ************************************************************
-------------------------------------------------------------------------------
                                 ORCA SCF
-------------------------------------------------------------------------------

------------
SCF SETTINGS
------------
Hamiltonian:
 Density Functional     Method          .... DFT(GTOs)
 Exchange Functional    Exchange        .... TPSS
 Correlation Functional Correlation     .... TPSS
 LDA part of GGA corr.  LDAOpt          .... PW91-LDA
 Gradients option       PostSCFGGA      .... off
 Hybrid DFT is turned on
   Fraction HF Exchange ScalHFX         ....  0.100000
   Scaling of DF-GGA-X  ScalDFX         ....  0.900000
   Scaling of DF-GGA-C  ScalDFC         ....  1.000000
   Scaling of DF-LDA-C  ScalLDAC        ....  1.000000
   Perturbative correction              ....  0.000000
   Density functional embedding theory  .... OFF
   NL short-range parameter             ....  5.200000


General Settings:
 Integral files         IntName         .... Ag01N0_F
 Hartree-Fock type      HFTyp           .... RHF
 Total Charge           Charge          ....    0
 Multiplicity           Mult            ....    1
 Number of Electrons    NEL             ....   28
 Basis Dimension        Dim             ....   96
 Nuclear Repulsion      ENuc            ....     45.5833327162 Eh

Convergence Acceleration:
 DIIS                   CNVDIIS         .... on
   Start iteration      DIISMaxIt       ....    12
   Startup error        DIISStart       ....  0.200000
   # of expansion vecs  DIISMaxEq       ....     5
   Bias factor          DIISBfac        ....   1.050
   Max. coefficient     DIISMaxC        ....  10.000
 Newton-Raphson         CNVNR           .... off
 SOSCF                  CNVSOSCF        .... off
 Level Shifting         CNVShift        .... on
   Level shift para.    LevelShift      ....    0.2500
   Turn off err/grad.   ShiftErr        ....    0.0010
 Zerner damping         CNVZerner       .... off
 Static damping         CNVDamp         .... on
   Fraction old density DampFac         ....    0.7000
   Max. Damping (<1)    DampMax         ....    0.9800
   Min. Damping (>=0)   DampMin         ....    0.0000
   Turn off err/grad.   DampErr         ....    0.1000
 Fernandez-Rico         CNVRico         .... off

SCF Procedure:
 Maximum # iterations   MaxIter         ....   125
 SCF integral mode      SCFMode         .... Direct
   Integral package                     .... LIBINT
 Reset frequency        DirectResetFreq ....    20
 Integral Threshold     Thresh          ....  2.500e-11 Eh
 Primitive CutOff       TCut            ....  2.500e-12 Eh

Convergence Tolerance:
 Convergence Check Mode ConvCheckMode   .... Total+1el-Energy
 Convergence forced     ConvForced      .... 0
 Energy Change          TolE            ....  1.000e-08 Eh
 1-El. energy change                    ....  1.000e-05 Eh
 DIIS Error             TolErr          ....  5.000e-07


Diagonalization of the overlap matrix:
Smallest eigenvalue                        ... 3.458e-03
Time for diagonalization                   ...    0.003 sec
Threshold for overlap eigenvalues          ... 1.000e-08
Number of eigenvalues below threshold      ... 0
Time for construction of square roots      ...    0.001 sec
Total time needed                          ...    0.004 sec

---------------------
INITIAL GUESS: MOREAD
---------------------
Guess MOs are being read from file: Ag01N0_F.gbw
Input Geometry matches current geometry (good)
Input basis set matches current basis set (good)
MOs were renormalized
MOs were reorthogonalized (Cholesky)
                      ------------------
                      INITIAL GUESS DONE (   0.0 sec)
                      ------------------
-------------------
DFT GRID GENERATION
-------------------

General Integration Accuracy     IntAcc      ...  4.670
Radial Grid Type                 RadialGrid  ... Gauss-Chebyshev
Angular Grid (max. acc.)         AngularGrid ... Lebedev-302
Angular grid pruning method      GridPruning ... 3 (G Style)
Weight generation scheme         WeightScheme... Becke
Basis function cutoff            BFCut       ...    1.0000e-11
Integration weight cutoff        WCut        ...    1.0000e-14
Grids for H and He will be reduced by one unit

# of grid points (after initial pruning)     ...  16930 (   0.0 sec)
# of grid points (after weights+screening)   ...  16875 (   0.0 sec)
nearest neighbour list constructed           ...    0.0 sec
Grid point re-assignment to atoms done       ...    0.0 sec
Grid point division into batches done        ...    0.1 sec
Reduced shell lists constructed in    0.1 sec

Total number of grid points                  ...    16875
Total number of batches                      ...      265
Average number of points per batch           ...       63
Average number of grid points per atom       ...     8438
Average number of shells per batch           ...     3.31 (11.03%)
Average number of basis functions per batch  ...     7.62 ( 7.93%)
Average number of large shells per batch     ...     2.08 (62.79%)
Average number of large basis fcns per batch ...     4.38 (57.58%)
Maximum spatial batch extension              ...  36.77, 40.43, 23.83 au
Average spatial batch extension              ...   1.18,  1.23,  0.86 au

Time for grid setup =    0.162 sec

--------------
SCF ITERATIONS
--------------
ITER       Energy         Delta-E        Max-DP      RMS-DP      [F,P]     Damp
               ***  Starting incremental Fock matrix formation  ***
  0   -246.8041520504   0.000000000000 0.00000530  0.00000020  0.0001986 0.7000
  1   -246.8041520511  -0.000000000724 0.00000442  0.00000017  0.0001394 0.7000
                               ***Turning on DIIS***
  2   -246.8041520517  -0.000000000559 0.00001916  0.00000052  0.0000977 0.0000
  3   -246.8041520529  -0.000000001216 0.00000622  0.00000018  0.0000043 0.0000
  4   -246.8041520528   0.000000000090 0.00000763  0.00000016  0.0000107 0.0000
                 **** Energy Check signals convergence ****

               *****************************************************
               *                     SUCCESS                       *
               *           SCF CONVERGED AFTER   5 CYCLES          *
               *****************************************************


----------------
TOTAL SCF ENERGY
----------------

Total Energy       :         -246.80415205 Eh           -6715.88241 eV

Components:
Nuclear Repulsion  :           45.58333272 Eh            1240.38554 eV
Electronic Energy  :         -292.38748477 Eh           -7956.26795 eV
One Electron Energy:         -492.35978301 Eh          -13397.79083 eV
Two Electron Energy:          199.97229824 Eh            5441.52288 eV

Virial components:
Potential Energy   :         -402.70401535 Eh          -10958.13336 eV
Kinetic Energy     :          155.89986329 Eh            4242.25095 eV
Virial Ratio       :            2.58309409


DFT components:
N(Alpha)           :       14.000012142169 electrons
N(Beta)            :       14.000012142169 electrons
N(Total)           :       28.000024284338 electrons
E(X)               :      -21.097742613334 Eh       
E(C)               :       -1.135981116708 Eh       
E(XC)              :      -22.233723730043 Eh       
DFET-embed. en.    :        0.000000000000 Eh       

---------------
SCF CONVERGENCE
---------------

  Last Energy change         ...   -1.4728e-10  Tolerance :   1.0000e-08
  Last MAX-Density change    ...    1.1494e-06  Tolerance :   1.0000e-07
  Last RMS-Density change    ...    3.8659e-08  Tolerance :   5.0000e-09
  Last DIIS Error            ...    1.9554e-06  Tolerance :   5.0000e-07

             **** THE GBW FILE WAS UPDATED (Ag01N0_F.gbw) ****
             **** DENSITY FILE WAS UPDATED (Ag01N0_F.scfp) ****
             **** ENERGY FILE WAS UPDATED (Ag01N0_F.en.tmp) ****
             **** THE GBW FILE WAS UPDATED (Ag01N0_F.gbw) ****
             **** DENSITY FILE WAS UPDATED (Ag01N0_F.scfp) ****
----------------
ORBITAL ENERGIES
----------------

  NO   OCC          E(Eh)            E(eV) 
   0   2.0000     -24.486246      -666.3046 
   1   2.0000      -3.697917      -100.6254 
   2   2.0000      -2.305367       -62.7322 
   3   2.0000      -2.303213       -62.6736 
   4   2.0000      -2.303213       -62.6736 
   5   2.0000      -1.012738       -27.5580 
   6   2.0000      -0.374161       -10.1814 
   7   2.0000      -0.345112        -9.3910 
   8   2.0000      -0.345112        -9.3910 
   9   2.0000      -0.327456        -8.9105 
  10   2.0000      -0.327456        -8.9105 
  11   2.0000      -0.265441        -7.2230 
  12   2.0000      -0.265441        -7.2230 
  13   2.0000      -0.262613        -7.1461 
  14   0.0000      -0.130902        -3.5620 
  15   0.0000      -0.006011        -0.1636 
  16   0.0000      -0.006011        -0.1636 
  17   0.0000       0.033664         0.9160 
  18   0.0000       0.083300         2.2667 
  19   0.0000       0.145805         3.9676 
  20   0.0000       0.153462         4.1759 
  21   0.0000       0.153462         4.1759 
  22   0.0000       0.189689         5.1617 
  23   0.0000       0.189689         5.1617 
  24   0.0000       0.237514         6.4631 
  25   0.0000       0.338116         9.2006 
  26   0.0000       0.386758        10.5242 
  27   0.0000       0.386759        10.5242 
  28   0.0000       0.471085        12.8189 
  29   0.0000       0.471085        12.8189 
  30   0.0000       0.514993        14.0137 
  31   0.0000       0.560959        15.2645 
  32   0.0000       0.560970        15.2648 
  33   0.0000       0.681213        18.5367 
  34   0.0000       0.681213        18.5367 
  35   0.0000       0.682089        18.5606 
  36   0.0000       0.804960        21.9041 
  37   0.0000       0.804960        21.9041 
  38   0.0000       1.067583        29.0504 
  39   0.0000       1.115619        30.3575 
  40   0.0000       1.544916        42.0393 
  41   0.0000       1.544916        42.0393 
  42   0.0000       1.558988        42.4222 
  43   0.0000       1.558989        42.4223 
  44   0.0000       1.565310        42.5942 
  45   0.0000       1.565310        42.5942 
  46   0.0000       1.636630        44.5350 
  47   0.0000       1.657121        45.0925 
  48   0.0000       1.657121        45.0925 
  49   0.0000       1.748715        47.5850 
  50   0.0000       1.953458        53.1563 
  51   0.0000       2.002667        54.4953 
  52   0.0000       2.002668        54.4954 
  53   0.0000       2.014218        54.8097 
  54   0.0000       2.014218        54.8097 
  55   0.0000       2.053977        55.8915 
  56   0.0000       2.318390        63.0866 
  57   0.0000       2.318454        63.0883 
  58   0.0000       2.388714        65.0002 
  59   0.0000       2.388714        65.0002 
  60   0.0000       2.751854        74.8817 
  61   0.0000       3.399124        92.4949 
  62   0.0000       3.399124        92.4949 
  63   0.0000       3.704530       100.8054 
  64   0.0000       4.137615       112.5902 
  65   0.0000       4.771035       129.8265 
  66   0.0000       4.771035       129.8265 
  67   0.0000       4.781129       130.1011 
  68   0.0000       4.781144       130.1015 
  69   0.0000       4.845281       131.8468 
  70   0.0000       4.845281       131.8468 
  71   0.0000       5.033630       136.9720 
  72   0.0000       5.531683       150.5247 
  73   0.0000       5.531694       150.5250 
  74   0.0000       5.532646       150.5509 
  75   0.0000       5.532646       150.5509 
  76   0.0000       5.534181       150.5927 
  77   0.0000       5.534181       150.5927 
  78   0.0000       5.534415       150.5991 
  79   0.0000       5.534452       150.6001 
  80   0.0000       5.593102       152.1960 
  81   0.0000       7.013137       190.8372 
  82   0.0000       7.014358       190.8704 
  83   0.0000       7.029685       191.2874 
  84   0.0000       7.029685       191.2874 
  85   0.0000       7.037204       191.4921 
  86   0.0000       7.037204       191.4921 
  87   0.0000       7.148991       194.5339 
  88   0.0000       8.544405       232.5051 
  89   0.0000       8.544820       232.5164 
  90   0.0000       8.575103       233.3404 
  91   0.0000       8.575103       233.3404 
  92   0.0000       8.768242       238.5960 
  93   0.0000      33.317068       906.6035 
  94   0.0000      57.112057      1554.0981 
  95   0.0000     110.728437      3013.0739 

                    ********************************
                    * MULLIKEN POPULATION ANALYSIS *
                    ********************************

-----------------------
MULLIKEN ATOMIC CHARGES
-----------------------
   0 Ag:    0.679750
   1 F :   -0.679750
Sum of atomic charges:   -0.0000000

--------------------------------
MULLIKEN REDUCED ORBITAL CHARGES
--------------------------------
  0 Ags       :     2.327437  s :     2.327437
      pz      :     2.020506  p :     6.072225
      px      :     2.025859
      py      :     2.025859
      dz2     :     1.916532  d :     9.914207
      dxz     :     1.998684
      dyz     :     1.998684
      dx2y2   :     2.000154
      dxy     :     2.000154
      f0      :     0.003038  f :     0.006301
      f+1     :     0.001534
      f-1     :     0.001534
      f+2     :     0.000098
      f-2     :     0.000098
      f+3     :     0.000000
      f-3     :     0.000000
      g0      :     0.000043  g :     0.000080
      g+1     :     0.000018
      g-1     :     0.000018
      g+2     :     0.000000
      g-2     :     0.000000
      g+3     :     0.000000
      g-3     :     0.000000
      g+4     :     0.000000
      g-4     :     0.000000
  1 F s       :     3.993544  s :     3.993544
      pz      :     1.734906  p :     5.682291
      px      :     1.973693
      py      :     1.973693
      dz2     :     0.003947  d :     0.003803
      dxz     :     0.000183
      dyz     :     0.000183
      dx2y2   :    -0.000255
      dxy     :    -0.000255
      f0      :     0.000047  f :     0.000111
      f+1     :     0.000030
      f-1     :     0.000030
      f+2     :     0.000002
      f-2     :     0.000002
      f+3     :     0.000000
      f-3     :     0.000000


                     *******************************
                     * LOEWDIN POPULATION ANALYSIS *
                     *******************************

----------------------
LOEWDIN ATOMIC CHARGES
----------------------
   0 Ag:    0.700372
   1 F :   -0.700372

-------------------------------
LOEWDIN REDUCED ORBITAL CHARGES
-------------------------------
  0 Ags       :     2.212357  s :     2.212357
      pz      :     2.061921  p :     6.134435
      px      :     2.036257
      py      :     2.036257
      dz2     :     1.959137  d :     9.941510
      dxz     :     1.994148
      dyz     :     1.994148
      dx2y2   :     1.997038
      dxy     :     1.997038
      f0      :     0.005902  f :     0.011179
      f+1     :     0.002525
      f-1     :     0.002525
      f+2     :     0.000113
      f-2     :     0.000113
      f+3     :     0.000000
      f-3     :     0.000000
      g0      :     0.000085  g :     0.000148
      g+1     :     0.000032
      g-1     :     0.000032
      g+2     :     0.000000
      g-2     :     0.000000
      g+3     :     0.000000
      g-3     :     0.000000
      g+4     :     0.000000
      g-4     :     0.000000
  1 F s       :     3.893402  s :     3.893402
      pz      :     1.814464  p :     5.707225
      px      :     1.946380
      py      :     1.946380
      dz2     :     0.052614  d :     0.099485
      dxz     :     0.020592
      dyz     :     0.020592
      dx2y2   :     0.002844
      dxy     :     0.002844
      f0      :     0.000118  f :     0.000260
      f+1     :     0.000066
      f-1     :     0.000066
      f+2     :     0.000005
      f-2     :     0.000005
      f+3     :     0.000000
      f-3     :     0.000000


                      *****************************
                      * MAYER POPULATION ANALYSIS *
                      *****************************

  NA   - Mulliken gross atomic population
  ZA   - Total nuclear charge
  QA   - Mulliken gross atomic charge
  VA   - Mayer's total valence
  BVA  - Mayer's bonded valence
  FA   - Mayer's free valence

  ATOM       NA         ZA         QA         VA         BVA        FA
  0 Ag    18.3203    19.0000     0.6797     0.5277     0.5277    -0.0000
  1 F      9.6797     9.0000    -0.6797     0.5277     0.5277     0.0000

  Mayer bond orders larger than 0.100000
B(  0-Ag,  1-F ) :   0.5277 

-------
TIMINGS
-------

Total SCF time: 0 days 0 hours 0 min 1 sec 

Total time                  ....       1.393 sec
Sum of individual times     ....       1.162 sec  ( 83.4%)

Fock matrix formation       ....       0.980 sec  ( 70.4%)
  XC integration            ....       0.073 sec  (  7.5% of F)
    Basis function eval.    ....       0.010 sec  ( 13.9% of XC)
    Density eval.           ....       0.012 sec  ( 17.0% of XC)
    XC-Functional eval.     ....       0.009 sec  ( 12.5% of XC)
    XC-Potential eval.      ....       0.014 sec  ( 19.4% of XC)
Diagonalization             ....       0.007 sec  (  0.5%)
Density matrix formation    ....       0.002 sec  (  0.1%)
Population analysis         ....       0.002 sec  (  0.2%)
Initial guess               ....       0.006 sec  (  0.4%)
Orbital Transformation      ....       0.000 sec  (  0.0%)
Orbital Orthonormalization  ....       0.003 sec  (  0.2%)
DIIS solution               ....       0.003 sec  (  0.2%)
Grid generation             ....       0.162 sec  ( 11.6%)


-------------------------------------------------------------------------------
                          DFT DISPERSION CORRECTION                            
                                                                               
                              DFTD3 V3.1  Rev 1                                
                          USING Becke-Johnson damping                          
-------------------------------------------------------------------------------
The TPSSH functional is recognized
Active option DFTDOPT                   ...         4   

molecular C6(AA) [au] = 356.110885 


            DFT-D V3
 parameters
 s6 scaling factor         :     1.0000 
 a1 scaling factor         :     0.4529 
 s8 scaling factor         :     2.2382 
 a2 scaling factor         :     4.6550 
 ad hoc parameters k1-k3   :    16.0000     1.3333    -4.0000 

 Edisp/kcal,au: -0.349861832027  -0.000557540259 
 E6   /kcal   :  -0.135760361 
 E8   /kcal   :  -0.214101471 
 % E8         :  61.196006925 

-------------------------   ----------------
Dispersion correction           -0.000557540
-------------------------   ----------------


-------------------------   --------------------
FINAL SINGLE POINT ENERGY      -246.804709593212
-------------------------   --------------------

                                *** OPTIMIZATION RUN DONE ***

                            ***************************************
                            *     ORCA property calculations      *
                            ***************************************

                                    ---------------------
                                    Active property flags
                                    ---------------------
   (+) Dipole Moment


------------------------------------------------------------------------------
                       ORCA ELECTRIC PROPERTIES CALCULATION
------------------------------------------------------------------------------

Dipole Moment Calculation                       ... on
Quadrupole Moment Calculation                   ... off
Polarizability Calculation                      ... off
GBWName                                         ... Ag01N0_F.gbw
Electron density file                           ... Ag01N0_F.scfp
The origin for moment calculation is the CENTER OF MASS  = ( 0.000000,  0.000000  0.046445)

-------------
DIPOLE MOMENT
-------------
                                X             Y             Z
Electronic contribution:      0.00000      -0.00000      20.23089
Nuclear contribution   :      0.00000       0.00000     -18.03324
                        -----------------------------------------
Total Dipole Moment    :      0.00000      -0.00000       2.19765
                        -----------------------------------------
Magnitude (a.u.)       :      2.19765
Magnitude (Debye)      :      5.58597



--------------------
Rotational spectrum 
--------------------
 
Rotational constants in cm-1:     0.000000     0.264824     0.264824 
Rotational constants in MHz :     0.000000  7939.237643  7939.237643 

 Dipole components along the rotational axes: 
x,y,z [a.u.] :     2.197646    -0.000000     0.000000 
x,y,z [Debye]:     5.585972    -0.000000     0.000000 

 

----------------------------------------------------------------------------
                           ORCA NUMERICAL FREQUENCIES
                              (24-process run)
----------------------------------------------------------------------------

Number of atoms                ... 2
Central differences            ... used
Number of displacements        ... 12
Numerical increment            ... 5.000e-03 bohr
IR-spectrum generation         ... on
Raman-spectrum generation      ... off
Surface Crossing Hessian       ... off

 WARNING: There are more processes than displacements to do
  ====> : Reducing number of processes to   6

The output will be reduced. Please look at the following files:
SCF program output             ... >Ag01N0_F.lastscf
Integral program output        ... >Ag01N0_F.lastint
Gradient program output        ... >Ag01N0_F.lastgrad
Dipole moment program output   ... >Ag01N0_F.lastmom
AutoCI program output          ... >Ag01N0_F.lastautoci


         <<< Energy and Gradient at the input geometry >>>

        <<< Energy and Gradient at displaced geometries >>>
             <<<Displacing   2/coordinate 1 (+)>>>
             <<<Displacing   1/coordinate 3 (+)>>>
             <<<Displacing   1/coordinate 1 (+)>>>
             <<<Displacing   2/coordinate 3 (+)>>>
             <<<Displacing   2/coordinate 2 (+)>>>
             <<<Displacing   1/coordinate 2 (+)>>>
             <<<Displacing   2/coordinate 1 (-)>>>
             <<<Displacing   1/coordinate 3 (-)>>>
             <<<Displacing   1/coordinate 2 (-)>>>
             <<<Displacing   2/coordinate 2 (-)>>>
             <<<Displacing   1/coordinate 1 (-)>>>
             <<<Displacing   2/coordinate 3 (-)>>>
Warning: T+R mode no 5 is zero 

-----------------------
VIBRATIONAL FREQUENCIES
-----------------------

Scaling factor for frequencies =  1.000000000 (already applied!)

   0:         0.00 cm**-1
   1:         0.00 cm**-1
   2:         0.00 cm**-1
   3:         0.00 cm**-1
   4:         0.00 cm**-1
   5:       498.28 cm**-1


------------
NORMAL MODES
------------

These modes are the cartesian displacements weighted by the diagonal matrix
M(i,i)=1/sqrt(m[i]) where m[i] is the mass of the displaced atom
Thus, these vectors are normalized but *not* orthogonal

                  0          1          2          3          4          5    
      0       0.000000   0.000000   0.000000   0.000000   0.000000   0.000000
      1       0.000000   0.000000   0.000000   0.000000   0.000000   0.000000
      2       0.000000   0.000000   0.000000   0.000000   0.000000   0.173450
      3       0.000000   0.000000   0.000000   0.000000   0.000000   0.000000
      4       0.000000   0.000000   0.000000   0.000000   0.000000   0.000000
      5       0.000000   0.000000   0.000000   0.000000   0.000000  -0.984843


-----------
IR SPECTRUM  
-----------

 Mode    freq (cm**-1)   T**2         TX         TY         TZ
-------------------------------------------------------------------
   5:       498.28   48.040516  ( -0.000032   0.000023   6.931127)

The first frequency considered to be a vibration is 5
The total number of vibrations considered is 1


--------------------------
THERMOCHEMISTRY AT 298.15K
--------------------------

Temperature         ... 298.15 K
Pressure            ... 1.00 atm
Total Mass          ... 126.87 AMU
The molecule is recognized as being linear

Throughout the following assumptions are being made:
  (1) The electronic state is orbitally nondegenerate
  (2) There are no thermally accessible electronically excited states
  (3) Hindered rotations indicated by low frequency modes are not
      treated as such but are treated as vibrations and this may
      cause some error
  (4) All equations used are the standard statistical mechanics
      equations for an ideal gas
  (5) All vibrations are strictly harmonic

freq.     498.28  E(vib)   ...       0.14 

------------
INNER ENERGY
------------

The inner energy is: U= E(el) + E(ZPE) + E(vib) + E(rot) + E(trans)
    E(el)   - is the total energy from the electronic structure calculation
              = E(kin-el) + E(nuc-el) + E(el-el) + E(nuc-nuc)
    E(ZPE)  - the the zero temperature vibrational energy from the frequency calculation
    E(vib)  - the the finite temperature correction to E(ZPE) due to population
              of excited vibrational states
    E(rot)  - is the rotational thermal energy
    E(trans)- is the translational thermal energy

Summary of contributions to the inner energy U:
Electronic energy                ...   -246.80470959 Eh
Zero point energy                ...      0.00113515 Eh       0.71 kcal/mol
Thermal vibrational correction   ...      0.00022540 Eh       0.14 kcal/mol
Thermal rotational correction    ...      0.00094418 Eh       0.59 kcal/mol
Thermal translational correction ...      0.00141627 Eh       0.89 kcal/mol
-----------------------------------------------------------------------
Total thermal energy                   -246.80098859 Eh


Summary of corrections to the electronic energy:
(perhaps to be used in another calculation)
Total thermal correction                  0.00258585 Eh       1.62 kcal/mol
Non-thermal (ZPE) correction              0.00113515 Eh       0.71 kcal/mol
-----------------------------------------------------------------------
Total correction                          0.00372101 Eh       2.33 kcal/mol


--------
ENTHALPY
--------

The enthalpy is H = U + kB*T
                kB is Boltzmann's constant
Total free energy                 ...   -246.80098859 Eh 
Thermal Enthalpy correction       ...      0.00094421 Eh       0.59 kcal/mol
-----------------------------------------------------------------------
Total Enthalpy                    ...   -246.80004438 Eh


Note: Rotational entropy computed according to Herzberg 
Infrared and Raman Spectra, Chapter V,1, Van Nostrand Reinhold, 1945 
Point Group:  Cinfv, Symmetry Number:   1  
Rotational constants in cm-1:     0.000000     0.264824     0.264824 

Vibrational entropy computed according to the QRRHO of S. Grimme
Chem.Eur.J. 2012 18 9955


-------
ENTROPY
-------

The entropy contributions are T*S = T*(S(el)+S(vib)+S(rot)+S(trans))
     S(el)   - electronic entropy
     S(vib)  - vibrational entropy
     S(rot)  - rotational entropy
     S(trans)- translational entropy
The entropies will be listed as mutliplied by the temperature to get
units of energy

Electronic entropy                ...      0.00000000 Eh      0.00 kcal/mol
Vibrational entropy               ...      0.00031522 Eh      0.20 kcal/mol
Rotational entropy                ...      0.00723478 Eh      4.54 kcal/mol
Translational entropy             ...      0.01920828 Eh     12.05 kcal/mol
-----------------------------------------------------------------------
Final entropy term                ...      0.02675829 Eh     16.79 kcal/mol

In case the symmetry of your molecule has not been determined correctly
or in case you have a reason to use a different symmetry number we print 
out the resulting rotational entropy values for sn=1,12 :
 --------------------------------------------------------
|  sn= 1 | S(rot)=             -inf Eh      -inf kcal/mol|
|  sn= 2 | S(rot)=             -inf Eh      -inf kcal/mol|
|  sn= 3 | S(rot)=             -inf Eh      -inf kcal/mol|
|  sn= 4 | S(rot)=             -inf Eh      -inf kcal/mol|
|  sn= 5 | S(rot)=             -inf Eh      -inf kcal/mol|
|  sn= 6 | S(rot)=             -inf Eh      -inf kcal/mol|
|  sn= 7 | S(rot)=             -inf Eh      -inf kcal/mol|
|  sn= 8 | S(rot)=             -inf Eh      -inf kcal/mol|
|  sn= 9 | S(rot)=             -inf Eh      -inf kcal/mol|
|  sn=10 | S(rot)=             -inf Eh      -inf kcal/mol|
|  sn=11 | S(rot)=             -inf Eh      -inf kcal/mol|
|  sn=12 | S(rot)=             -inf Eh      -inf kcal/mol|
 --------------------------------------------------------


-------------------
GIBBS FREE ENERGY
-------------------

The Gibbs free energy is G = H - T*S

Total enthalpy                    ...   -246.80004438 Eh 
Total entropy correction          ...     -0.02675829 Eh    -16.79 kcal/mol
-----------------------------------------------------------------------
Final Gibbs free energy         ...   -246.82680267 Eh

For completeness - the Gibbs free energy minus the electronic energy
G-E(el)                           ...     -0.02209308 Eh    -13.86 kcal/mol


Total Time for Numerical Frequencies  :        26.218 sec

Timings for individual modules:

Sum of individual times         ...       20.932 sec (=   0.349 min)
GTO integral calculation        ...        3.772 sec (=   0.063 min)  18.0 %
SCF iterations                  ...       12.296 sec (=   0.205 min)  58.7 %
SCF Gradient evaluation         ...        4.629 sec (=   0.077 min)  22.1 %
Geometry relaxation             ...        0.235 sec (=   0.004 min)   1.1 %
                             ****ORCA TERMINATED NORMALLY****
TOTAL RUN TIME: 0 days 0 hours 0 minutes 45 seconds 215 msec
