
                                 *****************
                                 * O   R   C   A *
                                 *****************

           --- An Ab Initio, DFT and Semiempirical electronic structure package ---

                  #######################################################
                  #                        -***-                        #
                  #          Department of theory and spectroscopy      #
                  #               Directorship: Frank Neese             #
                  #        Max Planck Institute fuer Kohlenforschung    #
                  #                Kaiser Wilhelm Platz 1               #
                  #                 D-45470 Muelheim/Ruhr               #
                  #                      Germany                        #
                  #                                                     #
                  #                  All rights reserved                #
                  #                        -***-                        #
                  #######################################################


                         Program Version 4.2.0 -  RELEASE  -


 With contributions from (in alphabetic order):
   Daniel Aravena         : Magnetic Suceptibility
   Michael Atanasov       : Ab Initio Ligand Field Theory (pilot matlab implementation)
   Alexander A. Auer      : GIAO ZORA, VPT2
   Ute Becker             : Parallelization
   Giovanni Bistoni       : ED, misc. LED, open-shell LED, HFLED
   Martin Brehm           : Molecular dynamics
   Dmytro Bykov           : SCF Hessian
   Vijay G. Chilkuri      : MRCI spin determinant printing, contributions to CSF-ICE
   Dipayan Datta          : RHF DLPNO-CCSD density
   Achintya Kumar Dutta   : EOM-CC, STEOM-CC
   Dmitry Ganyushin       : Spin-Orbit,Spin-Spin,Magnetic field MRCI
   Miquel Garcia          : C-PCM Hessian, Gaussian charge scheme
   Yang Guo               : DLPNO-NEVPT2, CIM, IAO-localization
   Andreas Hansen         : Spin unrestricted coupled pair/coupled cluster methods
   Benjamin Helmich-Paris : CASSCF linear response (MC-RPA)
   Lee Huntington         : MR-EOM, pCC
   Robert Izsak           : Overlap fitted RIJCOSX, COSX-SCS-MP3, EOM
   Christian Kollmar      : KDIIS, OOCD, Brueckner-CCSD(T), CCSD density
   Simone Kossmann        : Meta GGA functionals, TD-DFT gradient, OOMP2, MP2 Hessian
   Martin Krupicka        : AUTO-CI
   Lucas Lang             : DCDCAS
   Dagmar Lenk            : GEPOL surface, SMD
   Dimitrios Liakos       : Extrapolation schemes; Compound Job, initial MDCI parallelization
   Dimitrios Manganas     : Further ROCIS development; embedding schemes
   Dimitrios Pantazis     : SARC Basis sets
   Taras Petrenko         : DFT Hessian,TD-DFT gradient, ASA, ECA, R-Raman, ABS, FL, XAS/XES, NRVS
   Peter Pinski           : DLPNO-MP2, DLPNO-MP2 Gradient
   Christoph Reimann      : Effective Core Potentials
   Marius Retegan         : Local ZFS, SOC
   Christoph Riplinger    : Optimizer, TS searches, QM/MM, DLPNO-CCSD(T), (RO)-DLPNO pert. Triples
   Tobias Risthaus        : Range-separated hybrids, TD-DFT gradient, RPA, STAB
   Michael Roemelt        : Original ROCIS implementation
   Masaaki Saitow         : Open-shell DLPNO-CCSD energy and density
   Barbara Sandhoefer     : DKH picture change effects
   Avijit Sen             : IP-ROCIS
   Kantharuban Sivalingam : CASSCF convergence, NEVPT2, FIC-MRCI
   Bernardo de Souza      : ESD, SOC TD-DFT
   Georgi Stoychev        : AutoAux, RI-MP2 NMR
   Willem Van den Heuvel  : Paramagnetic NMR
   Boris Wezisla          : Elementary symmetry handling
   Frank Wennmohs         : Technical directorship


 We gratefully acknowledge several colleagues who have allowed us to
 interface, adapt or use parts of their codes:
   Stefan Grimme, W. Hujo, H. Kruse,             : VdW corrections, initial TS optimization,
                  C. Bannwarth                     DFT functionals, gCP, sTDA/sTD-DF
   Ed Valeev, F. Pavosevic, A. Kumar             : LibInt (2-el integral package), F12 methods
   Garnet Chan, S. Sharma, J. Yang, R. Olivares  : DMRG
   Ulf Ekstrom                                   : XCFun DFT Library
   Mihaly Kallay                                 : mrcc  (arbitrary order and MRCC methods)
   Andreas Klamt, Michael Diedenhofen            : otool_cosmo (COSMO solvation model)
   Jiri Pittner, Ondrej Demel                    : Mk-CCSD
   Frank Weinhold                                : gennbo (NPA and NBO analysis)
   Christopher J. Cramer and Donald G. Truhlar   : smd solvation model
   Lars Goerigk                                  : TD-DFT with DH, B97 family of functionals
   V. Asgeirsson, H. Jonsson                     : NEB implementation
   FAccTs GmbH                                   : IRC, NEB, NEB-TS, Multilevel, MM, QM/MM, CI optimization
   S Lehtola, MJT Oliveira, MAL Marques          : LibXC Library


 Your calculation uses the libint2 library for the computation of 2-el integrals
 For citations please refer to: http://libint.valeyev.net

 Your ORCA version has been built with support for libXC version: 4.2.3
 For citations please refer to: https://tddft.org/programs/libxc/

 This ORCA versions uses:
   CBLAS   interface :  Fast vector & matrix operations
   LAPACKE interface :  Fast linear algebra routines
   SCALAPACK package :  Parallel linear algebra routines


Your calculation utilizes the atom-pairwise dispersion correction
with the Becke-Johnson damping scheme (D3BJ)
Cite in your paper:
S.Grimme, S.Ehrlich, L.Goerigk, J Comput Chem, (2011), 32, 1456–1465 
S.Grimme, J.Antony, S.Ehrlich and H.Krieg, J.Chem.Phys., 132, (2010), 154104 
   

----- Orbital basis set information -----
Your calculation utilizes the basis: def2-TZVPPD
   F. Weigend and R. Ahlrichs, Phys. Chem. Chem. Phys. 7, 3297 (2005).
   D. Rappoport and F. Furche, J. Chem. Phys. 133 134105 (2010).

----- AuxJK basis set information -----
Your calculation utilizes the auxiliary basis: def2/JK
   H-Ba, Hf-Rn: F. Weigend, J. Comput. Chem. 29, 167 (2008).

cite the ECPs for Ag [Def2-ECP] as follows:
Ce-Yb(ecp-28): M. Dolg, H. Stoll, H.Preuss, J. Chem. Phys., 1989, 90, 1730-1734.
Y-Cd(ecp-28), Hf-Hg(ecp-46): D. Andrae,U. Haeussermann, M. Dolg, H. Stoll, H. Preuss, Theor. Chim. Acta, 1990, 77, 123-141.
In-Sb(ecp-28), Tl-Bi(ecp-46): B. Metz, H. Stoll, M. Dolg, J. Chem. Phys., 2000, 113, 2563-2569.
Te-Xe(ecp-28), Po-Rn(ecp-46): K. A. Peterson, D. Figgen, E. Goll, H. Stoll, M. Dolg, J. Chem. Phys., 2003, 119, 11113-11123.
Rb(ecp-28), Cs(ecp-46): T. Leininger, A. Nicklass, W. Kuechle, H. Stoll, M. Dolg, A. Bergner, Chem. Phys. Lett., 1996, 255, 274-280.
Sr(ecp-28), Ba(ecp-46): M. Kaupp, P. V. Schleyer, H. Stoll and H. Preuss, J. Chem. Phys., 1991, 94, 1360-1366.
La(ecp-46): M. Dolg, H. Stoll, A. Savin, H. Preuss, Theor. Chim. Acta, 1989, 75, 173-194.
Lu(ecp-28): X. Cao, M. Dolg, J. Chem. Phys., 2001, 115, 7348-7355.

ECP parameters for Ag [Def2-ECP] have been obtained from:
TURBOMOLE (7.0.2)

================================================================================
                                        WARNINGS
                       Please study these warnings very carefully!
================================================================================


WARNING: Geometry Optimization
  ===> : Switching off AutoStart
         For restart on a previous wavefunction, please use MOREAD

INFO   : the flag for use of LIBINT has been found!

================================================================================
                                       INPUT FILE
================================================================================
NAME = Ag02N0.in
|  1> #
|  2> # Ag02N0 TPSSh-D3BJ/Def2-TZVPPD
|  3> #
|  4> ! tpssh d3bj def2-tzvppd def2/jk grid4 nofinalgrid opt xyzfile numfreq
|  5> 
|  6> *xyz 0 1
|  7> Ag       0.000000    0.000000    1.261821 
|  8> Ag       0.000000    0.000000   -1.261821 
|  9> *
| 10> 
| 11> %maxcore 5000
| 12> 
| 13> %pal
| 14> nprocs = 24
| 15> end
| 16> 
| 17> 
| 18>                          ****END OF INPUT****
================================================================================

                       *****************************
                       * Geometry Optimization Run *
                       *****************************

Geometry optimization settings:
Update method            Update   .... BFGS
Choice of coordinates    CoordSys .... Z-matrix Internals
Initial Hessian          InHess   .... Almoef's Model

Convergence Tolerances:
Energy Change            TolE     ....  5.0000e-06 Eh
Max. Gradient            TolMAXG  ....  3.0000e-04 Eh/bohr
RMS Gradient             TolRMSG  ....  1.0000e-04 Eh/bohr
Max. Displacement        TolMAXD  ....  4.0000e-03 bohr
RMS Displacement         TolRMSD  ....  2.0000e-03 bohr
Strict Convergence                ....  False
------------------------------------------------------------------------------
                        ORCA OPTIMIZATION COORDINATE SETUP
------------------------------------------------------------------------------

The optimization will be done in new redundant internal coordinates
Making redundant internal coordinates   ...  (new redundants) done
Evaluating the initial hessian          ...  (Almloef) done
Evaluating the coordinates              ...  done
Calculating the B-matrix                .... done
Calculating the G-matrix                .... done
Diagonalizing the G-matrix              .... done
The first mode is                       ....    0
The number of degrees of freedom        ....    1

    -----------------------------------------------------------------
                    Redundant Internal Coordinates


    -----------------------------------------------------------------
         Definition                    Initial Value    Approx d2E/dq
    -----------------------------------------------------------------
      1. B(Ag  1,Ag  0)                  2.5236         0.993882   
    -----------------------------------------------------------------

Number of atoms                         .... 2
Number of degrees of freedom            .... 1

         *************************************************************
         *                GEOMETRY OPTIMIZATION CYCLE   1            *
         *************************************************************
---------------------------------
CARTESIAN COORDINATES (ANGSTROEM)
---------------------------------
  Ag     0.000000    0.000000    1.261821
  Ag     0.000000    0.000000   -1.261821

----------------------------
CARTESIAN COORDINATES (A.U.)
----------------------------
  NO LB      ZA    FRAG     MASS         X           Y           Z
   0 Ag   19.0000*   0   107.870    0.000000    0.000000    2.384496
   1 Ag   19.0000*   0   107.870    0.000000    0.000000   -2.384496
* core charge reduced due to ECP

--------------------------------
INTERNAL COORDINATES (ANGSTROEM)
--------------------------------
 Ag     0   0   0     0.000000000000     0.00000000     0.00000000
 Ag     1   0   0     2.523642000000     0.00000000     0.00000000

---------------------------
INTERNAL COORDINATES (A.U.)
---------------------------
 Ag     0   0   0     0.000000000000     0.00000000     0.00000000
 Ag     1   0   0     4.768992240061     0.00000000     0.00000000

---------------------
BASIS SET INFORMATION
---------------------
There are 1 groups of distinct atoms

 Group   1 Type Ag  : 7s7p6d2f1g contracted to 6s4p3d2f1g pattern {211111/4111/411/11/1}

Atom   0Ag   basis set group =>   1
Atom   1Ag   basis set group =>   1
----------------------------------
AUXILIARY/JK BASIS SET INFORMATION
----------------------------------
There are 1 groups of distinct atoms

 Group   1 Type Ag  : 13s12p10d9f6g3h2i contracted to 11s10p9d8f6g3h2i pattern {31111111111/3111111111/211111111/21111111/111111/111/11}

Atom   0Ag   basis set group =>   1
Atom   1Ag   basis set group =>   1
-------------------------
ECP PARAMETER INFORMATION
-------------------------

 Group 1, Type Ag ECP Def2-ECP (replacing 28 core electrons, lmax=3)

Atom   0Ag   ECP group =>   1
Atom   1Ag   ECP group =>   1



           ************************************************************
           *        Program running with 24 parallel MPI-processes    *
           *              working on a common directory               *
           ************************************************************
------------------------------------------------------------------------------
                           ORCA GTO INTEGRAL CALCULATION
------------------------------------------------------------------------------

                         BASIS SET STATISTICS AND STARTUP INFO

 # of primitive gaussian shells          ...   46
 # of primitive gaussian functions       ...  162
 # of contracted shells                  ...   32
 # of contracted basis functions         ...  112
 Highest angular momentum                ...    4
 Maximum contraction depth               ...    4
 Integral package used                   ... LIBINT
 Integral threshhold            Thresh   ...  2.500e-11
 Primitive cut-off              TCut     ...  2.500e-12


------------------------------ INTEGRAL EVALUATION ----------------------------


 * One electron integrals 

   ECP integrals                         ... done
 Pre-screening matrix                    ... done
 Shell pair data                         ... done (   0.000 sec)



           ************************************************************
           *        Program running with 24 parallel MPI-processes    *
           *              working on a common directory               *
           ************************************************************
-------------------------------------------------------------------------------
                                 ORCA SCF
-------------------------------------------------------------------------------

------------
SCF SETTINGS
------------
Hamiltonian:
 Density Functional     Method          .... DFT(GTOs)
 Exchange Functional    Exchange        .... TPSS
 Correlation Functional Correlation     .... TPSS
 LDA part of GGA corr.  LDAOpt          .... PW91-LDA
 Gradients option       PostSCFGGA      .... off
 Hybrid DFT is turned on
   Fraction HF Exchange ScalHFX         ....  0.100000
   Scaling of DF-GGA-X  ScalDFX         ....  0.900000
   Scaling of DF-GGA-C  ScalDFC         ....  1.000000
   Scaling of DF-LDA-C  ScalLDAC        ....  1.000000
   Perturbative correction              ....  0.000000
   Density functional embedding theory  .... OFF
   NL short-range parameter             ....  5.200000


General Settings:
 Integral files         IntName         .... Ag02N0
 Hartree-Fock type      HFTyp           .... RHF
 Total Charge           Charge          ....    0
 Multiplicity           Mult            ....    1
 Number of Electrons    NEL             ....   38
 Basis Dimension        Dim             ....  112
 Nuclear Repulsion      ENuc            ....     75.6973343273 Eh

Convergence Acceleration:
 DIIS                   CNVDIIS         .... on
   Start iteration      DIISMaxIt       ....    12
   Startup error        DIISStart       ....  0.200000
   # of expansion vecs  DIISMaxEq       ....     5
   Bias factor          DIISBfac        ....   1.050
   Max. coefficient     DIISMaxC        ....  10.000
 Newton-Raphson         CNVNR           .... off
 SOSCF                  CNVSOSCF        .... off
 Level Shifting         CNVShift        .... on
   Level shift para.    LevelShift      ....    0.2500
   Turn off err/grad.   ShiftErr        ....    0.0010
 Zerner damping         CNVZerner       .... off
 Static damping         CNVDamp         .... on
   Fraction old density DampFac         ....    0.7000
   Max. Damping (<1)    DampMax         ....    0.9800
   Min. Damping (>=0)   DampMin         ....    0.0000
   Turn off err/grad.   DampErr         ....    0.1000
 Fernandez-Rico         CNVRico         .... off

SCF Procedure:
 Maximum # iterations   MaxIter         ....   125
 SCF integral mode      SCFMode         .... Direct
   Integral package                     .... LIBINT
 Reset frequency        DirectResetFreq ....    20
 Integral Threshold     Thresh          ....  2.500e-11 Eh
 Primitive CutOff       TCut            ....  2.500e-12 Eh

Convergence Tolerance:
 Convergence Check Mode ConvCheckMode   .... Total+1el-Energy
 Convergence forced     ConvForced      .... 0
 Energy Change          TolE            ....  1.000e-08 Eh
 1-El. energy change                    ....  1.000e-05 Eh
 DIIS Error             TolErr          ....  5.000e-07


Diagonalization of the overlap matrix:
Smallest eigenvalue                        ... 4.183e-03
Time for diagonalization                   ...    0.020 sec
Threshold for overlap eigenvalues          ... 1.000e-08
Number of eigenvalues below threshold      ... 0
Time for construction of square roots      ...    0.001 sec
Total time needed                          ...    0.022 sec

-------------------
DFT GRID GENERATION
-------------------

General Integration Accuracy     IntAcc      ...  4.670
Radial Grid Type                 RadialGrid  ... Gauss-Chebyshev
Angular Grid (max. acc.)         AngularGrid ... Lebedev-302
Angular grid pruning method      GridPruning ... 3 (G Style)
Weight generation scheme         WeightScheme... Becke
Basis function cutoff            BFCut       ...    1.0000e-11
Integration weight cutoff        WCut        ...    1.0000e-14
Grids for H and He will be reduced by one unit

# of grid points (after initial pruning)     ...  21316 (   0.0 sec)
# of grid points (after weights+screening)   ...  21280 (   0.0 sec)
nearest neighbour list constructed           ...    0.0 sec
Grid point re-assignment to atoms done       ...    0.0 sec
Grid point division into batches done        ...    0.2 sec
Reduced shell lists constructed in    0.2 sec

Total number of grid points                  ...    21280
Total number of batches                      ...      334
Average number of points per batch           ...       63
Average number of grid points per atom       ...    10640
Average number of shells per batch           ...     2.60 ( 8.12%)
Average number of basis functions per batch  ...     5.67 ( 5.06%)
Average number of large shells per batch     ...     1.93 (74.36%)
Average number of large basis fcns per batch ...     4.33 (76.47%)
Maximum spatial batch extension              ...  31.14, 31.14, 19.99 au
Average spatial batch extension              ...   0.98,  0.98,  0.74 au

Time for grid setup =    0.223 sec

------------------------------
INITIAL GUESS: MODEL POTENTIAL
------------------------------
Loading Hartree-Fock densities                     ... done
  calling /sw/apps/orca/orca_4_2_0_linux_x86-64_openmpi314/orca Ag02N0_atom47.inp > Ag02N0_atom47.out in order to generate an atomic fitting density for atom 0 (Ag with ECP) on-the-fly... 
    atom 0 (Ag), assumed electronic state with S=2: 1s2 2s2 2p6 3s2 3p6 4s2 3d10 4p6 5s2 4d9           ... done
Calculating cut-offs                               ... done
Setting up the integral package                    ... done
Initializing the effective Hamiltonian             ... done
Starting the Coulomb interaction                   ... done (   0.0 sec)
Reading the grid                                   ... done
Mapping shells                                     ... done
Starting the XC term evaluation                    ... done (   0.0 sec)
  promolecular density results
     # of electrons  =     94.001747121
     EX              =   -286.846359635
     EC              =     -4.972493760
     EX+EC           =   -291.818853395
Transforming the Hamiltonian                       ... done (   0.0 sec)
Diagonalizing the Hamiltonian                      ... done (   0.0 sec)
Back transforming the eigenvectors                 ... done (   0.0 sec)
Now organizing SCF variables                       ... done
                      ------------------
                      INITIAL GUESS DONE (   1.9 sec)
                      ------------------
--------------
SCF ITERATIONS
--------------
ITER       Energy         Delta-E        Max-DP      RMS-DP      [F,P]     Damp
               ***  Starting incremental Fock matrix formation  ***
  0   -293.6636055765   0.000000000000 0.11959249  0.00374012  0.5091633 0.7000
  1   -293.7722063753  -0.108600798768 0.05541840  0.00224508  0.3281926 0.7000
  2   -293.8061103254  -0.033903950129 0.02710311  0.00090011  0.2155857 0.7000
                               ***Turning on DIIS***
  3   -293.8289603662  -0.022850040838 0.01248918  0.00036351  0.1480100 0.7000
  4   -293.8460542283  -0.017093862117 0.00714654  0.00026619  0.1041349 0.7000
  5   -293.8580871200  -0.012032891659 0.01944554  0.00072131  0.0730869 0.0000
  6   -293.8860815637  -0.027994443667 0.00519718  0.00014494  0.0008101 0.0000
  7   -293.8860843867  -0.000002823072 0.00071365  0.00002357  0.0012277 0.0000
  8   -293.8860889157  -0.000004528950 0.00047002  0.00001120  0.0001319 0.0000
  9   -293.8860890156  -0.000000099913 0.00004456  0.00000161  0.0000548 0.0000
 10   -293.8860890243  -0.000000008714 0.00001120  0.00000057  0.0000278 0.0000
 11   -293.8860890267  -0.000000002367 0.00000427  0.00000010  0.0000017 0.0000
                            ***DIIS convergence achieved***

               *****************************************************
               *                     SUCCESS                       *
               *           SCF CONVERGED AFTER  12 CYCLES          *
               *****************************************************


----------------
TOTAL SCF ENERGY
----------------

Total Energy       :         -293.88608903 Eh           -7997.04704 eV

Components:
Nuclear Repulsion  :           75.69733433 Eh            2059.82919 eV
Electronic Energy  :         -369.58342335 Eh          -10056.87623 eV
One Electron Energy:         -673.84663438 Eh          -18336.29912 eV
Two Electron Energy:          304.26321103 Eh            8279.42289 eV

Virial components:
Potential Energy   :         -406.33461949 Eh          -11056.92712 eV
Kinetic Energy     :          112.44853046 Eh            3059.88008 eV
Virial Ratio       :            3.61351649


DFT components:
N(Alpha)           :       18.999989709476 electrons
N(Beta)            :       18.999989709476 electrons
N(Total)           :       37.999979418952 electrons
E(X)               :      -23.864290738945 Eh       
E(C)               :       -1.648390185101 Eh       
E(XC)              :      -25.512680924046 Eh       
DFET-embed. en.    :        0.000000000000 Eh       

---------------
SCF CONVERGENCE
---------------

  Last Energy change         ...    6.9349e-12  Tolerance :   1.0000e-08
  Last MAX-Density change    ...    1.0509e-06  Tolerance :   1.0000e-07
  Last RMS-Density change    ...    2.8655e-08  Tolerance :   5.0000e-09
  Last DIIS Error            ...    5.0626e-07  Tolerance :   5.0000e-07

             **** THE GBW FILE WAS UPDATED (Ag02N0.gbw) ****
             **** DENSITY FILE WAS UPDATED (Ag02N0.scfp) ****
             **** ENERGY FILE WAS UPDATED (Ag02N0.en.tmp) ****
             **** THE GBW FILE WAS UPDATED (Ag02N0.gbw) ****
             **** DENSITY FILE WAS UPDATED (Ag02N0.scfp) ****
----------------
ORBITAL ENERGIES
----------------

  NO   OCC          E(Eh)            E(eV) 
   0   2.0000      -3.657021       -99.5126 
   1   2.0000      -3.656368       -99.4948 
   2   2.0000      -2.267977       -61.7148 
   3   2.0000      -2.261069       -61.5268 
   4   2.0000      -2.260862       -61.5212 
   5   2.0000      -2.260862       -61.5212 
   6   2.0000      -2.260220       -61.5037 
   7   2.0000      -2.260220       -61.5037 
   8   2.0000      -0.328289        -8.9332 
   9   2.0000      -0.309556        -8.4235 
  10   2.0000      -0.309556        -8.4235 
  11   2.0000      -0.288266        -7.8441 
  12   2.0000      -0.288261        -7.8440 
  13   2.0000      -0.280242        -7.6258 
  14   2.0000      -0.280237        -7.6256 
  15   2.0000      -0.269016        -7.3203 
  16   2.0000      -0.269016        -7.3203 
  17   2.0000      -0.262480        -7.1424 
  18   2.0000      -0.194675        -5.2974 
  19   0.0000      -0.094014        -2.5582 
  20   0.0000      -0.022326        -0.6075 
  21   0.0000      -0.022326        -0.6075 
  22   0.0000      -0.002946        -0.0802 
  23   0.0000       0.040894         1.1128 
  24   0.0000       0.040894         1.1128 
  25   0.0000       0.088284         2.4023 
  26   0.0000       0.102071         2.7775 
  27   0.0000       0.148802         4.0491 
  28   0.0000       0.178418         4.8550 
  29   0.0000       0.181179         4.9301 
  30   0.0000       0.181179         4.9301 
  31   0.0000       0.238334         6.4854 
  32   0.0000       0.238334         6.4854 
  33   0.0000       0.374298        10.1852 
  34   0.0000       0.378221        10.2919 
  35   0.0000       0.378223        10.2920 
  36   0.0000       0.417024        11.3478 
  37   0.0000       0.417024        11.3478 
  38   0.0000       0.471286        12.8244 
  39   0.0000       0.471287        12.8244 
  40   0.0000       0.578619        15.7450 
  41   0.0000       0.589119        16.0307 
  42   0.0000       0.589119        16.0307 
  43   0.0000       0.715729        19.4760 
  44   0.0000       1.385940        37.7134 
  45   0.0000       1.525789        41.5188 
  46   0.0000       1.525789        41.5188 
  47   0.0000       1.574439        42.8427 
  48   0.0000       1.574446        42.8429 
  49   0.0000       1.590724        43.2858 
  50   0.0000       1.590724        43.2858 
  51   0.0000       1.593069        43.3496 
  52   0.0000       1.593069        43.3496 
  53   0.0000       1.606196        43.7068 
  54   0.0000       1.606203        43.7070 
  55   0.0000       1.608682        43.7745 
  56   0.0000       1.608682        43.7745 
  57   0.0000       1.614814        43.9413 
  58   0.0000       1.614814        43.9413 
  59   0.0000       1.631347        44.3912 
  60   0.0000       1.711925        46.5839 
  61   0.0000       1.730086        47.0780 
  62   0.0000       1.730086        47.0780 
  63   0.0000       1.754492        47.7421 
  64   0.0000       1.927432        52.4481 
  65   0.0000       2.025649        55.1207 
  66   0.0000       2.025666        55.1212 
  67   0.0000       2.043916        55.6178 
  68   0.0000       2.043916        55.6178 
  69   0.0000       2.064254        56.1712 
  70   0.0000       2.064268        56.1716 
  71   0.0000       2.123894        57.7941 
  72   0.0000       2.131390        57.9981 
  73   0.0000       2.131390        57.9981 
  74   0.0000       2.300149        62.5902 
  75   0.0000       2.347665        63.8832 
  76   0.0000       4.759356       129.5087 
  77   0.0000       4.759356       129.5087 
  78   0.0000       4.769160       129.7754 
  79   0.0000       4.800769       130.6356 
  80   0.0000       4.801118       130.6451 
  81   0.0000       4.813469       130.9811 
  82   0.0000       4.813469       130.9811 
  83   0.0000       4.815443       131.0349 
  84   0.0000       4.815443       131.0349 
  85   0.0000       4.828252       131.3834 
  86   0.0000       4.828604       131.3930 
  87   0.0000       4.915850       133.7671 
  88   0.0000       4.915850       133.7671 
  89   0.0000       5.118817       139.2901 
  90   0.0000       5.573022       151.6496 
  91   0.0000       5.573022       151.6496 
  92   0.0000       5.575043       151.7046 
  93   0.0000       5.575313       151.7120 
  94   0.0000       5.575317       151.7121 
  95   0.0000       5.575889       151.7277 
  96   0.0000       5.575898       151.7279 
  97   0.0000       5.577588       151.7739 
  98   0.0000       5.577588       151.7739 
  99   0.0000       5.577621       151.7748 
 100   0.0000       5.577621       151.7748 
 101   0.0000       5.578068       151.7869 
 102   0.0000       5.578068       151.7869 
 103   0.0000       5.579631       151.8295 
 104   0.0000       5.579632       151.8295 
 105   0.0000       5.580393       151.8502 
 106   0.0000       5.580394       151.8502 
 107   0.0000       5.593593       152.2094 
 108   0.0000      33.290933       905.8923 
 109   0.0000      33.537301       912.5964 
 110   0.0000     110.746292      3013.5598 
 111   0.0000     110.825523      3015.7158 

                    ********************************
                    * MULLIKEN POPULATION ANALYSIS *
                    ********************************

-----------------------
MULLIKEN ATOMIC CHARGES
-----------------------
   0 Ag:   -0.000001
   1 Ag:    0.000001
Sum of atomic charges:    0.0000000

--------------------------------
MULLIKEN REDUCED ORBITAL CHARGES
--------------------------------
  0 Ags       :     2.997004  s :     2.997004
      pz      :     2.030652  p :     6.048907
      px      :     2.009128
      py      :     2.009128
      dz2     :     1.971602  d :     9.952429
      dxz     :     1.990475
      dyz     :     1.990475
      dx2y2   :     1.999938
      dxy     :     1.999938
      f0      :     0.000734  f :     0.001640
      f+1     :     0.000392
      f-1     :     0.000392
      f+2     :     0.000061
      f-2     :     0.000061
      f+3     :     0.000000
      f-3     :     0.000000
      g0      :     0.000009  g :     0.000021
      g+1     :     0.000005
      g-1     :     0.000005
      g+2     :     0.000001
      g-2     :     0.000001
      g+3     :     0.000000
      g-3     :     0.000000
      g+4     :     0.000000
      g-4     :     0.000000
  1 Ags       :     2.997002  s :     2.997002
      pz      :     2.030651  p :     6.048907
      px      :     2.009128
      py      :     2.009128
      dz2     :     1.971602  d :     9.952429
      dxz     :     1.990475
      dyz     :     1.990475
      dx2y2   :     1.999938
      dxy     :     1.999938
      f0      :     0.000734  f :     0.001640
      f+1     :     0.000392
      f-1     :     0.000392
      f+2     :     0.000061
      f-2     :     0.000061
      f+3     :     0.000000
      f-3     :     0.000000
      g0      :     0.000009  g :     0.000021
      g+1     :     0.000005
      g-1     :     0.000005
      g+2     :     0.000001
      g-2     :     0.000001
      g+3     :     0.000000
      g-3     :     0.000000
      g+4     :     0.000000
      g-4     :     0.000000


                     *******************************
                     * LOEWDIN POPULATION ANALYSIS *
                     *******************************

----------------------
LOEWDIN ATOMIC CHARGES
----------------------
   0 Ag:   -0.000000
   1 Ag:    0.000000

-------------------------------
LOEWDIN REDUCED ORBITAL CHARGES
-------------------------------
  0 Ags       :     2.916583  s :     2.916583
      pz      :     2.089271  p :     6.111521
      px      :     2.011125
      py      :     2.011125
      dz2     :     1.993154  d :     9.969643
      dxz     :     1.988316
      dyz     :     1.988316
      dx2y2   :     1.999929
      dxy     :     1.999929
      f0      :     0.000980  f :     0.002226
      f+1     :     0.000553
      f-1     :     0.000553
      f+2     :     0.000070
      f-2     :     0.000070
      f+3     :     0.000000
      f-3     :     0.000000
      g0      :     0.000012  g :     0.000027
      g+1     :     0.000007
      g-1     :     0.000007
      g+2     :     0.000001
      g-2     :     0.000001
      g+3     :     0.000000
      g-3     :     0.000000
      g+4     :     0.000000
      g-4     :     0.000000
  1 Ags       :     2.916583  s :     2.916583
      pz      :     2.089271  p :     6.111521
      px      :     2.011125
      py      :     2.011125
      dz2     :     1.993154  d :     9.969643
      dxz     :     1.988316
      dyz     :     1.988316
      dx2y2   :     1.999929
      dxy     :     1.999929
      f0      :     0.000980  f :     0.002226
      f+1     :     0.000553
      f-1     :     0.000553
      f+2     :     0.000070
      f-2     :     0.000070
      f+3     :     0.000000
      f-3     :     0.000000
      g0      :     0.000012  g :     0.000027
      g+1     :     0.000007
      g-1     :     0.000007
      g+2     :     0.000001
      g-2     :     0.000001
      g+3     :     0.000000
      g-3     :     0.000000
      g+4     :     0.000000
      g-4     :     0.000000


                      *****************************
                      * MAYER POPULATION ANALYSIS *
                      *****************************

  NA   - Mulliken gross atomic population
  ZA   - Total nuclear charge
  QA   - Mulliken gross atomic charge
  VA   - Mayer's total valence
  BVA  - Mayer's bonded valence
  FA   - Mayer's free valence

  ATOM       NA         ZA         QA         VA         BVA        FA
  0 Ag    19.0000    19.0000    -0.0000     1.0621     1.0621     0.0000
  1 Ag    19.0000    19.0000     0.0000     1.0621     1.0621     0.0000

  Mayer bond orders larger than 0.100000
B(  0-Ag,  1-Ag) :   1.0621 

-------
TIMINGS
-------

Total SCF time: 0 days 0 hours 0 min 4 sec 

Total time                  ....       4.389 sec
Sum of individual times     ....       4.186 sec  ( 95.4%)

Fock matrix formation       ....       2.290 sec  ( 52.2%)
  XC integration            ....       0.221 sec  (  9.6% of F)
    Basis function eval.    ....       0.021 sec  (  9.5% of XC)
    Density eval.           ....       0.029 sec  ( 13.1% of XC)
    XC-Functional eval.     ....       0.020 sec  (  9.0% of XC)
    XC-Potential eval.      ....       0.050 sec  ( 22.4% of XC)
Diagonalization             ....       0.021 sec  (  0.5%)
Density matrix formation    ....       0.004 sec  (  0.1%)
Population analysis         ....       0.003 sec  (  0.1%)
Initial guess               ....       1.635 sec  ( 37.3%)
Orbital Transformation      ....       0.000 sec  (  0.0%)
Orbital Orthonormalization  ....       0.000 sec  (  0.0%)
DIIS solution               ....       0.011 sec  (  0.2%)
Grid generation             ....       0.223 sec  (  5.1%)


-------------------------------------------------------------------------------
                          DFT DISPERSION CORRECTION                            
                                                                               
                              DFTD3 V3.1  Rev 1                                
                          USING Becke-Johnson damping                          
-------------------------------------------------------------------------------
The TPSSH functional is recognized
Active option DFTDOPT                   ...         4   

molecular C6(AA) [au] = 1086.308375 


            DFT-D V3
 parameters
 s6 scaling factor         :     1.0000 
 a1 scaling factor         :     0.4529 
 s8 scaling factor         :     2.2382 
 a2 scaling factor         :     4.6550 
 ad hoc parameters k1-k3   :    16.0000     1.3333    -4.0000 

 Edisp/kcal,au: -1.166430951921  -0.001858825844 
 E6   /kcal   :  -0.329630969 
 E8   /kcal   :  -0.836799983 
 % E8         :  71.740207342 

-------------------------   ----------------
Dispersion correction           -0.001858826
-------------------------   ----------------


-------------------------   --------------------
FINAL SINGLE POINT ENERGY      -293.887947852515
-------------------------   --------------------



           ************************************************************
           *        Program running with 24 parallel MPI-processes    *
           *              working on a common directory               *
           ************************************************************
------------------------------------------------------------------------------
                         ORCA SCF GRADIENT CALCULATION
------------------------------------------------------------------------------

Gradient of the Kohn-Sham DFT energy:
Kohn-Sham wavefunction type      ... RKS
Hartree-Fock exchange scaling    ...    0.100
Number of operators              ...    1
Number of atoms                  ...    2
Basis set dimensions             ...  112
Integral neglect threshold       ... 2.5e-11
Integral primitive cutoff        ... 2.5e-12

Nuclear repulsion gradient       ... done
One Electron Gradient            
  ECP gradient                   ... done
Pre-screening matrix             ... done
Starting the two electron gradient:
Two electron gradient done
Exchange-correlation gradient    ... done
Dispersion correction            ... done

------------------
CARTESIAN GRADIENT
------------------

   1   Ag  :    0.000000002   -0.000000002   -0.004545734
   2   Ag  :   -0.000000001   -0.000000000    0.004545734

Difference to translation invariance:
           :    0.0000000010   -0.0000000029   -0.0000000003

Norm of the cartesian gradient     ...    0.0064286389
RMS gradient                       ...    0.0026244808
MAX gradient                       ...    0.0045457343

-------
TIMINGS
-------

Total SCF gradient time            ...        1.204 sec

One electron gradient       ....       0.282 sec  ( 23.4%)
Prescreening matrices       ....       0.003 sec  (  0.3%)
Two electron gradient       ....       0.724 sec  ( 60.2%)
XC gradient                 ....       0.014 sec  (  1.2%)
------------------------------------------------------------------------------
                         ORCA GEOMETRY RELAXATION STEP
------------------------------------------------------------------------------

Reading the OPT-File                    .... done
Getting information on internals        .... done
Copying old internal coords+grads       .... done
Making the new internal coordinates     .... (new redundants).... done
Validating the new internal coordinates .... (new redundants).... done
Calculating the B-matrix                .... done
Calculating the G,G- and P matrices     .... done
Transforming gradient to internals      .... done
Projecting the internal gradient        .... done
Number of atoms                         ....   2
Number of internal coordinates          ....   1
Current Energy                          ....  -293.887947853 Eh
Current gradient norm                   ....     0.006428639 Eh/bohr
Maximum allowed component of the step   ....  0.300
Current trust radius                    ....  0.300
Evaluating the initial hessian          ....  (Almloef) done
Projecting the Hessian                  .... done
Forming the augmented Hessian           .... done
Diagonalizing the augmented Hessian     .... done
Last element of RFO vector              ....  0.999989541
Lowest eigenvalues of augmented Hessian:
 -0.000020790
Length of the computed step             ....  0.004573622
The final length of the internal step   ....  0.004573622
Converting the step to cartesian space:
 Initial RMS(Int)=    0.0045736220
Transforming coordinates:
 Iter   0:  RMS(Cart)=    0.0013202909 RMS(Int)=    0.0045736220
 Iter   1:  RMS(Cart)=    0.0000000000 RMS(Int)=    0.0000000000
done
Storing new coordinates                 .... done

                                .--------------------.
          ----------------------|Geometry convergence|-------------------------
          Item                value                   Tolerance       Converged
          ---------------------------------------------------------------------
          RMS gradient        0.0045457341            0.0001000000      NO
          MAX gradient        0.0045457341            0.0003000000      NO
          RMS step            0.0045736220            0.0020000000      NO
          MAX step            0.0045736220            0.0040000000      NO
          ........................................................
          Max(Bonds)      0.0024      Max(Angles)    0.00
          Max(Dihed)        0.00      Max(Improp)    0.00
          ---------------------------------------------------------------------

The optimization has not yet converged - more geometry cycles are needed


    ---------------------------------------------------------------------------
                         Redundant Internal Coordinates
                            (Angstroem and degrees)

        Definition                    Value    dE/dq     Step     New-Value
    ----------------------------------------------------------------------------
     1. B(Ag  1,Ag  0)                2.5236 -0.004546  0.0024    2.5261   
    ----------------------------------------------------------------------------

         *************************************************************
         *                GEOMETRY OPTIMIZATION CYCLE   2            *
         *************************************************************
---------------------------------
CARTESIAN COORDINATES (ANGSTROEM)
---------------------------------
  Ag     0.000000    0.000000    1.263031
  Ag     0.000000    0.000000   -1.263031

----------------------------
CARTESIAN COORDINATES (A.U.)
----------------------------
  NO LB      ZA    FRAG     MASS         X           Y           Z
   0 Ag   19.0000*   0   107.870    0.000000    0.000000    2.386783
   1 Ag   19.0000*   0   107.870    0.000000    0.000000   -2.386783
* core charge reduced due to ECP

--------------------------------
INTERNAL COORDINATES (ANGSTROEM)
--------------------------------
 Ag     0   0   0     0.000000000000     0.00000000     0.00000000
 Ag     1   0   0     2.526062256524     0.00000000     0.00000000

---------------------------
INTERNAL COORDINATES (A.U.)
---------------------------
 Ag     0   0   0     0.000000000000     0.00000000     0.00000000
 Ag     1   0   0     4.773565862065     0.00000000     0.00000000



           ************************************************************
           *        Program running with 24 parallel MPI-processes    *
           *              working on a common directory               *
           ************************************************************


           ************************************************************
           *        Program running with 24 parallel MPI-processes    *
           *              working on a common directory               *
           ************************************************************

Diagonalization of the overlap matrix:
Smallest eigenvalue                        ... 4.203e-03
Time for diagonalization                   ...    0.004 sec
Threshold for overlap eigenvalues          ... 1.000e-08
Number of eigenvalues below threshold      ... 0
Time for construction of square roots      ...    0.002 sec
Total time needed                          ...    0.006 sec

-------------------
DFT GRID GENERATION
-------------------

General Integration Accuracy     IntAcc      ...  4.670
Radial Grid Type                 RadialGrid  ... Gauss-Chebyshev
Angular Grid (max. acc.)         AngularGrid ... Lebedev-302
Angular grid pruning method      GridPruning ... 3 (G Style)
Weight generation scheme         WeightScheme... Becke
Basis function cutoff            BFCut       ...    1.0000e-11
Integration weight cutoff        WCut        ...    1.0000e-14
Grids for H and He will be reduced by one unit

# of grid points (after initial pruning)     ...  21316 (   0.0 sec)
# of grid points (after weights+screening)   ...  21280 (   0.0 sec)
nearest neighbour list constructed           ...    0.0 sec
Grid point re-assignment to atoms done       ...    0.0 sec
Grid point division into batches done        ...    0.2 sec
Reduced shell lists constructed in    0.2 sec

Total number of grid points                  ...    21280
Total number of batches                      ...      334
Average number of points per batch           ...       63
Average number of grid points per atom       ...    10640
Average number of shells per batch           ...     2.53 ( 7.92%)
Average number of basis functions per batch  ...     5.47 ( 4.88%)
Average number of large shells per batch     ...     1.93 (76.32%)
Average number of large basis fcns per batch ...     4.33 (79.27%)
Maximum spatial batch extension              ...  31.14, 31.14, 19.99 au
Average spatial batch extension              ...   0.98,  0.98,  0.74 au

Time for grid setup =    0.222 sec

--------------
SCF ITERATIONS
--------------
ITER       Energy         Delta-E        Max-DP      RMS-DP      [F,P]     Damp
               ***  Starting incremental Fock matrix formation  ***
  0   -293.8861093638   0.000000000000 0.00005942  0.00000193  0.0019900 0.7000
  1   -293.8861094444  -0.000000080596 0.00006883  0.00000200  0.0013956 0.7000
                               ***Turning on DIIS***
  2   -293.8861094991  -0.000000054784 0.00022938  0.00000657  0.0009774 0.0000
  3   -293.8861096279  -0.000000128725 0.00002730  0.00000108  0.0000190 0.0000
  4   -293.8861096271   0.000000000769 0.00001095  0.00000054  0.0000262 0.0000
  5   -293.8861096297  -0.000000002551 0.00000361  0.00000010  0.0000015 0.0000
  6   -293.8861096296   0.000000000064 0.00000105  0.00000004  0.0000012 0.0000
                 **** Energy Check signals convergence ****

               *****************************************************
               *                     SUCCESS                       *
               *           SCF CONVERGED AFTER   7 CYCLES          *
               *****************************************************

Total Energy       :         -293.88610963 Eh           -7997.04761 eV
  Last Energy change         ...   -2.5807e-11  Tolerance :   1.0000e-08
  Last MAX-Density change    ...    4.4930e-07  Tolerance :   1.0000e-07
             **** THE GBW FILE WAS UPDATED (Ag02N0.gbw) ****
             **** DENSITY FILE WAS UPDATED (Ag02N0.scfp) ****
             **** ENERGY FILE WAS UPDATED (Ag02N0.en.tmp) ****
             **** THE GBW FILE WAS UPDATED (Ag02N0.gbw) ****
             **** DENSITY FILE WAS UPDATED (Ag02N0.scfp) ****
Total SCF time: 0 days 0 hours 0 min 1 sec 


-------------------------------------------------------------------------------
                          DFT DISPERSION CORRECTION                            
                                                                               
                              DFTD3 V3.1  Rev 1                                
                          USING Becke-Johnson damping                          
-------------------------------------------------------------------------------
-------------------------   ----------------
Dispersion correction           -0.001858776
-------------------------   ----------------


-------------------------   --------------------
FINAL SINGLE POINT ENERGY      -293.887968405949
-------------------------   --------------------



           ************************************************************
           *        Program running with 24 parallel MPI-processes    *
           *              working on a common directory               *
           ************************************************************
------------------------------------------------------------------------------
                         ORCA SCF GRADIENT CALCULATION
------------------------------------------------------------------------------

Gradient of the Kohn-Sham DFT energy:
Kohn-Sham wavefunction type      ... RKS
Hartree-Fock exchange scaling    ...    0.100
Number of operators              ...    1
Number of atoms                  ...    2
Basis set dimensions             ...  112
Integral neglect threshold       ... 2.5e-11
Integral primitive cutoff        ... 2.5e-12

Nuclear repulsion gradient       ... done
One Electron Gradient            
  ECP gradient                   ... done
Pre-screening matrix             ... done
Starting the two electron gradient:
Two electron gradient done
Exchange-correlation gradient    ... done
Dispersion correction            ... done

------------------
CARTESIAN GRADIENT
------------------

   1   Ag  :   -0.000000006    0.000000005   -0.004175371
   2   Ag  :    0.000000003   -0.000000004    0.004175372

Difference to translation invariance:
           :   -0.0000000029    0.0000000007    0.0000000010

Norm of the cartesian gradient     ...    0.0059048667
RMS gradient                       ...    0.0024106517
MAX gradient                       ...    0.0041753718

-------
TIMINGS
-------

Total SCF gradient time            ...        1.235 sec

One electron gradient       ....       0.289 sec  ( 23.4%)
Prescreening matrices       ....       0.003 sec  (  0.3%)
Two electron gradient       ....       0.725 sec  ( 58.7%)
XC gradient                 ....       0.014 sec  (  1.1%)
------------------------------------------------------------------------------
                         ORCA GEOMETRY RELAXATION STEP
------------------------------------------------------------------------------

Reading the OPT-File                    .... done
Getting information on internals        .... done
Copying old internal coords+grads       .... done
Making the new internal coordinates     .... (new redundants).... done
Validating the new internal coordinates .... (new redundants).... done
Calculating the B-matrix                .... done
Calculating the G,G- and P matrices     .... done
Transforming gradient to internals      .... done
Projecting the internal gradient        .... done
Number of atoms                         ....   2
Number of internal coordinates          ....   1
Current Energy                          ....  -293.887968406 Eh
Current gradient norm                   ....     0.005904867 Eh/bohr
Maximum allowed component of the step   ....  0.300
Current trust radius                    ....  0.300
Updating the Hessian (BFGS)             .... done
Forming the augmented Hessian           .... done
Diagonalizing the augmented Hessian     .... done
Last element of RFO vector              ....  0.998680329
Lowest eigenvalues of augmented Hessian:
 -0.000214720
Length of the computed step             ....  0.051425431
The final length of the internal step   ....  0.051425431
Converting the step to cartesian space:
 Initial RMS(Int)=    0.0514254311
Transforming coordinates:
 Iter   0:  RMS(Cart)=    0.0148452432 RMS(Int)=    0.0514254311
 Iter   1:  RMS(Cart)=    0.0000000000 RMS(Int)=    0.0000000000
done
Storing new coordinates                 .... done

                                .--------------------.
          ----------------------|Geometry convergence|-------------------------
          Item                value                   Tolerance       Converged
          ---------------------------------------------------------------------
          Energy change      -0.0000205534            0.0000050000      NO
          RMS gradient        0.0041753713            0.0001000000      NO
          MAX gradient        0.0041753713            0.0003000000      NO
          RMS step            0.0514254311            0.0020000000      NO
          MAX step            0.0514254311            0.0040000000      NO
          ........................................................
          Max(Bonds)      0.0272      Max(Angles)    0.00
          Max(Dihed)        0.00      Max(Improp)    0.00
          ---------------------------------------------------------------------

The optimization has not yet converged - more geometry cycles are needed


    ---------------------------------------------------------------------------
                         Redundant Internal Coordinates
                            (Angstroem and degrees)

        Definition                    Value    dE/dq     Step     New-Value
    ----------------------------------------------------------------------------
     1. B(Ag  1,Ag  0)                2.5261 -0.004175  0.0272    2.5533   
    ----------------------------------------------------------------------------

         *************************************************************
         *                GEOMETRY OPTIMIZATION CYCLE   3            *
         *************************************************************
---------------------------------
CARTESIAN COORDINATES (ANGSTROEM)
---------------------------------
  Ag     0.000000    0.000000    1.276638
  Ag     0.000000    0.000000   -1.276638

----------------------------
CARTESIAN COORDINATES (A.U.)
----------------------------
  NO LB      ZA    FRAG     MASS         X           Y           Z
   0 Ag   19.0000*   0   107.870    0.000000    0.000000    2.412496
   1 Ag   19.0000*   0   107.870    0.000000    0.000000   -2.412496
* core charge reduced due to ECP

--------------------------------
INTERNAL COORDINATES (ANGSTROEM)
--------------------------------
 Ag     0   0   0     0.000000000000     0.00000000     0.00000000
 Ag     1   0   0     2.553275422570     0.00000000     0.00000000

---------------------------
INTERNAL COORDINATES (A.U.)
---------------------------
 Ag     0   0   0     0.000000000000     0.00000000     0.00000000
 Ag     1   0   0     4.824991293130     0.00000000     0.00000000



           ************************************************************
           *        Program running with 24 parallel MPI-processes    *
           *              working on a common directory               *
           ************************************************************


           ************************************************************
           *        Program running with 24 parallel MPI-processes    *
           *              working on a common directory               *
           ************************************************************

Diagonalization of the overlap matrix:
Smallest eigenvalue                        ... 4.428e-03
Time for diagonalization                   ...    0.004 sec
Threshold for overlap eigenvalues          ... 1.000e-08
Number of eigenvalues below threshold      ... 0
Time for construction of square roots      ...    0.002 sec
Total time needed                          ...    0.006 sec

-------------------
DFT GRID GENERATION
-------------------

General Integration Accuracy     IntAcc      ...  4.670
Radial Grid Type                 RadialGrid  ... Gauss-Chebyshev
Angular Grid (max. acc.)         AngularGrid ... Lebedev-302
Angular grid pruning method      GridPruning ... 3 (G Style)
Weight generation scheme         WeightScheme... Becke
Basis function cutoff            BFCut       ...    1.0000e-11
Integration weight cutoff        WCut        ...    1.0000e-14
Grids for H and He will be reduced by one unit

# of grid points (after initial pruning)     ...  21316 (   0.0 sec)
# of grid points (after weights+screening)   ...  21282 (   0.0 sec)
nearest neighbour list constructed           ...    0.0 sec
Grid point re-assignment to atoms done       ...    0.0 sec
Grid point division into batches done        ...    0.2 sec
Reduced shell lists constructed in    0.2 sec

Total number of grid points                  ...    21282
Total number of batches                      ...      334
Average number of points per batch           ...       63
Average number of grid points per atom       ...    10641
Average number of shells per batch           ...     2.53 ( 7.92%)
Average number of basis functions per batch  ...     5.47 ( 4.88%)
Average number of large shells per batch     ...     1.93 (76.32%)
Average number of large basis fcns per batch ...     4.33 (79.27%)
Maximum spatial batch extension              ...  31.14, 31.14, 19.99 au
Average spatial batch extension              ...   0.98,  0.98,  0.74 au

Time for grid setup =    0.236 sec

--------------
SCF ITERATIONS
--------------
ITER       Energy         Delta-E        Max-DP      RMS-DP      [F,P]     Damp
               ***  Starting incremental Fock matrix formation  ***
  0   -293.8861957766   0.000000000000 0.00065267  0.00002116  0.0219911 0.7000
  1   -293.8862055226  -0.000009746022 0.00075453  0.00002189  0.0154233 0.7000
                               ***Turning on DIIS***
  2   -293.8862121745  -0.000006651918 0.00217360  0.00006188  0.0108010 0.0000
  3   -293.8862274893  -0.000015314752 0.00057438  0.00001923  0.0002688 0.0000
  4   -293.8862275183  -0.000000029002 0.00016426  0.00000723  0.0003772 0.0000
  5   -293.8862279846  -0.000000466364 0.00007253  0.00000170  0.0000176 0.0000
  6   -293.8862279864  -0.000000001797 0.00001528  0.00000067  0.0000123 0.0000
  7   -293.8862279874  -0.000000000960 0.00000826  0.00000028  0.0000100 0.0000
                 **** Energy Check signals convergence ****

               *****************************************************
               *                     SUCCESS                       *
               *           SCF CONVERGED AFTER   8 CYCLES          *
               *****************************************************

Total Energy       :         -293.88622799 Eh           -7997.05083 eV
  Last Energy change         ...   -3.3356e-10  Tolerance :   1.0000e-08
  Last MAX-Density change    ...    1.0433e-06  Tolerance :   1.0000e-07
             **** THE GBW FILE WAS UPDATED (Ag02N0.gbw) ****
             **** DENSITY FILE WAS UPDATED (Ag02N0.scfp) ****
             **** ENERGY FILE WAS UPDATED (Ag02N0.en.tmp) ****
             **** THE GBW FILE WAS UPDATED (Ag02N0.gbw) ****
             **** DENSITY FILE WAS UPDATED (Ag02N0.scfp) ****
Total SCF time: 0 days 0 hours 0 min 2 sec 


-------------------------------------------------------------------------------
                          DFT DISPERSION CORRECTION                            
                                                                               
                              DFTD3 V3.1  Rev 1                                
                          USING Becke-Johnson damping                          
-------------------------------------------------------------------------------
-------------------------   ----------------
Dispersion correction           -0.001858294
-------------------------   ----------------


-------------------------   --------------------
FINAL SINGLE POINT ENERGY      -293.888086281830
-------------------------   --------------------



           ************************************************************
           *        Program running with 24 parallel MPI-processes    *
           *              working on a common directory               *
           ************************************************************
------------------------------------------------------------------------------
                         ORCA SCF GRADIENT CALCULATION
------------------------------------------------------------------------------

Gradient of the Kohn-Sham DFT energy:
Kohn-Sham wavefunction type      ... RKS
Hartree-Fock exchange scaling    ...    0.100
Number of operators              ...    1
Number of atoms                  ...    2
Basis set dimensions             ...  112
Integral neglect threshold       ... 2.5e-11
Integral primitive cutoff        ... 2.5e-12

Nuclear repulsion gradient       ... done
One Electron Gradient            
  ECP gradient                   ... done
Pre-screening matrix             ... done
Starting the two electron gradient:
Two electron gradient done
Exchange-correlation gradient    ... done
Dispersion correction            ... done

------------------
CARTESIAN GRADIENT
------------------

   1   Ag  :   -0.000000006    0.000000003   -0.000276366
   2   Ag  :    0.000000002   -0.000000001    0.000276370

Difference to translation invariance:
           :   -0.0000000043    0.0000000022    0.0000000041

Norm of the cartesian gradient     ...    0.0003908433
RMS gradient                       ...    0.0001595611
MAX gradient                       ...    0.0002763700

-------
TIMINGS
-------

Total SCF gradient time            ...        1.214 sec

One electron gradient       ....       0.282 sec  ( 23.2%)
Prescreening matrices       ....       0.004 sec  (  0.3%)
Two electron gradient       ....       0.717 sec  ( 59.0%)
XC gradient                 ....       0.015 sec  (  1.2%)
------------------------------------------------------------------------------
                         ORCA GEOMETRY RELAXATION STEP
------------------------------------------------------------------------------

Reading the OPT-File                    .... done
Getting information on internals        .... done
Copying old internal coords+grads       .... done
Making the new internal coordinates     .... (new redundants).... done
Validating the new internal coordinates .... (new redundants).... done
Calculating the B-matrix                .... done
Calculating the G,G- and P matrices     .... done
Transforming gradient to internals      .... done
Projecting the internal gradient        .... done
Number of atoms                         ....   2
Number of internal coordinates          ....   1
Current Energy                          ....  -293.888086282 Eh
Current gradient norm                   ....     0.000390843 Eh/bohr
Maximum allowed component of the step   ....  0.300
Current trust radius                    ....  0.300
Updating the Hessian (BFGS)             .... done
Forming the augmented Hessian           .... done
Diagonalizing the augmented Hessian     .... done
Last element of RFO vector              ....  0.999993357
Lowest eigenvalues of augmented Hessian:
 -0.000001007
Length of the computed step             ....  0.003645073
The final length of the internal step   ....  0.003645073
Converting the step to cartesian space:
 Initial RMS(Int)=    0.0036450730
Transforming coordinates:
 Iter   0:  RMS(Cart)=    0.0010522419 RMS(Int)=    0.0036450730
 Iter   1:  RMS(Cart)=    0.0000000000 RMS(Int)=    0.0000000000
done
Storing new coordinates                 .... done

                                .--------------------.
          ----------------------|Geometry convergence|-------------------------
          Item                value                   Tolerance       Converged
          ---------------------------------------------------------------------
          Energy change      -0.0001178759            0.0000050000      NO
          RMS gradient        0.0002763679            0.0001000000      NO
          MAX gradient        0.0002763679            0.0003000000      YES
          RMS step            0.0036450730            0.0020000000      NO
          MAX step            0.0036450730            0.0040000000      YES
          ........................................................
          Max(Bonds)      0.0019      Max(Angles)    0.00
          Max(Dihed)        0.00      Max(Improp)    0.00
          ---------------------------------------------------------------------

The optimization has not yet converged - more geometry cycles are needed


    ---------------------------------------------------------------------------
                         Redundant Internal Coordinates
                            (Angstroem and degrees)

        Definition                    Value    dE/dq     Step     New-Value
    ----------------------------------------------------------------------------
     1. B(Ag  1,Ag  0)                2.5533 -0.000276  0.0019    2.5552   
    ----------------------------------------------------------------------------

         *************************************************************
         *                GEOMETRY OPTIMIZATION CYCLE   4            *
         *************************************************************
---------------------------------
CARTESIAN COORDINATES (ANGSTROEM)
---------------------------------
  Ag     0.000000    0.000000    1.277602
  Ag     0.000000    0.000000   -1.277602

----------------------------
CARTESIAN COORDINATES (A.U.)
----------------------------
  NO LB      ZA    FRAG     MASS         X           Y           Z
   0 Ag   19.0000*   0   107.870    0.000000    0.000000    2.414318
   1 Ag   19.0000*   0   107.870    0.000000    0.000000   -2.414318
* core charge reduced due to ECP

--------------------------------
INTERNAL COORDINATES (ANGSTROEM)
--------------------------------
 Ag     0   0   0     0.000000000000     0.00000000     0.00000000
 Ag     1   0   0     2.555204312113     0.00000000     0.00000000

---------------------------
INTERNAL COORDINATES (A.U.)
---------------------------
 Ag     0   0   0     0.000000000000     0.00000000     0.00000000
 Ag     1   0   0     4.828636366109     0.00000000     0.00000000



           ************************************************************
           *        Program running with 24 parallel MPI-processes    *
           *              working on a common directory               *
           ************************************************************


           ************************************************************
           *        Program running with 24 parallel MPI-processes    *
           *              working on a common directory               *
           ************************************************************

Diagonalization of the overlap matrix:
Smallest eigenvalue                        ... 4.444e-03
Time for diagonalization                   ...    0.003 sec
Threshold for overlap eigenvalues          ... 1.000e-08
Number of eigenvalues below threshold      ... 0
Time for construction of square roots      ...    0.002 sec
Total time needed                          ...    0.004 sec

-------------------
DFT GRID GENERATION
-------------------

General Integration Accuracy     IntAcc      ...  4.670
Radial Grid Type                 RadialGrid  ... Gauss-Chebyshev
Angular Grid (max. acc.)         AngularGrid ... Lebedev-302
Angular grid pruning method      GridPruning ... 3 (G Style)
Weight generation scheme         WeightScheme... Becke
Basis function cutoff            BFCut       ...    1.0000e-11
Integration weight cutoff        WCut        ...    1.0000e-14
Grids for H and He will be reduced by one unit

# of grid points (after initial pruning)     ...  21316 (   0.0 sec)
# of grid points (after weights+screening)   ...  21282 (   0.0 sec)
nearest neighbour list constructed           ...    0.0 sec
Grid point re-assignment to atoms done       ...    0.0 sec
Grid point division into batches done        ...    0.2 sec
Reduced shell lists constructed in    0.2 sec

Total number of grid points                  ...    21282
Total number of batches                      ...      334
Average number of points per batch           ...       63
Average number of grid points per atom       ...    10641
Average number of shells per batch           ...     2.53 ( 7.92%)
Average number of basis functions per batch  ...     5.47 ( 4.88%)
Average number of large shells per batch     ...     1.93 (76.32%)
Average number of large basis fcns per batch ...     4.33 (79.27%)
Maximum spatial batch extension              ...  31.14, 31.14, 19.99 au
Average spatial batch extension              ...   0.98,  0.98,  0.74 au

Time for grid setup =    0.220 sec

--------------
SCF ITERATIONS
--------------
ITER       Energy         Delta-E        Max-DP      RMS-DP      [F,P]     Damp
               ***  Starting incremental Fock matrix formation  ***
  0   -293.8862287039   0.000000000000 0.00004516  0.00000146  0.0015284 0.7000
  1   -293.8862287507  -0.000000046820 0.00005218  0.00000152  0.0010719 0.7000
                               ***Turning on DIIS***
  2   -293.8862287827  -0.000000031971 0.00017349  0.00000500  0.0007507 0.0000
  3   -293.8862288577  -0.000000074984 0.00002138  0.00000084  0.0000147 0.0000
  4   -293.8862288573   0.000000000387 0.00000858  0.00000042  0.0000204 0.0000
  5   -293.8862288587  -0.000000001393 0.00000270  0.00000008  0.0000012 0.0000
                            ***DIIS convergence achieved***

               *****************************************************
               *                     SUCCESS                       *
               *           SCF CONVERGED AFTER   6 CYCLES          *
               *****************************************************

Total Energy       :         -293.88622886 Eh           -7997.05085 eV
  Last Energy change         ...    5.5479e-11  Tolerance :   1.0000e-08
  Last MAX-Density change    ...    8.1023e-07  Tolerance :   1.0000e-07
             **** THE GBW FILE WAS UPDATED (Ag02N0.gbw) ****
             **** DENSITY FILE WAS UPDATED (Ag02N0.scfp) ****
             **** ENERGY FILE WAS UPDATED (Ag02N0.en.tmp) ****
             **** THE GBW FILE WAS UPDATED (Ag02N0.gbw) ****
             **** DENSITY FILE WAS UPDATED (Ag02N0.scfp) ****
Total SCF time: 0 days 0 hours 0 min 1 sec 


-------------------------------------------------------------------------------
                          DFT DISPERSION CORRECTION                            
                                                                               
                              DFTD3 V3.1  Rev 1                                
                          USING Becke-Johnson damping                          
-------------------------------------------------------------------------------
-------------------------   ----------------
Dispersion correction           -0.001858266
-------------------------   ----------------


-------------------------   --------------------
FINAL SINGLE POINT ENERGY      -293.888087124505
-------------------------   --------------------



           ************************************************************
           *        Program running with 24 parallel MPI-processes    *
           *              working on a common directory               *
           ************************************************************
------------------------------------------------------------------------------
                         ORCA SCF GRADIENT CALCULATION
------------------------------------------------------------------------------

Gradient of the Kohn-Sham DFT energy:
Kohn-Sham wavefunction type      ... RKS
Hartree-Fock exchange scaling    ...    0.100
Number of operators              ...    1
Number of atoms                  ...    2
Basis set dimensions             ...  112
Integral neglect threshold       ... 2.5e-11
Integral primitive cutoff        ... 2.5e-12

Nuclear repulsion gradient       ... done
One Electron Gradient            
  ECP gradient                   ... done
Pre-screening matrix             ... done
Starting the two electron gradient:
Two electron gradient done
Exchange-correlation gradient    ... done
Dispersion correction            ... done

------------------
CARTESIAN GRADIENT
------------------

   1   Ag  :   -0.000000003    0.000000001   -0.000018197
   2   Ag  :    0.000000001    0.000000001    0.000018200

Difference to translation invariance:
           :   -0.0000000020    0.0000000023    0.0000000034

Norm of the cartesian gradient     ...    0.0000257369
RMS gradient                       ...    0.0000105070
MAX gradient                       ...    0.0000182004

-------
TIMINGS
-------

Total SCF gradient time            ...        1.226 sec

One electron gradient       ....       0.294 sec  ( 23.9%)
Prescreening matrices       ....       0.003 sec  (  0.3%)
Two electron gradient       ....       0.716 sec  ( 58.4%)
XC gradient                 ....       0.015 sec  (  1.3%)
------------------------------------------------------------------------------
                         ORCA GEOMETRY RELAXATION STEP
------------------------------------------------------------------------------

Reading the OPT-File                    .... done
Getting information on internals        .... done
Copying old internal coords+grads       .... done
Making the new internal coordinates     .... (new redundants).... done
Validating the new internal coordinates .... (new redundants).... done
Calculating the B-matrix                .... done
Calculating the G,G- and P matrices     .... done
Transforming gradient to internals      .... done
Projecting the internal gradient        .... done
Number of atoms                         ....   2
Number of internal coordinates          ....   1
Current Energy                          ....  -293.888087125 Eh
Current gradient norm                   ....     0.000025737 Eh/bohr
Maximum allowed component of the step   ....  0.300
Current trust radius                    ....  0.300
Updating the Hessian (BFGS)             .... done
Forming the augmented Hessian           .... done
Diagonalizing the augmented Hessian     .... done
Last element of RFO vector              ....  0.999999967
Lowest eigenvalues of augmented Hessian:
 -0.000000005
Length of the computed step             ....  0.000256947
The final length of the internal step   ....  0.000256947
Converting the step to cartesian space:
 Initial RMS(Int)=    0.0002569467
Transforming coordinates:
 Iter   0:  RMS(Cart)=    0.0000741741 RMS(Int)=    0.0002569467
 Iter   1:  RMS(Cart)=    0.0000000000 RMS(Int)=    0.0000000000
done
Storing new coordinates                 .... done

                                .--------------------.
          ----------------------|Geometry convergence|-------------------------
          Item                value                   Tolerance       Converged
          ---------------------------------------------------------------------
          Energy change      -0.0000008427            0.0000050000      YES
          RMS gradient        0.0000181987            0.0001000000      YES
          MAX gradient        0.0000181987            0.0003000000      YES
          RMS step            0.0002569467            0.0020000000      YES
          MAX step            0.0002569467            0.0040000000      YES
          ........................................................
          Max(Bonds)      0.0001      Max(Angles)    0.00
          Max(Dihed)        0.00      Max(Improp)    0.00
          ---------------------------------------------------------------------

                    ***********************HURRAY********************
                    ***        THE OPTIMIZATION HAS CONVERGED     ***
                    *************************************************


    ---------------------------------------------------------------------------
                         Redundant Internal Coordinates

                          --- Optimized Parameters ---  
                            (Angstroem and degrees)

        Definition                    OldVal   dE/dq     Step     FinalVal
    ----------------------------------------------------------------------------
     1. B(Ag  1,Ag  0)                2.5552 -0.000018  0.0001    2.5553   
    ----------------------------------------------------------------------------
                 *******************************************************
                 *** FINAL ENERGY EVALUATION AT THE STATIONARY POINT ***
                 ***               (AFTER    4 CYCLES)               ***
                 *******************************************************
---------------------------------
CARTESIAN COORDINATES (ANGSTROEM)
---------------------------------
  Ag     0.000000    0.000000    1.277670
  Ag     0.000000    0.000000   -1.277670

----------------------------
CARTESIAN COORDINATES (A.U.)
----------------------------
  NO LB      ZA    FRAG     MASS         X           Y           Z
   0 Ag   19.0000*   0   107.870    0.000000    0.000000    2.414447
   1 Ag   19.0000*   0   107.870    0.000000    0.000000   -2.414447
* core charge reduced due to ECP

--------------------------------
INTERNAL COORDINATES (ANGSTROEM)
--------------------------------
 Ag     0   0   0     0.000000000000     0.00000000     0.00000000
 Ag     1   0   0     2.555340282437     0.00000000     0.00000000

---------------------------
INTERNAL COORDINATES (A.U.)
---------------------------
 Ag     0   0   0     0.000000000000     0.00000000     0.00000000
 Ag     1   0   0     4.828893312783     0.00000000     0.00000000

---------------------
BASIS SET INFORMATION
---------------------
There are 1 groups of distinct atoms

 Group   1 Type Ag  : 7s7p6d2f1g contracted to 6s4p3d2f1g pattern {211111/4111/411/11/1}

Atom   0Ag   basis set group =>   1
Atom   1Ag   basis set group =>   1
----------------------------------
AUXILIARY/JK BASIS SET INFORMATION
----------------------------------
There are 1 groups of distinct atoms

 Group   1 Type Ag  : 13s12p10d9f6g3h2i contracted to 11s10p9d8f6g3h2i pattern {31111111111/3111111111/211111111/21111111/111111/111/11}

Atom   0Ag   basis set group =>   1
Atom   1Ag   basis set group =>   1
-------------------------
ECP PARAMETER INFORMATION
-------------------------

 Group 1, Type Ag ECP Def2-ECP (replacing 28 core electrons, lmax=3)

Atom   0Ag   ECP group =>   1
Atom   1Ag   ECP group =>   1



           ************************************************************
           *        Program running with 24 parallel MPI-processes    *
           *              working on a common directory               *
           ************************************************************
------------------------------------------------------------------------------
                           ORCA GTO INTEGRAL CALCULATION
------------------------------------------------------------------------------

                         BASIS SET STATISTICS AND STARTUP INFO

 # of primitive gaussian shells          ...   46
 # of primitive gaussian functions       ...  162
 # of contracted shells                  ...   32
 # of contracted basis functions         ...  112
 Highest angular momentum                ...    4
 Maximum contraction depth               ...    4
 Integral package used                   ... LIBINT
 Integral threshhold            Thresh   ...  2.500e-11
 Primitive cut-off              TCut     ...  2.500e-12


------------------------------ INTEGRAL EVALUATION ----------------------------


 * One electron integrals 

   ECP integrals                         ... done
 Pre-screening matrix                    ... done
 Shell pair data                         ... done (   0.000 sec)



           ************************************************************
           *        Program running with 24 parallel MPI-processes    *
           *              working on a common directory               *
           ************************************************************
-------------------------------------------------------------------------------
                                 ORCA SCF
-------------------------------------------------------------------------------

------------
SCF SETTINGS
------------
Hamiltonian:
 Density Functional     Method          .... DFT(GTOs)
 Exchange Functional    Exchange        .... TPSS
 Correlation Functional Correlation     .... TPSS
 LDA part of GGA corr.  LDAOpt          .... PW91-LDA
 Gradients option       PostSCFGGA      .... off
 Hybrid DFT is turned on
   Fraction HF Exchange ScalHFX         ....  0.100000
   Scaling of DF-GGA-X  ScalDFX         ....  0.900000
   Scaling of DF-GGA-C  ScalDFC         ....  1.000000
   Scaling of DF-LDA-C  ScalLDAC        ....  1.000000
   Perturbative correction              ....  0.000000
   Density functional embedding theory  .... OFF
   NL short-range parameter             ....  5.200000


General Settings:
 Integral files         IntName         .... Ag02N0
 Hartree-Fock type      HFTyp           .... RHF
 Total Charge           Charge          ....    0
 Multiplicity           Mult            ....    1
 Number of Electrons    NEL             ....   38
 Basis Dimension        Dim             ....  112
 Nuclear Repulsion      ENuc            ....     74.7583300390 Eh

Convergence Acceleration:
 DIIS                   CNVDIIS         .... on
[...]
  68   0.0000       2.049058        55.7577 
  69   0.0000       2.063751        56.1575 
  70   0.0000       2.063764        56.1579 
  71   0.0000       2.126932        57.8768 
  72   0.0000       2.126932        57.8768 
  73   0.0000       2.130429        57.9719 
  74   0.0000       2.286876        62.2290 
  75   0.0000       2.333392        63.4948 
  76   0.0000       4.765643       129.6797 
  77   0.0000       4.765643       129.6797 
  78   0.0000       4.767858       129.7400 
  79   0.0000       4.802897       130.6935 
  80   0.0000       4.803247       130.7030 
  81   0.0000       4.813825       130.9908 
  82   0.0000       4.813825       130.9908 
  83   0.0000       4.815467       131.0355 
  84   0.0000       4.815467       131.0355 
  85   0.0000       4.826448       131.3343 
  86   0.0000       4.826800       131.3439 
  87   0.0000       4.906438       133.5110 
  88   0.0000       4.906438       133.5110 
  89   0.0000       5.101103       138.8081 
  90   0.0000       5.573714       151.6685 
  91   0.0000       5.573714       151.6685 
  92   0.0000       5.575370       151.7135 
  93   0.0000       5.575770       151.7244 
  94   0.0000       5.575807       151.7254 
  95   0.0000       5.576202       151.7362 
  96   0.0000       5.576234       151.7371 
  97   0.0000       5.577754       151.7784 
  98   0.0000       5.577754       151.7784 
  99   0.0000       5.577832       151.7805 
 100   0.0000       5.577832       151.7805 
 101   0.0000       5.577895       151.7822 
 102   0.0000       5.577895       151.7822 
 103   0.0000       5.579707       151.8316 
 104   0.0000       5.579710       151.8316 
 105   0.0000       5.580444       151.8516 
 106   0.0000       5.580444       151.8516 
 107   0.0000       5.589950       152.1103 
 108   0.0000      33.285850       905.7540 
 109   0.0000      33.531762       912.4456 
 110   0.0000     110.744890      3013.5216 
 111   0.0000     110.823917      3015.6721 

                    ********************************
                    * MULLIKEN POPULATION ANALYSIS *
                    ********************************

-----------------------
MULLIKEN ATOMIC CHARGES
-----------------------
   0 Ag:   -0.000001
   1 Ag:    0.000001
Sum of atomic charges:   -0.0000000

--------------------------------
MULLIKEN REDUCED ORBITAL CHARGES
--------------------------------
  0 Ags       :     2.995922  s :     2.995922
      pz      :     2.030998  p :     6.048248
      px      :     2.008625
      py      :     2.008625
      dz2     :     1.972419  d :     9.954358
      dxz     :     1.991028
      dyz     :     1.991028
      dx2y2   :     1.999942
      dxy     :     1.999942
      f0      :     0.000654  f :     0.001455
      f+1     :     0.000343
      f-1     :     0.000343
      f+2     :     0.000058
      f-2     :     0.000058
      f+3     :     0.000000
      f-3     :     0.000000
      g0      :     0.000008  g :     0.000018
      g+1     :     0.000004
      g-1     :     0.000004
      g+2     :     0.000001
      g-2     :     0.000001
      g+3     :     0.000000
      g-3     :     0.000000
      g+4     :     0.000000
      g-4     :     0.000000
  1 Ags       :     2.995920  s :     2.995920
      pz      :     2.030998  p :     6.048248
      px      :     2.008625
      py      :     2.008625
      dz2     :     1.972419  d :     9.954358
      dxz     :     1.991028
      dyz     :     1.991028
      dx2y2   :     1.999942
      dxy     :     1.999942
      f0      :     0.000654  f :     0.001455
      f+1     :     0.000343
      f-1     :     0.000343
      f+2     :     0.000058
      f-2     :     0.000058
      f+3     :     0.000000
      f-3     :     0.000000
      g0      :     0.000008  g :     0.000018
      g+1     :     0.000004
      g-1     :     0.000004
      g+2     :     0.000001
      g-2     :     0.000001
      g+3     :     0.000000
      g-3     :     0.000000
      g+4     :     0.000000
      g-4     :     0.000000


                     *******************************
                     * LOEWDIN POPULATION ANALYSIS *
                     *******************************

----------------------
LOEWDIN ATOMIC CHARGES
----------------------
   0 Ag:   -0.000000
   1 Ag:    0.000000

-------------------------------
LOEWDIN REDUCED ORBITAL CHARGES
-------------------------------
  0 Ags       :     2.917645  s :     2.917645
      pz      :     2.088778  p :     6.109792
      px      :     2.010507
      py      :     2.010507
      dz2     :     1.992700  d :     9.970578
      dxz     :     1.989005
      dyz     :     1.989005
      dx2y2   :     1.999934
      dxy     :     1.999934
      f0      :     0.000867  f :     0.001963
      f+1     :     0.000483
      f-1     :     0.000483
      f+2     :     0.000065
      f-2     :     0.000065
      f+3     :     0.000000
      f-3     :     0.000000
      g0      :     0.000010  g :     0.000023
      g+1     :     0.000006
      g-1     :     0.000006
      g+2     :     0.000001
      g-2     :     0.000001
      g+3     :     0.000000
      g-3     :     0.000000
      g+4     :     0.000000
      g-4     :     0.000000
  1 Ags       :     2.917645  s :     2.917645
      pz      :     2.088778  p :     6.109792
      px      :     2.010507
      py      :     2.010507
      dz2     :     1.992700  d :     9.970578
      dxz     :     1.989005
      dyz     :     1.989005
      dx2y2   :     1.999934
      dxy     :     1.999934
      f0      :     0.000867  f :     0.001963
      f+1     :     0.000483
      f-1     :     0.000483
      f+2     :     0.000065
      f-2     :     0.000065
      f+3     :     0.000000
      f-3     :     0.000000
      g0      :     0.000010  g :     0.000023
      g+1     :     0.000006
      g-1     :     0.000006
      g+2     :     0.000001
      g-2     :     0.000001
      g+3     :     0.000000
      g-3     :     0.000000
      g+4     :     0.000000
      g-4     :     0.000000


                      *****************************
                      * MAYER POPULATION ANALYSIS *
                      *****************************

  NA   - Mulliken gross atomic population
  ZA   - Total nuclear charge
  QA   - Mulliken gross atomic charge
  VA   - Mayer's total valence
  BVA  - Mayer's bonded valence
  FA   - Mayer's free valence

  ATOM       NA         ZA         QA         VA         BVA        FA
  0 Ag    19.0000    19.0000    -0.0000     1.0610     1.0610    -0.0000
  1 Ag    19.0000    19.0000     0.0000     1.0610     1.0610    -0.0000

  Mayer bond orders larger than 0.100000
B(  0-Ag,  1-Ag) :   1.0610 

-------
TIMINGS
-------

Total SCF time: 0 days 0 hours 0 min 1 sec 

Total time                  ....       1.233 sec
Sum of individual times     ....       1.036 sec  ( 84.1%)

Fock matrix formation       ....       0.790 sec  ( 64.1%)
  XC integration            ....       0.125 sec  ( 15.8% of F)
    Basis function eval.    ....       0.007 sec  (  5.5% of XC)
    Density eval.           ....       0.008 sec  (  6.7% of XC)
    XC-Functional eval.     ....       0.006 sec  (  4.7% of XC)
    XC-Potential eval.      ....       0.012 sec  (  9.9% of XC)
Diagonalization             ....       0.006 sec  (  0.5%)
Density matrix formation    ....       0.001 sec  (  0.1%)
Population analysis         ....       0.003 sec  (  0.3%)
Initial guess               ....       0.006 sec  (  0.5%)
Orbital Transformation      ....       0.000 sec  (  0.0%)
Orbital Orthonormalization  ....       0.003 sec  (  0.3%)
DIIS solution               ....       0.002 sec  (  0.1%)
Grid generation             ....       0.227 sec  ( 18.4%)


-------------------------------------------------------------------------------
                          DFT DISPERSION CORRECTION                            
                                                                               
                              DFTD3 V3.1  Rev 1                                
                          USING Becke-Johnson damping                          
-------------------------------------------------------------------------------
The TPSSH functional is recognized
Active option DFTDOPT                   ...         4   

molecular C6(AA) [au] = 1087.063227 


            DFT-D V3
 parameters
 s6 scaling factor         :     1.0000 
 a1 scaling factor         :     0.4529 
 s8 scaling factor         :     2.2382 
 a2 scaling factor         :     4.6550 
 ad hoc parameters k1-k3   :    16.0000     1.3333    -4.0000 

 Edisp/kcal,au: -1.166078341719  -0.001858263924 
 E6   /kcal   :  -0.329277320 
 E8   /kcal   :  -0.836801022 
 % E8         :  71.761989895 

-------------------------   ----------------
Dispersion correction           -0.001858264
-------------------------   ----------------


-------------------------   --------------------
FINAL SINGLE POINT ENERGY      -293.888087136315
-------------------------   --------------------

                                *** OPTIMIZATION RUN DONE ***

                            ***************************************
                            *     ORCA property calculations      *
                            ***************************************

                                    ---------------------
                                    Active property flags
                                    ---------------------
   (+) Dipole Moment


------------------------------------------------------------------------------
                       ORCA ELECTRIC PROPERTIES CALCULATION
------------------------------------------------------------------------------

Dipole Moment Calculation                       ... on
Quadrupole Moment Calculation                   ... off
Polarizability Calculation                      ... off
GBWName                                         ... Ag02N0.gbw
Electron density file                           ... Ag02N0.scfp
The origin for moment calculation is the CENTER OF MASS  = ( 0.000000,  0.000000  0.000000)

-------------
DIPOLE MOMENT
-------------
                                X             Y             Z
Electronic contribution:      0.00000       0.00000       0.00000
Nuclear contribution   :      0.00000       0.00000       0.00000
                        -----------------------------------------
Total Dipole Moment    :      0.00000       0.00000       0.00000
                        -----------------------------------------
Magnitude (a.u.)       :      0.00000
Magnitude (Debye)      :      0.00000



--------------------
Rotational spectrum 
--------------------
 
Rotational constants in cm-1:     0.000000     0.047866     0.047866 
Rotational constants in MHz :     0.000000  1434.991863  1434.991863 

 Dipole components along the rotational axes: 
x,y,z [a.u.] :     0.000000     0.000000     0.000000 
x,y,z [Debye]:     0.000000     0.000000     0.000000 

 

----------------------------------------------------------------------------
                           ORCA NUMERICAL FREQUENCIES
                              (24-process run)
----------------------------------------------------------------------------

Number of atoms                ... 2
Central differences            ... used
Number of displacements        ... 12
Numerical increment            ... 5.000e-03 bohr
IR-spectrum generation         ... on
Raman-spectrum generation      ... off
Surface Crossing Hessian       ... off

 WARNING: There are more processes than displacements to do
  ====> : Reducing number of processes to   6

The output will be reduced. Please look at the following files:
SCF program output             ... >Ag02N0.lastscf
Integral program output        ... >Ag02N0.lastint
Gradient program output        ... >Ag02N0.lastgrad
Dipole moment program output   ... >Ag02N0.lastmom
AutoCI program output          ... >Ag02N0.lastautoci


         <<< Energy and Gradient at the input geometry >>>

        <<< Energy and Gradient at displaced geometries >>>
             <<<Displacing   1/coordinate 2 (+)>>>
             <<<Displacing   1/coordinate 3 (+)>>>
             <<<Displacing   2/coordinate 1 (+)>>>
             <<<Displacing   2/coordinate 3 (+)>>>
             <<<Displacing   2/coordinate 2 (+)>>>
             <<<Displacing   1/coordinate 1 (+)>>>
             <<<Displacing   2/coordinate 1 (-)>>>
             <<<Displacing   1/coordinate 1 (-)>>>
             <<<Displacing   1/coordinate 2 (-)>>>
             <<<Displacing   2/coordinate 2 (-)>>>
             <<<Displacing   2/coordinate 3 (-)>>>
             <<<Displacing   1/coordinate 3 (-)>>>
Warning: T+R mode no 5 is zero 

-----------------------
VIBRATIONAL FREQUENCIES
-----------------------

Scaling factor for frequencies =  1.000000000 (already applied!)

   0:         0.00 cm**-1
   1:         0.00 cm**-1
   2:         0.00 cm**-1
   3:         0.00 cm**-1
   4:         0.00 cm**-1
   5:       185.77 cm**-1


------------
NORMAL MODES
------------

These modes are the cartesian displacements weighted by the diagonal matrix
M(i,i)=1/sqrt(m[i]) where m[i] is the mass of the displaced atom
Thus, these vectors are normalized but *not* orthogonal

                  0          1          2          3          4          5    
      0       0.000000   0.000000   0.000000   0.000000   0.000000   0.000000
      1       0.000000   0.000000   0.000000   0.000000   0.000000   0.000000
      2       0.000000   0.000000   0.000000   0.000000   0.000000   0.707107
      3       0.000000   0.000000   0.000000   0.000000   0.000000   0.000000
      4       0.000000   0.000000   0.000000   0.000000   0.000000   0.000000
      5       0.000000   0.000000   0.000000   0.000000   0.000000  -0.707107


-----------
IR SPECTRUM  
-----------

 Mode    freq (cm**-1)   T**2         TX         TY         TZ
-------------------------------------------------------------------
   5:       185.77    0.000000  (  0.000001  -0.000011   0.000003)

The first frequency considered to be a vibration is 5
The total number of vibrations considered is 1


--------------------------
THERMOCHEMISTRY AT 298.15K
--------------------------

Temperature         ... 298.15 K
Pressure            ... 1.00 atm
Total Mass          ... 215.74 AMU
The molecule is recognized as being linear

Throughout the following assumptions are being made:
  (1) The electronic state is orbitally nondegenerate
  (2) There are no thermally accessible electronically excited states
  (3) Hindered rotations indicated by low frequency modes are not
      treated as such but are treated as vibrations and this may
      cause some error
  (4) All equations used are the standard statistical mechanics
      equations for an ideal gas
  (5) All vibrations are strictly harmonic

freq.     185.77  E(vib)   ...       0.37 

------------
INNER ENERGY
------------

The inner energy is: U= E(el) + E(ZPE) + E(vib) + E(rot) + E(trans)
    E(el)   - is the total energy from the electronic structure calculation
              = E(kin-el) + E(nuc-el) + E(el-el) + E(nuc-nuc)
    E(ZPE)  - the the zero temperature vibrational energy from the frequency calculation
    E(vib)  - the the finite temperature correction to E(ZPE) due to population
              of excited vibrational states
    E(rot)  - is the rotational thermal energy
    E(trans)- is the translational thermal energy

Summary of contributions to the inner energy U:
Electronic energy                ...   -293.88808714 Eh
Zero point energy                ...      0.00042321 Eh       0.27 kcal/mol
Thermal vibrational correction   ...      0.00058340 Eh       0.37 kcal/mol
Thermal rotational correction    ...      0.00094418 Eh       0.59 kcal/mol
Thermal translational correction ...      0.00141627 Eh       0.89 kcal/mol
-----------------------------------------------------------------------
Total thermal energy                   -293.88472007 Eh


Summary of corrections to the electronic energy:
(perhaps to be used in another calculation)
Total thermal correction                  0.00294385 Eh       1.85 kcal/mol
Non-thermal (ZPE) correction              0.00042321 Eh       0.27 kcal/mol
-----------------------------------------------------------------------
Total correction                          0.00336706 Eh       2.11 kcal/mol


--------
ENTHALPY
--------

The enthalpy is H = U + kB*T
                kB is Boltzmann's constant
Total free energy                 ...   -293.88472007 Eh 
Thermal Enthalpy correction       ...      0.00094421 Eh       0.59 kcal/mol
-----------------------------------------------------------------------
Total Enthalpy                    ...   -293.88377587 Eh


Note: Rotational entropy computed according to Herzberg 
Infrared and Raman Spectra, Chapter V,1, Van Nostrand Reinhold, 1945 
Point Group:  Dinfh, Symmetry Number:   2  
Rotational constants in cm-1:     0.000000     0.047866     0.047866 

Vibrational entropy computed according to the QRRHO of S. Grimme
Chem.Eur.J. 2012 18 9955


-------
ENTROPY
-------

The entropy contributions are T*S = T*(S(el)+S(vib)+S(rot)+S(trans))
     S(el)   - electronic entropy
     S(vib)  - vibrational entropy
     S(rot)  - rotational entropy
     S(trans)- translational entropy
The entropies will be listed as mutliplied by the temperature to get
units of energy

Electronic entropy                ...      0.00000000 Eh      0.00 kcal/mol
Vibrational entropy               ...      0.00107730 Eh      0.68 kcal/mol
Rotational entropy                ...      0.00819550 Eh      5.14 kcal/mol
Translational entropy             ...      0.01996022 Eh     12.53 kcal/mol
-----------------------------------------------------------------------
Final entropy term                ...      0.02923301 Eh     18.34 kcal/mol

In case the symmetry of your molecule has not been determined correctly
or in case you have a reason to use a different symmetry number we print 
out the resulting rotational entropy values for sn=1,12 :
 --------------------------------------------------------
|  sn= 1 | S(rot)=             -inf Eh      -inf kcal/mol|
|  sn= 2 | S(rot)=             -inf Eh      -inf kcal/mol|
|  sn= 3 | S(rot)=             -inf Eh      -inf kcal/mol|
|  sn= 4 | S(rot)=             -inf Eh      -inf kcal/mol|
|  sn= 5 | S(rot)=             -inf Eh      -inf kcal/mol|
|  sn= 6 | S(rot)=             -inf Eh      -inf kcal/mol|
|  sn= 7 | S(rot)=             -inf Eh      -inf kcal/mol|
|  sn= 8 | S(rot)=             -inf Eh      -inf kcal/mol|
|  sn= 9 | S(rot)=             -inf Eh      -inf kcal/mol|
|  sn=10 | S(rot)=             -inf Eh      -inf kcal/mol|
|  sn=11 | S(rot)=             -inf Eh      -inf kcal/mol|
|  sn=12 | S(rot)=             -inf Eh      -inf kcal/mol|
 --------------------------------------------------------


-------------------
GIBBS FREE ENERGY
-------------------

The Gibbs free energy is G = H - T*S

Total enthalpy                    ...   -293.88377587 Eh 
Total entropy correction          ...     -0.02923301 Eh    -18.34 kcal/mol
-----------------------------------------------------------------------
Final Gibbs free energy         ...   -293.91300888 Eh

For completeness - the Gibbs free energy minus the electronic energy
G-E(el)                           ...     -0.02492174 Eh    -15.64 kcal/mol


Total Time for Numerical Frequencies  :        39.627 sec

Timings for individual modules:

Sum of individual times         ...       27.656 sec (=   0.461 min)
GTO integral calculation        ...        4.822 sec (=   0.080 min)  17.4 %
SCF iterations                  ...       14.481 sec (=   0.241 min)  52.4 %
SCF Gradient evaluation         ...        8.093 sec (=   0.135 min)  29.3 %
Geometry relaxation             ...        0.259 sec (=   0.004 min)   0.9 %
                             ****ORCA TERMINATED NORMALLY****
TOTAL RUN TIME: 0 days 0 hours 1 minutes 4 seconds 624 msec
