
                                 *****************
                                 * O   R   C   A *
                                 *****************

           --- An Ab Initio, DFT and Semiempirical electronic structure package ---

                  #######################################################
                  #                        -***-                        #
                  #          Department of theory and spectroscopy      #
                  #               Directorship: Frank Neese             #
                  #        Max Planck Institute fuer Kohlenforschung    #
                  #                Kaiser Wilhelm Platz 1               #
                  #                 D-45470 Muelheim/Ruhr               #
                  #                      Germany                        #
                  #                                                     #
                  #                  All rights reserved                #
                  #                        -***-                        #
                  #######################################################


                         Program Version 4.2.0 -  RELEASE  -


 With contributions from (in alphabetic order):
   Daniel Aravena         : Magnetic Suceptibility
   Michael Atanasov       : Ab Initio Ligand Field Theory (pilot matlab implementation)
   Alexander A. Auer      : GIAO ZORA, VPT2
   Ute Becker             : Parallelization
   Giovanni Bistoni       : ED, misc. LED, open-shell LED, HFLED
   Martin Brehm           : Molecular dynamics
   Dmytro Bykov           : SCF Hessian
   Vijay G. Chilkuri      : MRCI spin determinant printing, contributions to CSF-ICE
   Dipayan Datta          : RHF DLPNO-CCSD density
   Achintya Kumar Dutta   : EOM-CC, STEOM-CC
   Dmitry Ganyushin       : Spin-Orbit,Spin-Spin,Magnetic field MRCI
   Miquel Garcia          : C-PCM Hessian, Gaussian charge scheme
   Yang Guo               : DLPNO-NEVPT2, CIM, IAO-localization
   Andreas Hansen         : Spin unrestricted coupled pair/coupled cluster methods
   Benjamin Helmich-Paris : CASSCF linear response (MC-RPA)
   Lee Huntington         : MR-EOM, pCC
   Robert Izsak           : Overlap fitted RIJCOSX, COSX-SCS-MP3, EOM
   Christian Kollmar      : KDIIS, OOCD, Brueckner-CCSD(T), CCSD density
   Simone Kossmann        : Meta GGA functionals, TD-DFT gradient, OOMP2, MP2 Hessian
   Martin Krupicka        : AUTO-CI
   Lucas Lang             : DCDCAS
   Dagmar Lenk            : GEPOL surface, SMD
   Dimitrios Liakos       : Extrapolation schemes; Compound Job, initial MDCI parallelization
   Dimitrios Manganas     : Further ROCIS development; embedding schemes
   Dimitrios Pantazis     : SARC Basis sets
   Taras Petrenko         : DFT Hessian,TD-DFT gradient, ASA, ECA, R-Raman, ABS, FL, XAS/XES, NRVS
   Peter Pinski           : DLPNO-MP2, DLPNO-MP2 Gradient
   Christoph Reimann      : Effective Core Potentials
   Marius Retegan         : Local ZFS, SOC
   Christoph Riplinger    : Optimizer, TS searches, QM/MM, DLPNO-CCSD(T), (RO)-DLPNO pert. Triples
   Tobias Risthaus        : Range-separated hybrids, TD-DFT gradient, RPA, STAB
   Michael Roemelt        : Original ROCIS implementation
   Masaaki Saitow         : Open-shell DLPNO-CCSD energy and density
   Barbara Sandhoefer     : DKH picture change effects
   Avijit Sen             : IP-ROCIS
   Kantharuban Sivalingam : CASSCF convergence, NEVPT2, FIC-MRCI
   Bernardo de Souza      : ESD, SOC TD-DFT
   Georgi Stoychev        : AutoAux, RI-MP2 NMR
   Willem Van den Heuvel  : Paramagnetic NMR
   Boris Wezisla          : Elementary symmetry handling
   Frank Wennmohs         : Technical directorship


 We gratefully acknowledge several colleagues who have allowed us to
 interface, adapt or use parts of their codes:
   Stefan Grimme, W. Hujo, H. Kruse,             : VdW corrections, initial TS optimization,
                  C. Bannwarth                     DFT functionals, gCP, sTDA/sTD-DF
   Ed Valeev, F. Pavosevic, A. Kumar             : LibInt (2-el integral package), F12 methods
   Garnet Chan, S. Sharma, J. Yang, R. Olivares  : DMRG
   Ulf Ekstrom                                   : XCFun DFT Library
   Mihaly Kallay                                 : mrcc  (arbitrary order and MRCC methods)
   Andreas Klamt, Michael Diedenhofen            : otool_cosmo (COSMO solvation model)
   Jiri Pittner, Ondrej Demel                    : Mk-CCSD
   Frank Weinhold                                : gennbo (NPA and NBO analysis)
   Christopher J. Cramer and Donald G. Truhlar   : smd solvation model
   Lars Goerigk                                  : TD-DFT with DH, B97 family of functionals
   V. Asgeirsson, H. Jonsson                     : NEB implementation
   FAccTs GmbH                                   : IRC, NEB, NEB-TS, Multilevel, MM, QM/MM, CI optimization
   S Lehtola, MJT Oliveira, MAL Marques          : LibXC Library


 Your calculation uses the libint2 library for the computation of 2-el integrals
 For citations please refer to: http://libint.valeyev.net

 Your ORCA version has been built with support for libXC version: 4.2.3
 For citations please refer to: https://tddft.org/programs/libxc/

 This ORCA versions uses:
   CBLAS   interface :  Fast vector & matrix operations
   LAPACKE interface :  Fast linear algebra routines
   SCALAPACK package :  Parallel linear algebra routines


Your calculation utilizes the atom-pairwise dispersion correction
with the Becke-Johnson damping scheme (D3BJ)
Cite in your paper:
S.Grimme, S.Ehrlich, L.Goerigk, J Comput Chem, (2011), 32, 1456–1465 
S.Grimme, J.Antony, S.Ehrlich and H.Krieg, J.Chem.Phys., 132, (2010), 154104 
   

----- Orbital basis set information -----
Your calculation utilizes the basis: def2-TZVPPD
   F. Weigend and R. Ahlrichs, Phys. Chem. Chem. Phys. 7, 3297 (2005).
   D. Rappoport and F. Furche, J. Chem. Phys. 133 134105 (2010).

----- AuxJK basis set information -----
Your calculation utilizes the auxiliary basis: def2/JK
   H-Ba, Hf-Rn: F. Weigend, J. Comput. Chem. 29, 167 (2008).

cite the ECPs for Ag [Def2-ECP] as follows:
Ce-Yb(ecp-28): M. Dolg, H. Stoll, H.Preuss, J. Chem. Phys., 1989, 90, 1730-1734.
Y-Cd(ecp-28), Hf-Hg(ecp-46): D. Andrae,U. Haeussermann, M. Dolg, H. Stoll, H. Preuss, Theor. Chim. Acta, 1990, 77, 123-141.
In-Sb(ecp-28), Tl-Bi(ecp-46): B. Metz, H. Stoll, M. Dolg, J. Chem. Phys., 2000, 113, 2563-2569.
Te-Xe(ecp-28), Po-Rn(ecp-46): K. A. Peterson, D. Figgen, E. Goll, H. Stoll, M. Dolg, J. Chem. Phys., 2003, 119, 11113-11123.
Rb(ecp-28), Cs(ecp-46): T. Leininger, A. Nicklass, W. Kuechle, H. Stoll, M. Dolg, A. Bergner, Chem. Phys. Lett., 1996, 255, 274-280.
Sr(ecp-28), Ba(ecp-46): M. Kaupp, P. V. Schleyer, H. Stoll and H. Preuss, J. Chem. Phys., 1991, 94, 1360-1366.
La(ecp-46): M. Dolg, H. Stoll, A. Savin, H. Preuss, Theor. Chim. Acta, 1989, 75, 173-194.
Lu(ecp-28): X. Cao, M. Dolg, J. Chem. Phys., 2001, 115, 7348-7355.

ECP parameters for Ag [Def2-ECP] have been obtained from:
TURBOMOLE (7.0.2)

================================================================================
                                        WARNINGS
                       Please study these warnings very carefully!
================================================================================


WARNING: your system is open-shell and RHF/RKS was chosen
  ===> : WILL SWITCH to UHF/UKS


WARNING: Geometry Optimization
  ===> : Switching off AutoStart
         For restart on a previous wavefunction, please use MOREAD

INFO   : the flag for use of LIBINT has been found!

================================================================================
                                       INPUT FILE
================================================================================
NAME = Ag03N0_LIN.in
|  1> #
|  2> # Ag03N0_LIN TPSSh-D3BJ/Def2-TZVPPD
|  3> #
|  4> ! tpssh d3bj def2-tzvppd def2/jk grid4 nofinalgrid opt xyzfile numfreq
|  5> 
|  6> *xyz 0 2
|  7> Ag       0.000000    0.000000    0.000000 
|  8> Ag       0.000000    0.000000    2.592532 
|  9> Ag       0.000000    0.000000   -2.592532 
| 10> *
| 11> 
| 12> %maxcore 5000
| 13> 
| 14> %pal
| 15> nprocs = 24
| 16> end
| 17> 
| 18> 
| 19>                          ****END OF INPUT****
================================================================================

                       *****************************
                       * Geometry Optimization Run *
                       *****************************

Geometry optimization settings:
Update method            Update   .... BFGS
Choice of coordinates    CoordSys .... Z-matrix Internals
Initial Hessian          InHess   .... Almoef's Model

Convergence Tolerances:
Energy Change            TolE     ....  5.0000e-06 Eh
Max. Gradient            TolMAXG  ....  3.0000e-04 Eh/bohr
RMS Gradient             TolRMSG  ....  1.0000e-04 Eh/bohr
Max. Displacement        TolMAXD  ....  4.0000e-03 bohr
RMS Displacement         TolRMSD  ....  2.0000e-03 bohr
Strict Convergence                ....  False
------------------------------------------------------------------------------
                        ORCA OPTIMIZATION COORDINATE SETUP
------------------------------------------------------------------------------

The optimization will be done in new redundant internal coordinates
Making redundant internal coordinates   ...  (new redundants) done
Evaluating the initial hessian          ...  (Almloef) done
Evaluating the coordinates              ...  done
Calculating the B-matrix                .... done
Calculating the G-matrix                .... done
Diagonalizing the G-matrix              .... done
The first mode is                       ....    0
The number of degrees of freedom        ....    4

    -----------------------------------------------------------------
                    Redundant Internal Coordinates


    -----------------------------------------------------------------
         Definition                    Initial Value    Approx d2E/dq
    -----------------------------------------------------------------
      1. B(Ag  1,Ag  0)                  2.5925         0.771658   
      2. B(Ag  2,Ag  0)                  2.5925         0.771658   
      3. L(Ag  1,Ag  0,Ag  2, 2)       180.0000         0.718530   
      4. L(Ag  1,Ag  0,Ag  2, 1)       180.0000         0.718530   
    -----------------------------------------------------------------

Number of atoms                         .... 3
Number of degrees of freedom            .... 4

         *************************************************************
         *                GEOMETRY OPTIMIZATION CYCLE   1            *
         *************************************************************
---------------------------------
CARTESIAN COORDINATES (ANGSTROEM)
---------------------------------
  Ag     0.000000    0.000000    0.000000
  Ag     0.000000    0.000000    2.592532
  Ag     0.000000    0.000000   -2.592532

----------------------------
CARTESIAN COORDINATES (A.U.)
----------------------------
  NO LB      ZA    FRAG     MASS         X           Y           Z
   0 Ag   19.0000*   0   107.870    0.000000    0.000000    0.000000
   1 Ag   19.0000*   0   107.870    0.000000    0.000000    4.899175
   2 Ag   19.0000*   0   107.870    0.000000    0.000000   -4.899175
* core charge reduced due to ECP

--------------------------------
INTERNAL COORDINATES (ANGSTROEM)
--------------------------------
 Ag     0   0   0     0.000000000000     0.00000000     0.00000000
 Ag     1   0   0     2.592532000000     0.00000000     0.00000000
 Ag     1   2   0     2.592532000000   180.00000000     0.00000000

---------------------------
INTERNAL COORDINATES (A.U.)
---------------------------
 Ag     0   0   0     0.000000000000     0.00000000     0.00000000
 Ag     1   0   0     4.899175473427     0.00000000     0.00000000
 Ag     1   2   0     4.899175473427   180.00000000     0.00000000

---------------------
BASIS SET INFORMATION
---------------------
There are 1 groups of distinct atoms

 Group   1 Type Ag  : 7s7p6d2f1g contracted to 6s4p3d2f1g pattern {211111/4111/411/11/1}

Atom   0Ag   basis set group =>   1
Atom   1Ag   basis set group =>   1
Atom   2Ag   basis set group =>   1
----------------------------------
AUXILIARY/JK BASIS SET INFORMATION
----------------------------------
There are 1 groups of distinct atoms

 Group   1 Type Ag  : 13s12p10d9f6g3h2i contracted to 11s10p9d8f6g3h2i pattern {31111111111/3111111111/211111111/21111111/111111/111/11}

Atom   0Ag   basis set group =>   1
Atom   1Ag   basis set group =>   1
Atom   2Ag   basis set group =>   1
-------------------------
ECP PARAMETER INFORMATION
-------------------------

 Group 1, Type Ag ECP Def2-ECP (replacing 28 core electrons, lmax=3)

Atom   0Ag   ECP group =>   1
Atom   1Ag   ECP group =>   1
Atom   2Ag   ECP group =>   1



           ************************************************************
           *        Program running with 24 parallel MPI-processes    *
           *              working on a common directory               *
           ************************************************************
------------------------------------------------------------------------------
                           ORCA GTO INTEGRAL CALCULATION
------------------------------------------------------------------------------

                         BASIS SET STATISTICS AND STARTUP INFO

 # of primitive gaussian shells          ...   69
 # of primitive gaussian functions       ...  243
 # of contracted shells                  ...   48
 # of contracted basis functions         ...  168
 Highest angular momentum                ...    4
 Maximum contraction depth               ...    4
 Integral package used                   ... LIBINT
 Integral threshhold            Thresh   ...  2.500e-11
 Primitive cut-off              TCut     ...  2.500e-12


------------------------------ INTEGRAL EVALUATION ----------------------------


 * One electron integrals 

   ECP integrals                         ... done
 Pre-screening matrix                    ... done
 Shell pair data                         ... done (   0.000 sec)



           ************************************************************
           *        Program running with 24 parallel MPI-processes    *
           *              working on a common directory               *
           ************************************************************
-------------------------------------------------------------------------------
                                 ORCA SCF
-------------------------------------------------------------------------------

------------
SCF SETTINGS
------------
Hamiltonian:
 Density Functional     Method          .... DFT(GTOs)
 Exchange Functional    Exchange        .... TPSS
 Correlation Functional Correlation     .... TPSS
 LDA part of GGA corr.  LDAOpt          .... PW91-LDA
 Gradients option       PostSCFGGA      .... off
 Hybrid DFT is turned on
   Fraction HF Exchange ScalHFX         ....  0.100000
   Scaling of DF-GGA-X  ScalDFX         ....  0.900000
   Scaling of DF-GGA-C  ScalDFC         ....  1.000000
   Scaling of DF-LDA-C  ScalLDAC        ....  1.000000
   Perturbative correction              ....  0.000000
   Density functional embedding theory  .... OFF
   NL short-range parameter             ....  5.200000


General Settings:
 Integral files         IntName         .... Ag03N0_LIN
 Hartree-Fock type      HFTyp           .... UHF
 Total Charge           Charge          ....    0
 Multiplicity           Mult            ....    2
 Number of Electrons    NEL             ....   57
 Basis Dimension        Dim             ....  168
 Nuclear Repulsion      ENuc            ....    184.2146714065 Eh

Convergence Acceleration:
 DIIS                   CNVDIIS         .... on
   Start iteration      DIISMaxIt       ....    12
   Startup error        DIISStart       ....  0.200000
   # of expansion vecs  DIISMaxEq       ....     5
   Bias factor          DIISBfac        ....   1.050
   Max. coefficient     DIISMaxC        ....  10.000
 Newton-Raphson         CNVNR           .... off
 SOSCF                  CNVSOSCF        .... off
 Level Shifting         CNVShift        .... on
   Level shift para.    LevelShift      ....    0.2500
   Turn off err/grad.   ShiftErr        ....    0.0010
 Zerner damping         CNVZerner       .... off
 Static damping         CNVDamp         .... on
   Fraction old density DampFac         ....    0.7000
   Max. Damping (<1)    DampMax         ....    0.9800
   Min. Damping (>=0)   DampMin         ....    0.0000
   Turn off err/grad.   DampErr         ....    0.1000
 Fernandez-Rico         CNVRico         .... off

SCF Procedure:
 Maximum # iterations   MaxIter         ....   125
 SCF integral mode      SCFMode         .... Direct
   Integral package                     .... LIBINT
 Reset frequency        DirectResetFreq ....    20
 Integral Threshold     Thresh          ....  2.500e-11 Eh
 Primitive CutOff       TCut            ....  2.500e-12 Eh

Convergence Tolerance:
 Convergence Check Mode ConvCheckMode   .... Total+1el-Energy
 Convergence forced     ConvForced      .... 0
 Energy Change          TolE            ....  1.000e-08 Eh
 1-El. energy change                    ....  1.000e-05 Eh
 DIIS Error             TolErr          ....  5.000e-07


Diagonalization of the overlap matrix:
Smallest eigenvalue                        ... 1.205e-03
Time for diagonalization                   ...    0.021 sec
Threshold for overlap eigenvalues          ... 1.000e-08
Number of eigenvalues below threshold      ... 0
Time for construction of square roots      ...    0.002 sec
Total time needed                          ...    0.023 sec

-------------------
DFT GRID GENERATION
-------------------

General Integration Accuracy     IntAcc      ...  4.670
Radial Grid Type                 RadialGrid  ... Gauss-Chebyshev
Angular Grid (max. acc.)         AngularGrid ... Lebedev-302
Angular grid pruning method      GridPruning ... 3 (G Style)
Weight generation scheme         WeightScheme... Becke
Basis function cutoff            BFCut       ...    1.0000e-11
Integration weight cutoff        WCut        ...    1.0000e-14
Grids for H and He will be reduced by one unit

# of grid points (after initial pruning)     ...  31974 (   0.0 sec)
# of grid points (after weights+screening)   ...  31762 (   0.0 sec)
nearest neighbour list constructed           ...    0.0 sec
Grid point re-assignment to atoms done       ...    0.0 sec
Grid point division into batches done        ...    0.2 sec
Reduced shell lists constructed in    0.3 sec

Total number of grid points                  ...    31762
Total number of batches                      ...      498
Average number of points per batch           ...       63
Average number of grid points per atom       ...    10587
Average number of shells per batch           ...    12.50 (26.04%)
Average number of basis functions per batch  ...    31.41 (18.70%)
Average number of large shells per batch     ...    10.95 (87.64%)
Average number of large basis fcns per batch ...    26.86 (85.53%)
Maximum spatial batch extension              ...  36.77, 36.77,  4.81 au
Average spatial batch extension              ...   0.55,  0.56,  0.20 au

Time for grid setup =    0.302 sec

------------------------------
INITIAL GUESS: MODEL POTENTIAL
------------------------------
Loading Hartree-Fock densities                     ... done
  calling /sw/apps/orca/orca_4_2_0_linux_x86-64_openmpi314/orca Ag03N0_LIN_atom47.inp > Ag03N0_LIN_atom47.out in order to generate an atomic fitting density for atom 0 (Ag with ECP) on-the-fly... 
    atom 0 (Ag), assumed electronic state with S=2: 1s2 2s2 2p6 3s2 3p6 4s2 3d10 4p6 5s2 4d9           ... done
Calculating cut-offs                               ... done
Setting up the integral package                    ... done
Initializing the effective Hamiltonian             ... done
Starting the Coulomb interaction                   ... done (   0.0 sec)
Reading the grid                                   ... done
Mapping shells                                     ... done
Starting the XC term evaluation                    ... done (   0.0 sec)
  promolecular density results
     # of electrons  =    141.002175280
     EX              =   -430.283863742
     EC              =     -7.463897502
     EX+EC           =   -437.747761244
Transforming the Hamiltonian                       ... done (   0.0 sec)
Diagonalizing the Hamiltonian                      ... done (   0.0 sec)
Back transforming the eigenvectors                 ... done (   0.0 sec)
Now organizing SCF variables                       ... done
                      ------------------
                      INITIAL GUESS DONE (   1.9 sec)
                      ------------------
--------------
SCF ITERATIONS
--------------
ITER       Energy         Delta-E        Max-DP      RMS-DP      [F,P]     Damp
               ***  Starting incremental Fock matrix formation  ***
  0   -440.5112904007   0.000000000000 0.06462434  0.00157220  0.5111393 0.7000
  1   -440.6646479969  -0.153357596179 0.05105407  0.00095805  0.3307771 0.7000
  2   -440.7124853547  -0.047837357752 0.02872365  0.00039245  0.2175974 0.7000
                               ***Turning on DIIS***
  3   -440.7447924838  -0.032307129135 0.01466420  0.00016656  0.1490001 0.7000
  4   -440.7690270490  -0.024234565175 0.00907371  0.00012423  0.1044448 0.7000
  5   -440.7860892550  -0.017062205993 0.02199878  0.00033454  0.0734924 0.0000
  6   -440.8258400435  -0.039750788496 0.00707247  0.00008023  0.0009389 0.0000
  7   -440.8258625144  -0.000022470930 0.00082167  0.00001138  0.0015330 0.0000
  8   -440.8258719302  -0.000009415833 0.00195457  0.00001537  0.0001943 0.0000
  9   -440.8258738248  -0.000001894524 0.00069340  0.00000579  0.0001359 0.0000
 10   -440.8258741762  -0.000000351455 0.00031126  0.00000272  0.0000908 0.0000
 11   -440.8258742825  -0.000000106260 0.00014980  0.00000168  0.0000298 0.0000
 12   -440.8258743128  -0.000000030331 0.00017675  0.00000141  0.0000272 0.0000
 13   -440.8258743278  -0.000000015007 0.00005850  0.00000053  0.0000043 0.0000
                            ***DIIS convergence achieved***

               *****************************************************
               *                     SUCCESS                       *
               *           SCF CONVERGED AFTER  14 CYCLES          *
               *****************************************************


----------------
TOTAL SCF ENERGY
----------------

Total Energy       :         -440.82587433 Eh          -11995.48188 eV

Components:
Nuclear Repulsion  :          184.21467141 Eh            5012.73605 eV
Electronic Energy  :         -625.04054574 Eh          -17008.21793 eV
One Electron Energy:        -1151.74132158 Eh          -31340.47468 eV
Two Electron Energy:          526.70077584 Eh           14332.25675 eV

Virial components:
Potential Energy   :         -609.47667942 Eh          -16584.70360 eV
Kinetic Energy     :          168.65080509 Eh            4589.22172 eV
Virial Ratio       :            3.61383795


DFT components:
N(Alpha)           :       28.999979505679 electrons
N(Beta)            :       27.999978988244 electrons
N(Total)           :       56.999958493923 electrons
E(X)               :      -35.793387061045 Eh       
E(C)               :       -2.473118745445 Eh       
E(XC)              :      -38.266505806490 Eh       
DFET-embed. en.    :        0.000000000000 Eh       

---------------
SCF CONVERGENCE
---------------

  Last Energy change         ...   -1.4225e-09  Tolerance :   1.0000e-08
  Last MAX-Density change    ...    4.8673e-06  Tolerance :   1.0000e-07
  Last RMS-Density change    ...    4.8791e-08  Tolerance :   5.0000e-09
  Last DIIS Error            ...    4.6265e-07  Tolerance :   5.0000e-07

             **** THE GBW FILE WAS UPDATED (Ag03N0_LIN.gbw) ****
             **** DENSITY FILE WAS UPDATED (Ag03N0_LIN.scfp) ****
             **** ENERGY FILE WAS UPDATED (Ag03N0_LIN.en.tmp) ****
----------------------
UHF SPIN CONTAMINATION
----------------------

Warning: in a DFT calculation there is little theoretical justification to 
         calculate <S**2> as in Hartree-Fock theory. We will do it anyways
         but you should keep in mind that the values have only limited relevance

Expectation value of <S**2>     :     0.757833
Ideal value S*(S+1) for S=0.5   :     0.750000
Deviation                       :     0.007833

             **** THE GBW FILE WAS UPDATED (Ag03N0_LIN.gbw) ****
             **** DENSITY FILE WAS UPDATED (Ag03N0_LIN.scfp) ****
----------------
ORBITAL ENERGIES
----------------
                 SPIN UP ORBITALS
  NO   OCC          E(Eh)            E(eV) 
   0   1.0000      -3.667336       -99.7933 
   1   1.0000      -3.667329       -99.7931 
   2   1.0000      -3.655168       -99.4622 
   3   1.0000      -2.276155       -61.9373 
   4   1.0000      -2.275051       -61.9073 
   5   1.0000      -2.271327       -61.8060 
   6   1.0000      -2.271327       -61.8060 
   7   1.0000      -2.271320       -61.8058 
   8   1.0000      -2.271320       -61.8058 
   9   1.0000      -2.262404       -61.5631 
  10   1.0000      -2.258049       -61.4446 
  11   1.0000      -2.258049       -61.4446 
  12   1.0000      -0.346887        -9.4393 
  13   1.0000      -0.320633        -8.7249 
  14   1.0000      -0.320633        -8.7249 
  15   1.0000      -0.305857        -8.3228 
  16   1.0000      -0.302765        -8.2387 
  17   1.0000      -0.302765        -8.2387 
  18   1.0000      -0.298799        -8.1307 
  19   1.0000      -0.298796        -8.1306 
  20   1.0000      -0.297527        -8.0961 
  21   1.0000      -0.297524        -8.0960 
  22   1.0000      -0.278847        -7.5878 
  23   1.0000      -0.278843        -7.5877 
  24   1.0000      -0.267695        -7.2844 
  25   1.0000      -0.267695        -7.2844 
  26   1.0000      -0.261902        -7.1267 
  27   1.0000      -0.214364        -5.8332 
  28   1.0000      -0.181606        -4.9417 
  29   0.0000      -0.080417        -2.1883 
  30   0.0000      -0.037615        -1.0235 
  31   0.0000      -0.037615        -1.0235 
  32   0.0000      -0.014019        -0.3815 
  33   0.0000      -0.002838        -0.0772 
  34   0.0000      -0.002838        -0.0772 
  35   0.0000       0.063789         1.7358 
  36   0.0000       0.063789         1.7358 
  37   0.0000       0.072882         1.9832 
  38   0.0000       0.095036         2.5861 
  39   0.0000       0.095250         2.5919 
  40   0.0000       0.126662         3.4467 
  41   0.0000       0.166614         4.5338 
  42   0.0000       0.166614         4.5338 
  43   0.0000       0.174548         4.7497 
  44   0.0000       0.197673         5.3790 
  45   0.0000       0.197673         5.3790 
  46   0.0000       0.252493         6.8707 
  47   0.0000       0.252493         6.8707 
  48   0.0000       0.261443         7.1142 
  49   0.0000       0.287204         7.8152 
  50   0.0000       0.359304         9.7772 
  51   0.0000       0.359305         9.7772 
  52   0.0000       0.392396        10.6776 
  53   0.0000       0.392396        10.6776 
  54   0.0000       0.400670        10.9028 
  55   0.0000       0.400670        10.9028 
  56   0.0000       0.434610        11.8263 
  57   0.0000       0.490251        13.3404 
  58   0.0000       0.490254        13.3405 
  59   0.0000       0.497884        13.5481 
  60   0.0000       0.497884        13.5481 
  61   0.0000       0.602595        16.3974 
  62   0.0000       0.679252        18.4834 
  63   0.0000       0.683175        18.5901 
  64   0.0000       0.683175        18.5901 
  65   0.0000       0.750273        20.4160 
  66   0.0000       1.420905        38.6648 
  67   0.0000       1.519169        41.3387 
  68   0.0000       1.519169        41.3387 
  69   0.0000       1.566369        42.6231 
  70   0.0000       1.566371        42.6231 
  71   0.0000       1.577227        42.9185 
  72   0.0000       1.577227        42.9185 
  73   0.0000       1.577290        42.9202 
  74   0.0000       1.577290        42.9202 
  75   0.0000       1.578095        42.9422 
  76   0.0000       1.578098        42.9422 
  77   0.0000       1.588530        43.2261 
  78   0.0000       1.588805        43.2336 
  79   0.0000       1.588805        43.2336 
  80   0.0000       1.595062        43.4038 
  81   0.0000       1.595062        43.4038 
  82   0.0000       1.597888        43.4807 
  83   0.0000       1.597888        43.4807 
  84   0.0000       1.604559        43.6623 
  85   0.0000       1.604561        43.6623 
  86   0.0000       1.619034        44.0562 
  87   0.0000       1.619034        44.0562 
  88   0.0000       1.653345        44.9898 
  89   0.0000       1.663827        45.2750 
  90   0.0000       1.666211        45.3399 
  91   0.0000       1.666211        45.3399 
  92   0.0000       1.735837        47.2345 
  93   0.0000       1.735837        47.2345 
  94   0.0000       1.749062        47.5944 
  95   0.0000       1.866226        50.7826 
  96   0.0000       1.925620        52.3988 
  97   0.0000       2.015600        54.8473 
  98   0.0000       2.015615        54.8477 
  99   0.0000       2.026818        55.1525 
 100   0.0000       2.026832        55.1529 
 101   0.0000       2.042998        55.5928 
 102   0.0000       2.042998        55.5928 
 103   0.0000       2.075654        56.4814 
 104   0.0000       2.075667        56.4818 
 105   0.0000       2.096303        57.0433 
 106   0.0000       2.096303        57.0433 
 107   0.0000       2.136590        58.1396 
 108   0.0000       2.163713        58.8776 
 109   0.0000       2.196760        59.7769 
 110   0.0000       2.196760        59.7769 
 111   0.0000       2.327323        63.3297 
 112   0.0000       2.346658        63.8558 
 113   0.0000       2.673928        72.7613 
 114   0.0000       4.739414       128.9660 
 115   0.0000       4.751590       129.2973 
 116   0.0000       4.751590       129.2973 
 117   0.0000       4.793403       130.4351 
 118   0.0000       4.793798       130.4459 
 119   0.0000       4.802714       130.6885 
 120   0.0000       4.802714       130.6885 
 121   0.0000       4.802771       130.6901 
 122   0.0000       4.802771       130.6901 
 123   0.0000       4.804317       130.7321 
 124   0.0000       4.804671       130.7417 
 125   0.0000       4.817698       131.0962 
 126   0.0000       4.817698       131.0962 
 127   0.0000       4.825416       131.3062 
 128   0.0000       4.825910       131.3197 
 129   0.0000       4.845711       131.8585 
 130   0.0000       4.845711       131.8585 
 131   0.0000       4.906723       133.5187 
 132   0.0000       4.906723       133.5187 
 133   0.0000       4.970072       135.2425 
 134   0.0000       5.125822       139.4807 
 135   0.0000       5.563775       151.3980 
 136   0.0000       5.563775       151.3980 
 137   0.0000       5.564250       151.4109 
 138   0.0000       5.564330       151.4131 
 139   0.0000       5.564492       151.4175 
 140   0.0000       5.564492       151.4175 
 141   0.0000       5.564606       151.4206 
 142   0.0000       5.564685       151.4228 
 143   0.0000       5.565899       151.4558 
 144   0.0000       5.565899       151.4558 
 145   0.0000       5.565901       151.4559 
 146   0.0000       5.565901       151.4559 
 147   0.0000       5.566934       151.4840 
 148   0.0000       5.567161       151.4901 
 149   0.0000       5.567208       151.4914 
 150   0.0000       5.567870       151.5094 
 151   0.0000       5.567870       151.5094 
 152   0.0000       5.569148       151.5442 
 153   0.0000       5.579135       151.8160 
 154   0.0000       5.579263       151.8195 
 155   0.0000       5.581087       151.8691 
 156   0.0000       5.581087       151.8691 
 157   0.0000       5.581576       151.8824 
 158   0.0000       5.581576       151.8824 
 159   0.0000       5.583816       151.9434 
 160   0.0000       5.584813       151.9705 
 161   0.0000       5.600211       152.3895 
 162   0.0000      33.290697       905.8859 
 163   0.0000      33.439966       909.9477 
 164   0.0000      33.831104       920.5911 
 165   0.0000     110.740027      3013.3893 
 166   0.0000     110.786425      3014.6519 
 167   0.0000     110.918403      3018.2432 

                 SPIN DOWN ORBITALS
  NO   OCC          E(Eh)            E(eV) 
   0   1.0000      -3.667333       -99.7932 
   1   1.0000      -3.667325       -99.7930 
   2   1.0000      -3.655328       -99.4665 
   3   1.0000      -2.275805       -61.9278 
   4   1.0000      -2.274705       -61.8979 
   5   1.0000      -2.271597       -61.8133 
   6   1.0000      -2.271597       -61.8133 
   7   1.0000      -2.271587       -61.8130 
   8   1.0000      -2.271587       -61.8130 
   9   1.0000      -2.262285       -61.5599 
  10   1.0000      -2.258388       -61.4539 
  11   1.0000      -2.258388       -61.4539 
  12   1.0000      -0.343221        -9.3395 
  13   1.0000      -0.317341        -8.6353 
  14   1.0000      -0.317341        -8.6353 
  15   1.0000      -0.302301        -8.2260 
  16   1.0000      -0.298701        -8.1281 
  17   1.0000      -0.298701        -8.1281 
  18   1.0000      -0.294638        -8.0175 
  19   1.0000      -0.294634        -8.0174 
  20   1.0000      -0.293057        -7.9745 
  21   1.0000      -0.293053        -7.9744 
  22   1.0000      -0.279122        -7.5953 
  23   1.0000      -0.279117        -7.5952 
  24   1.0000      -0.266682        -7.2568 
  25   1.0000      -0.266682        -7.2568 
  26   1.0000      -0.258488        -7.0338 
  27   1.0000      -0.200353        -5.4519 
  28   0.0000      -0.144776        -3.9395 
  29   0.0000      -0.067083        -1.8254 
  30   0.0000      -0.028095        -0.7645 
  31   0.0000      -0.028095        -0.7645 
  32   0.0000      -0.000510        -0.0139 
  33   0.0000       0.011019         0.2998 
  34   0.0000       0.011019         0.2998 
  35   0.0000       0.069379         1.8879 
  36   0.0000       0.069379         1.8879 
  37   0.0000       0.082913         2.2562 
  38   0.0000       0.101044         2.7496 
  39   0.0000       0.103928         2.8280 
  40   0.0000       0.141256         3.8438 
  41   0.0000       0.177114         4.8195 
  42   0.0000       0.177114         4.8195 
  43   0.0000       0.181907         4.9499 
  44   0.0000       0.214587         5.8392 
  45   0.0000       0.214587         5.8392 
  46   0.0000       0.260464         7.0876 
  47   0.0000       0.260464         7.0876 
  48   0.0000       0.268142         7.2965 
  49   0.0000       0.299805         8.1581 
  50   0.0000       0.367987        10.0134 
  51   0.0000       0.367988        10.0135 
  52   0.0000       0.404228        10.9996 
  53   0.0000       0.404228        10.9996 
  54   0.0000       0.416286        11.3277 
  55   0.0000       0.416286        11.3277 
  56   0.0000       0.445690        12.1278 
  57   0.0000       0.496384        13.5073 
  58   0.0000       0.496386        13.5074 
  59   0.0000       0.510947        13.9036 
  60   0.0000       0.510947        13.9036 
  61   0.0000       0.614598        16.7241 
  62   0.0000       0.688379        18.7318 
  63   0.0000       0.691181        18.8080 
  64   0.0000       0.691181        18.8080 
  65   0.0000       0.755685        20.5632 
  66   0.0000       1.424694        38.7679 
  67   0.0000       1.522690        41.4345 
  68   0.0000       1.522690        41.4345 
  69   0.0000       1.570108        42.7248 
  70   0.0000       1.570108        42.7248 
  71   0.0000       1.582705        43.0676 
  72   0.0000       1.582705        43.0676 
  73   0.0000       1.582792        43.0700 
  74   0.0000       1.582792        43.0700 
  75   0.0000       1.582906        43.0730 
  76   0.0000       1.582906        43.0731 
  77   0.0000       1.591148        43.2973 
  78   0.0000       1.594165        43.3794 
  79   0.0000       1.594165        43.3794 
  80   0.0000       1.597285        43.4643 
  81   0.0000       1.597285        43.4643 
  82   0.0000       1.601520        43.5796 
  83   0.0000       1.601520        43.5796 
  84   0.0000       1.605521        43.6884 
  85   0.0000       1.605523        43.6885 
  86   0.0000       1.619685        44.0739 
  87   0.0000       1.619685        44.0739 
  88   0.0000       1.658608        45.1330 
  89   0.0000       1.669467        45.4285 
  90   0.0000       1.671953        45.4961 
  91   0.0000       1.671953        45.4961 
  92   0.0000       1.737360        47.2760 
  93   0.0000       1.737360        47.2760 
  94   0.0000       1.752101        47.6771 
  95   0.0000       1.871176        50.9173 
  96   0.0000       1.928461        52.4761 
  97   0.0000       2.019487        54.9530 
  98   0.0000       2.019498        54.9533 
  99   0.0000       2.032854        55.3168 
 100   0.0000       2.032863        55.3170 
 101   0.0000       2.048107        55.7318 
 102   0.0000       2.048108        55.7318 
 103   0.0000       2.077133        56.5217 
 104   0.0000       2.077144        56.5220 
 105   0.0000       2.101824        57.1936 
 106   0.0000       2.101824        57.1936 
 107   0.0000       2.141860        58.2830 
 108   0.0000       2.168078        58.9964 
 109   0.0000       2.198430        59.8223 
 110   0.0000       2.198430        59.8223 
 111   0.0000       2.333232        63.4905 
 112   0.0000       2.349793        63.9411 
 113   0.0000       2.676326        72.8265 
 114   0.0000       4.740848       129.0050 
 115   0.0000       4.753059       129.3373 
 116   0.0000       4.753059       129.3373 
 117   0.0000       4.794830       130.4740 
 118   0.0000       4.795232       130.4849 
 119   0.0000       4.804350       130.7330 
 120   0.0000       4.804350       130.7330 
 121   0.0000       4.804417       130.7348 
 122   0.0000       4.804417       130.7348 
 123   0.0000       4.806221       130.7839 
 124   0.0000       4.806579       130.7937 
 125   0.0000       4.817195       131.0825 
 126   0.0000       4.817195       131.0825 
 127   0.0000       4.825725       131.3147 
 128   0.0000       4.826216       131.3280 
 129   0.0000       4.847645       131.9111 
 130   0.0000       4.847645       131.9111 
 131   0.0000       4.907755       133.5468 
 132   0.0000       4.907755       133.5468 
 133   0.0000       4.971844       135.2908 
 134   0.0000       5.126908       139.5103 
 135   0.0000       5.564246       151.4108 
 136   0.0000       5.564246       151.4108 
 137   0.0000       5.564791       151.4257 
 138   0.0000       5.564873       151.4279 
 139   0.0000       5.564936       151.4296 
 140   0.0000       5.564936       151.4296 
 141   0.0000       5.565145       151.4353 
 142   0.0000       5.565227       151.4375 
 143   0.0000       5.566568       151.4740 
 144   0.0000       5.566568       151.4740 
 145   0.0000       5.566569       151.4740 
 146   0.0000       5.566569       151.4740 
 147   0.0000       5.567358       151.4955 
 148   0.0000       5.568054       151.5145 
 149   0.0000       5.568076       151.5150 
 150   0.0000       5.568761       151.5337 
 151   0.0000       5.568761       151.5337 
 152   0.0000       5.569600       151.5565 
 153   0.0000       5.578836       151.8079 
 154   0.0000       5.578963       151.8113 
 155   0.0000       5.580914       151.8644 
 156   0.0000       5.580914       151.8644 
 157   0.0000       5.581222       151.8728 
 158   0.0000       5.581222       151.8728 
 159   0.0000       5.583563       151.9365 
 160   0.0000       5.584560       151.9636 
 161   0.0000       5.600180       152.3887 
 162   0.0000      33.290603       905.8834 
 163   0.0000      33.439855       909.9447 
 164   0.0000      33.831022       920.5889 
 165   0.0000     110.740085      3013.3909 
 166   0.0000     110.786509      3014.6542 
 167   0.0000     110.918314      3018.2408 

                    ********************************
                    * MULLIKEN POPULATION ANALYSIS *
                    ********************************

--------------------------------------------
MULLIKEN ATOMIC CHARGES AND SPIN POPULATIONS
--------------------------------------------
   0 Ag:   -0.034467   -0.100795
   1 Ag:    0.017234    0.550398
   2 Ag:    0.017232    0.550397
Sum of atomic charges         :    0.0000000
Sum of atomic spin populations:    1.0000000

-----------------------------------------------------
MULLIKEN REDUCED ORBITAL CHARGES AND SPIN POPULATIONS
-----------------------------------------------------
CHARGE
  0 Ags       :     3.053373  s :     3.053373
      pz      :     2.009986  p :     6.040332
      px      :     2.015173
      py      :     2.015173
      dz2     :     1.972293  d :     9.938463
      dxz     :     1.983270
      dyz     :     1.983270
      dx2y2   :     1.999815
      dxy     :     1.999815
      f0      :     0.001127  f :     0.002269
      f+1     :     0.000531
      f-1     :     0.000531
      f+2     :     0.000040
      f-2     :     0.000040
      f+3     :     0.000000
      f-3     :     0.000000
      g0      :     0.000014  g :     0.000030
      g+1     :     0.000007
      g-1     :     0.000007
      g+2     :     0.000001
      g-2     :     0.000001
      g+3     :     0.000000
      g-3     :     0.000000
      g+4     :     0.000000
      g-4     :     0.000000
  1 Ags       :     2.999291  s :     2.999291
      pz      :     2.016731  p :     6.033070
      px      :     2.008170
      py      :     2.008170
      dz2     :     1.965031  d :     9.949183
      dxz     :     1.992042
      dyz     :     1.992042
      dx2y2   :     2.000035
      dxy     :     2.000035
      f0      :     0.000543  f :     0.001207
      f+1     :     0.000295
      f-1     :     0.000295
      f+2     :     0.000037
      f-2     :     0.000037
      f+3     :     0.000000
      f-3     :     0.000000
      g0      :     0.000007  g :     0.000015
      g+1     :     0.000004
      g-1     :     0.000004
      g+2     :     0.000000
      g-2     :     0.000000
      g+3     :     0.000000
      g-3     :     0.000000
      g+4     :     0.000000
      g-4     :     0.000000
  2 Ags       :     2.999292  s :     2.999292
      pz      :     2.016732  p :     6.033071
      px      :     2.008170
      py      :     2.008170
      dz2     :     1.965031  d :     9.949183
      dxz     :     1.992042
      dyz     :     1.992042
      dx2y2   :     2.000035
      dxy     :     2.000035
      f0      :     0.000543  f :     0.001207
      f+1     :     0.000295
      f-1     :     0.000295
      f+2     :     0.000037
      f-2     :     0.000037
      f+3     :     0.000000
      f-3     :     0.000000
      g0      :     0.000007  g :     0.000015
      g+1     :     0.000004
      g-1     :     0.000004
      g+2     :     0.000000
      g-2     :     0.000000
      g+3     :     0.000000
      g-3     :     0.000000
      g+4     :     0.000000
      g-4     :     0.000000

SPIN
  0 Ags       :    -0.094101  s :    -0.094101
      pz      :    -0.000494  p :    -0.000267
      px      :     0.000114
      py      :     0.000114
      dz2     :    -0.000986  d :    -0.006468
      dxz     :    -0.002684
      dyz     :    -0.002684
      dx2y2   :    -0.000057
      dxy     :    -0.000057
      f0      :     0.000031  f :     0.000041
      f+1     :     0.000004
      f-1     :     0.000004
      f+2     :     0.000001
      f-2     :     0.000001
      f+3     :    -0.000000
      f-3     :    -0.000000
      g0      :    -0.000000  g :     0.000000
      g+1     :     0.000000
      g-1     :     0.000000
      g+2     :     0.000000
      g-2     :     0.000000
      g+3     :    -0.000000
      g-3     :    -0.000000
      g+4     :    -0.000000
      g-4     :     0.000000
  1 Ags       :     0.549851  s :     0.549851
      pz      :    -0.002949  p :    -0.000954
      px      :     0.000997
      py      :     0.000997
      dz2     :     0.000870  d :     0.001485
      dxz     :     0.000280
      dyz     :     0.000280
      dx2y2   :     0.000028
      dxy     :     0.000028
      f0      :     0.000004  f :     0.000016
      f+1     :     0.000006
      f-1     :     0.000006
      f+2     :     0.000001
      f-2     :     0.000001
      f+3     :     0.000000
      f-3     :     0.000000
      g0      :    -0.000000  g :    -0.000000
      g+1     :    -0.000000
      g-1     :    -0.000000
      g+2     :    -0.000000
      g-2     :    -0.000000
      g+3     :    -0.000000
      g-3     :    -0.000000
      g+4     :     0.000000
      g-4     :     0.000000
  2 Ags       :     0.549850  s :     0.549850
      pz      :    -0.002949  p :    -0.000955
      px      :     0.000997
      py      :     0.000997
      dz2     :     0.000870  d :     0.001485
      dxz     :     0.000280
      dyz     :     0.000280
      dx2y2   :     0.000028
      dxy     :     0.000028
      f0      :     0.000004  f :     0.000016
      f+1     :     0.000006
      f-1     :     0.000006
      f+2     :     0.000001
      f-2     :     0.000001
      f+3     :     0.000000
      f-3     :     0.000000
      g0      :    -0.000000  g :    -0.000000
      g+1     :    -0.000000
      g-1     :    -0.000000
      g+2     :    -0.000000
      g-2     :    -0.000000
      g+3     :    -0.000000
      g-3     :    -0.000000
      g+4     :     0.000000
      g-4     :    -0.000000


                     *******************************
                     * LOEWDIN POPULATION ANALYSIS *
                     *******************************

-------------------------------------------
LOEWDIN ATOMIC CHARGES AND SPIN POPULATIONS
-------------------------------------------
   0 Ag:   -0.183118    0.294624
   1 Ag:    0.091559    0.352688
   2 Ag:    0.091559    0.352688

----------------------------------------------------
LOEWDIN REDUCED ORBITAL CHARGES AND SPIN POPULATIONS
----------------------------------------------------
CHARGE
  0 Ags       :     2.828301  s :     2.828301
      pz      :     2.369549  p :     6.403551
      px      :     2.017001
      py      :     2.017001
      dz2     :     1.991574  d :     9.947806
      dxz     :     1.978287
      dyz     :     1.978287
      dx2y2   :     1.999829
      dxy     :     1.999829
      f0      :     0.001898  f :     0.003423
      f+1     :     0.000713
      f-1     :     0.000713
      f+2     :     0.000050
      f-2     :     0.000050
      f+3     :     0.000000
      f-3     :     0.000000
      g0      :     0.000016  g :     0.000037
      g+1     :     0.000009
      g-1     :     0.000009
      g+2     :     0.000001
      g-2     :     0.000001
      g+3     :     0.000000
      g-3     :     0.000000
      g+4     :     0.000000
      g-4     :     0.000000
  1 Ags       :     2.825989  s :     2.825989
      pz      :     2.091541  p :     6.113238
      px      :     2.010848
      py      :     2.010848
      dz2     :     1.986055  d :     9.967516
      dxz     :     1.990714
      dyz     :     1.990714
      dx2y2   :     2.000017
      dxy     :     2.000017
      f0      :     0.000738  f :     0.001679
      f+1     :     0.000428
      f-1     :     0.000428
      f+2     :     0.000043
      f-2     :     0.000043
      f+3     :     0.000000
      f-3     :     0.000000
      g0      :     0.000009  g :     0.000019
      g+1     :     0.000005
      g-1     :     0.000005
      g+2     :     0.000001
      g-2     :     0.000001
      g+3     :     0.000000
      g-3     :     0.000000
      g+4     :     0.000000
      g-4     :     0.000000
  2 Ags       :     2.825989  s :     2.825989
      pz      :     2.091541  p :     6.113238
      px      :     2.010848
      py      :     2.010848
      dz2     :     1.986055  d :     9.967516
      dxz     :     1.990714
      dyz     :     1.990714
      dx2y2   :     2.000017
      dxy     :     2.000017
      f0      :     0.000738  f :     0.001679
      f+1     :     0.000428
      f-1     :     0.000428
      f+2     :     0.000043
      f-2     :     0.000043
      f+3     :     0.000000
      f-3     :     0.000000
      g0      :     0.000009  g :     0.000019
      g+1     :     0.000005
      g-1     :     0.000005
      g+2     :     0.000001
      g-2     :     0.000001
      g+3     :     0.000000
      g-3     :     0.000000
      g+4     :     0.000000
      g-4     :     0.000000

SPIN
  0 Ags       :    -0.039030  s :    -0.039030
      pz      :     0.332421  p :     0.333343
      px      :     0.000461
      py      :     0.000461
      dz2     :     0.003316  d :    -0.000045
      dxz     :    -0.001689
      dyz     :    -0.001689
      dx2y2   :     0.000009
      dxy     :     0.000009
      f0      :     0.000307  f :     0.000356
      f+1     :     0.000022
      f-1     :     0.000022
      f+2     :     0.000002
      f-2     :     0.000002
      f+3     :    -0.000000
      f-3     :    -0.000000
      g0      :    -0.000000  g :     0.000001
      g+1     :     0.000000
      g-1     :     0.000000
      g+2     :     0.000000
      g-2     :     0.000000
      g+3     :    -0.000000
      g-3     :    -0.000000
      g+4     :    -0.000000
      g-4     :     0.000000
  1 Ags       :     0.356608  s :     0.356608
      pz      :    -0.005362  p :    -0.003583
      px      :     0.000890
      py      :     0.000890
      dz2     :     0.000270  d :    -0.000325
      dxz     :    -0.000291
      dyz     :    -0.000291
      dx2y2   :    -0.000006
      dxy     :    -0.000006
      f0      :    -0.000023  f :    -0.000012
      f+1     :     0.000005
      f-1     :     0.000005
      f+2     :     0.000000
      f-2     :     0.000000
      f+3     :     0.000000
      f-3     :     0.000000
      g0      :    -0.000000  g :    -0.000000
      g+1     :    -0.000000
      g-1     :    -0.000000
      g+2     :    -0.000000
      g-2     :    -0.000000
      g+3     :    -0.000000
      g-3     :    -0.000000
      g+4     :     0.000000
      g-4     :     0.000000
  2 Ags       :     0.356608  s :     0.356608
      pz      :    -0.005362  p :    -0.003583
      px      :     0.000890
      py      :     0.000890
      dz2     :     0.000270  d :    -0.000325
      dxz     :    -0.000291
      dyz     :    -0.000291
      dx2y2   :    -0.000006
      dxy     :    -0.000006
      f0      :    -0.000023  f :    -0.000012
      f+1     :     0.000005
      f-1     :     0.000005
      f+2     :     0.000000
      f-2     :     0.000000
      f+3     :     0.000000
      f-3     :     0.000000
      g0      :    -0.000000  g :    -0.000000
      g+1     :    -0.000000
      g-1     :    -0.000000
      g+2     :    -0.000000
      g-2     :    -0.000000
      g+3     :    -0.000000
      g-3     :    -0.000000
      g+4     :     0.000000
      g-4     :    -0.000000


                      *****************************
                      * MAYER POPULATION ANALYSIS *
                      *****************************

  NA   - Mulliken gross atomic population
  ZA   - Total nuclear charge
  QA   - Mulliken gross atomic charge
  VA   - Mayer's total valence
  BVA  - Mayer's bonded valence
  FA   - Mayer's free valence

  ATOM       NA         ZA         QA         VA         BVA        FA
  0 Ag    19.0345    19.0000    -0.0345     1.1786     1.1698     0.0088
  1 Ag    18.9828    19.0000     0.0172     1.0969     0.7913     0.3056
  2 Ag    18.9828    19.0000     0.0172     1.0969     0.7913     0.3056

  Mayer bond orders larger than 0.100000
B(  0-Ag,  1-Ag) :   0.5849 B(  0-Ag,  2-Ag) :   0.5849 B(  1-Ag,  2-Ag) :   0.2064 


-------
TIMINGS
-------

Total SCF time: 0 days 0 hours 0 min 6 sec 

Total time                  ....       6.811 sec
Sum of individual times     ....       6.562 sec  ( 96.4%)

Fock matrix formation       ....       4.453 sec  ( 65.4%)
  XC integration            ....       0.934 sec  ( 21.0% of F)
    Basis function eval.    ....       0.050 sec  (  5.3% of XC)
    Density eval.           ....       0.115 sec  ( 12.3% of XC)
    XC-Functional eval.     ....       0.039 sec  (  4.2% of XC)
    XC-Potential eval.      ....       0.251 sec  ( 26.9% of XC)
Diagonalization             ....       0.101 sec  (  1.5%)
Density matrix formation    ....       0.018 sec  (  0.3%)
Population analysis         ....       0.009 sec  (  0.1%)
Initial guess               ....       1.646 sec  ( 24.2%)
Orbital Transformation      ....       0.000 sec  (  0.0%)
Orbital Orthonormalization  ....       0.000 sec  (  0.0%)
DIIS solution               ....       0.034 sec  (  0.5%)
Grid generation             ....       0.302 sec  (  4.4%)


-------------------------------------------------------------------------------
                          DFT DISPERSION CORRECTION                            
                                                                               
                              DFTD3 V3.1  Rev 1                                
                          USING Becke-Johnson damping                          
-------------------------------------------------------------------------------
The TPSSH functional is recognized
Active option DFTDOPT                   ...         4   

molecular C6(AA) [au] = 2437.942597 


            DFT-D V3
 parameters
 s6 scaling factor         :     1.0000 
 a1 scaling factor         :     0.4529 
 s8 scaling factor         :     2.2382 
 a2 scaling factor         :     4.6550 
 ad hoc parameters k1-k3   :    16.0000     1.3333    -4.0000 

 Edisp/kcal,au: -2.710685971973  -0.004319752601 
 E6   /kcal   :  -0.776363210 
 E8   /kcal   :  -1.934322762 
 % E8         :  71.359160823 

-------------------------   ----------------
Dispersion correction           -0.004319753
-------------------------   ----------------


-------------------------   --------------------
FINAL SINGLE POINT ENERGY      -440.830194081840
-------------------------   --------------------



           ************************************************************
           *        Program running with 24 parallel MPI-processes    *
           *              working on a common directory               *
           ************************************************************
------------------------------------------------------------------------------
                         ORCA SCF GRADIENT CALCULATION
------------------------------------------------------------------------------

Gradient of the Kohn-Sham DFT energy:
Kohn-Sham wavefunction type      ... UKS
Hartree-Fock exchange scaling    ...    0.100
Number of operators              ...    2
Number of atoms                  ...    3
Basis set dimensions             ...  168
Integral neglect threshold       ... 2.5e-11
Integral primitive cutoff        ... 2.5e-12

Nuclear repulsion gradient       ... done
One Electron Gradient            
  ECP gradient                   ... done
Pre-screening matrix             ... done
Starting the two electron gradient:
Two electron gradient done
Exchange-correlation gradient    ... done
Dispersion correction            ... done

------------------
CARTESIAN GRADIENT
------------------

   1   Ag  :   -0.000000001    0.000000003    0.000000029
   2   Ag  :   -0.000000004   -0.000000005   -0.002940862
   3   Ag  :    0.000000003   -0.000000005    0.002940871

Difference to translation invariance:
           :   -0.0000000021   -0.0000000067    0.0000000378

Norm of the cartesian gradient     ...    0.0041590135
RMS gradient                       ...    0.0013863378
MAX gradient                       ...    0.0029408713

-------
TIMINGS
-------

Total SCF gradient time            ...        2.728 sec

One electron gradient       ....       0.777 sec  ( 28.5%)
Prescreening matrices       ....       0.005 sec  (  0.2%)
Two electron gradient       ....       1.698 sec  ( 62.2%)
XC gradient                 ....       0.050 sec  (  1.8%)
------------------------------------------------------------------------------
                         ORCA GEOMETRY RELAXATION STEP
------------------------------------------------------------------------------

Reading the OPT-File                    .... done
Getting information on internals        .... done
Copying old internal coords+grads       .... done
Making the new internal coordinates     .... (new redundants).... done
Validating the new internal coordinates .... (new redundants).... done
Calculating the B-matrix                .... done
Calculating the G,G- and P matrices     .... done
Transforming gradient to internals      .... done
Projecting the internal gradient        .... done
Number of atoms                         ....   3
Number of internal coordinates          ....   4
Current Energy                          ....  -440.830194082 Eh
Current gradient norm                   ....     0.004159014 Eh/bohr
Maximum allowed component of the step   ....  0.300
Current trust radius                    ....  0.300
Evaluating the initial hessian          ....  (Almloef) done
Projecting the Hessian                  .... done
Forming the augmented Hessian           .... done
Diagonalizing the augmented Hessian     .... done
Last element of RFO vector              ....  0.999985477
Lowest eigenvalues of augmented Hessian:
 -0.000022415  0.718530474  0.718530474  0.771658383
Length of the computed step             ....  0.005389552
The final length of the internal step   ....  0.005389552
Converting the step to cartesian space:
 Initial RMS(Int)=    0.0026947758
Transforming coordinates:
 Iter   0:  RMS(Cart)=    0.0017965172 RMS(Int)=    0.0026947758
 Iter   1:  RMS(Cart)=    0.0000000005 RMS(Int)=    0.0000000211
done
Storing new coordinates                 .... done

                                .--------------------.
          ----------------------|Geometry convergence|-------------------------
          Item                value                   Tolerance       Converged
          ---------------------------------------------------------------------
          RMS gradient        0.0020795068            0.0001000000      NO
          MAX gradient        0.0029408746            0.0003000000      NO
          RMS step            0.0026947758            0.0020000000      NO
          MAX step            0.0038109989            0.0040000000      YES
          ........................................................
          Max(Bonds)      0.0020      Max(Angles)    0.00
          Max(Dihed)        0.00      Max(Improp)    0.00
          ---------------------------------------------------------------------

The optimization has not yet converged - more geometry cycles are needed


    ---------------------------------------------------------------------------
                         Redundant Internal Coordinates
                            (Angstroem and degrees)

        Definition                    Value    dE/dq     Step     New-Value
    ----------------------------------------------------------------------------
     1. B(Ag  1,Ag  0)                2.5925 -0.002941  0.0020    2.5945   
     2. B(Ag  2,Ag  0)                2.5925 -0.002941  0.0020    2.5945   
     3. L(Ag  1,Ag  0,Ag  2, 2)       180.00  0.000000   -0.00    180.00   
     4. L(Ag  1,Ag  0,Ag  2, 1)       180.00  0.000000   -0.00    180.00   
    ----------------------------------------------------------------------------

         *************************************************************
         *                GEOMETRY OPTIMIZATION CYCLE   2            *
         *************************************************************
---------------------------------
CARTESIAN COORDINATES (ANGSTROEM)
---------------------------------
  Ag     0.000000   -0.000000   -0.000000
  Ag    -0.000000    0.000000    2.594549
  Ag    -0.000000    0.000000   -2.594549

----------------------------
CARTESIAN COORDINATES (A.U.)
----------------------------
  NO LB      ZA    FRAG     MASS         X           Y           Z
   0 Ag   19.0000*   0   107.870    0.000000   -0.000000   -0.000000
   1 Ag   19.0000*   0   107.870   -0.000000    0.000000    4.902986
   2 Ag   19.0000*   0   107.870   -0.000000    0.000000   -4.902986
* core charge reduced due to ECP

--------------------------------
INTERNAL COORDINATES (ANGSTROEM)
--------------------------------
 Ag     0   0   0     0.000000000000     0.00000000     0.00000000
 Ag     1   0   0     2.594548693743     0.00000000     0.00000000
 Ag     1   2   0     2.594548682789   179.99999852     0.00000000

---------------------------
INTERNAL COORDINATES (A.U.)
---------------------------
 Ag     0   0   0     0.000000000000     0.00000000     0.00000000
 Ag     1   0   0     4.902986472297     0.00000000     0.00000000
 Ag     1   2   0     4.902986451597   179.99999852     0.00000000



           ************************************************************
           *        Program running with 24 parallel MPI-processes    *
           *              working on a common directory               *
           ************************************************************


           ************************************************************
           *        Program running with 24 parallel MPI-processes    *
           *              working on a common directory               *
           ************************************************************

Diagonalization of the overlap matrix:
Smallest eigenvalue                        ... 1.211e-03
Time for diagonalization                   ...    0.007 sec
Threshold for overlap eigenvalues          ... 1.000e-08
Number of eigenvalues below threshold      ... 0
Time for construction of square roots      ...    0.003 sec
Total time needed                          ...    0.010 sec

-------------------
DFT GRID GENERATION
-------------------

General Integration Accuracy     IntAcc      ...  4.670
Radial Grid Type                 RadialGrid  ... Gauss-Chebyshev
Angular Grid (max. acc.)         AngularGrid ... Lebedev-302
Angular grid pruning method      GridPruning ... 3 (G Style)
Weight generation scheme         WeightScheme... Becke
Basis function cutoff            BFCut       ...    1.0000e-11
Integration weight cutoff        WCut        ...    1.0000e-14
Grids for H and He will be reduced by one unit

# of grid points (after initial pruning)     ...  31974 (   0.0 sec)
# of grid points (after weights+screening)   ...  31762 (   0.0 sec)
nearest neighbour list constructed           ...    0.0 sec
Grid point re-assignment to atoms done       ...    0.0 sec
Grid point division into batches done        ...    0.2 sec
Reduced shell lists constructed in    0.3 sec

Total number of grid points                  ...    31762
Total number of batches                      ...      498
Average number of points per batch           ...       63
Average number of grid points per atom       ...    10587
Average number of shells per batch           ...    12.50 (26.04%)
Average number of basis functions per batch  ...    31.41 (18.70%)
Average number of large shells per batch     ...    10.95 (87.64%)
Average number of large basis fcns per batch ...    26.86 (85.53%)
Maximum spatial batch extension              ...  36.77, 36.77,  4.81 au
Average spatial batch extension              ...   0.56,  0.56,  0.20 au

Time for grid setup =    0.302 sec

--------------
SCF ITERATIONS
--------------
ITER       Energy         Delta-E        Max-DP      RMS-DP      [F,P]     Damp
               ***  Starting incremental Fock matrix formation  ***
  0   -440.8258983188   0.000000000000 0.00009262  0.00000141  0.0019723 0.7000
  1   -440.8258984056  -0.000000086765 0.00008843  0.00000145  0.0013832 0.7000
                               ***Turning on DIIS***
  2   -440.8258984663  -0.000000060699 0.00026651  0.00000444  0.0009685 0.0000
  3   -440.8258986092  -0.000000142920 0.00003819  0.00000064  0.0000153 0.0000
  4   -440.8258986084   0.000000000807 0.00002546  0.00000031  0.0000231 0.0000
  5   -440.8258986110  -0.000000002670 0.00000241  0.00000006  0.0000055 0.0000
  6   -440.8258986117  -0.000000000682 0.00000449  0.00000005  0.0000036 0.0000
                            ***DIIS convergence achieved***

               *****************************************************
               *                     SUCCESS                       *
               *           SCF CONVERGED AFTER   7 CYCLES          *
               *****************************************************

Total Energy       :         -440.82589861 Eh          -11995.48254 eV
  Last Energy change         ...    1.3324e-10  Tolerance :   1.0000e-08
  Last MAX-Density change    ...    1.3623e-06  Tolerance :   1.0000e-07
             **** THE GBW FILE WAS UPDATED (Ag03N0_LIN.gbw) ****
             **** DENSITY FILE WAS UPDATED (Ag03N0_LIN.scfp) ****
             **** ENERGY FILE WAS UPDATED (Ag03N0_LIN.en.tmp) ****
----------------------
UHF SPIN CONTAMINATION
----------------------

Warning: in a DFT calculation there is little theoretical justification to 
         calculate <S**2> as in Hartree-Fock theory. We will do it anyways
         but you should keep in mind that the values have only limited relevance

Expectation value of <S**2>     :     0.757861
Ideal value S*(S+1) for S=0.5   :     0.750000
Deviation                       :     0.007861

             **** THE GBW FILE WAS UPDATED (Ag03N0_LIN.gbw) ****
             **** DENSITY FILE WAS UPDATED (Ag03N0_LIN.scfp) ****
Total SCF time: 0 days 0 hours 0 min 2 sec 


-------------------------------------------------------------------------------
                          DFT DISPERSION CORRECTION                            
                                                                               
                              DFTD3 V3.1  Rev 1                                
                          USING Becke-Johnson damping                          
-------------------------------------------------------------------------------
-------------------------   ----------------
Dispersion correction           -0.004317255
-------------------------   ----------------


-------------------------   --------------------
FINAL SINGLE POINT ENERGY      -440.830215866604
-------------------------   --------------------



           ************************************************************
           *        Program running with 24 parallel MPI-processes    *
           *              working on a common directory               *
           ************************************************************
------------------------------------------------------------------------------
                         ORCA SCF GRADIENT CALCULATION
------------------------------------------------------------------------------

Gradient of the Kohn-Sham DFT energy:
Kohn-Sham wavefunction type      ... UKS
Hartree-Fock exchange scaling    ...    0.100
Number of operators              ...    2
Number of atoms                  ...    3
Basis set dimensions             ...  168
Integral neglect threshold       ... 2.5e-11
Integral primitive cutoff        ... 2.5e-12

Nuclear repulsion gradient       ... done
One Electron Gradient            
  ECP gradient                   ... done
Pre-screening matrix             ... done
Starting the two electron gradient:
Two electron gradient done
Exchange-correlation gradient    ... done
Dispersion correction            ... done

------------------
CARTESIAN GRADIENT
------------------

   1   Ag  :   -0.000000000   -0.000000006   -0.000000007
   2   Ag  :    0.000000000    0.000000000   -0.002719394
   3   Ag  :    0.000000003   -0.000000002    0.002719392

Difference to translation invariance:
           :    0.0000000027   -0.0000000076   -0.0000000103

Norm of the cartesian gradient     ...    0.0038458024
RMS gradient                       ...    0.0012819341
MAX gradient                       ...    0.0027193943

-------
TIMINGS
-------

Total SCF gradient time            ...        2.706 sec

One electron gradient       ....       0.761 sec  ( 28.1%)
Prescreening matrices       ....       0.005 sec  (  0.2%)
Two electron gradient       ....       1.694 sec  ( 62.6%)
XC gradient                 ....       0.048 sec  (  1.8%)
------------------------------------------------------------------------------
                         ORCA GEOMETRY RELAXATION STEP
------------------------------------------------------------------------------

Reading the OPT-File                    .... done
Getting information on internals        .... done
Copying old internal coords+grads       .... done
Making the new internal coordinates     .... (new redundants).... done
Validating the new internal coordinates .... (new redundants).... done
Calculating the B-matrix                .... done
Calculating the G,G- and P matrices     .... done
Transforming gradient to internals      .... done
Projecting the internal gradient        .... done
Number of atoms                         ....   3
Number of internal coordinates          ....   4
Current Energy                          ....  -440.830215867 Eh
Current gradient norm                   ....     0.003845802 Eh/bohr
Maximum allowed component of the step   ....  0.300
Current trust radius                    ....  0.300
Updating the Hessian (BFGS)             .... done
Forming the augmented Hessian           .... done
Diagonalizing the augmented Hessian     .... done
Last element of RFO vector              ....  0.997836363
Lowest eigenvalues of augmented Hessian:
 -0.000253396  0.058367906  0.718530474  0.718530474
Length of the computed step             ....  0.065888990
The final length of the internal step   ....  0.065888990
Converting the step to cartesian space:
 Initial RMS(Int)=    0.0329444949
Transforming coordinates:
 Iter   0:  RMS(Cart)=    0.0219629966 RMS(Int)=    0.0329444949
 Iter   1:  RMS(Cart)=    0.0000000104 RMS(Int)=    0.0000000075
done
Storing new coordinates                 .... done

                                .--------------------.
          ----------------------|Geometry convergence|-------------------------
          Item                value                   Tolerance       Converged
          ---------------------------------------------------------------------
          Energy change      -0.0000217848            0.0000050000      NO
          RMS gradient        0.0019229012            0.0001000000      NO
          MAX gradient        0.0027193950            0.0003000000      NO
          RMS step            0.0329444949            0.0020000000      NO
          MAX step            0.0465905863            0.0040000000      NO
          ........................................................
          Max(Bonds)      0.0247      Max(Angles)    0.00
          Max(Dihed)        0.00      Max(Improp)    0.00
          ---------------------------------------------------------------------

The optimization has not yet converged - more geometry cycles are needed


    ---------------------------------------------------------------------------
                         Redundant Internal Coordinates
                            (Angstroem and degrees)

        Definition                    Value    dE/dq     Step     New-Value
    ----------------------------------------------------------------------------
     1. B(Ag  1,Ag  0)                2.5945 -0.002719  0.0247    2.6192   
     2. B(Ag  2,Ag  0)                2.5945 -0.002719  0.0247    2.6192   
     3. L(Ag  1,Ag  0,Ag  2, 2)       180.00  0.000000   -0.00    180.00   
     4. L(Ag  1,Ag  0,Ag  2, 1)       180.00 -0.000000    0.00    180.00   
    ----------------------------------------------------------------------------

         *************************************************************
         *                GEOMETRY OPTIMIZATION CYCLE   3            *
         *************************************************************
---------------------------------
CARTESIAN COORDINATES (ANGSTROEM)
---------------------------------
  Ag     0.000000    0.000000    0.000000
  Ag    -0.000000   -0.000000    2.619203
  Ag    -0.000000   -0.000000   -2.619203

----------------------------
CARTESIAN COORDINATES (A.U.)
----------------------------
  NO LB      ZA    FRAG     MASS         X           Y           Z
   0 Ag   19.0000*   0   107.870    0.000000    0.000000    0.000000
   1 Ag   19.0000*   0   107.870   -0.000000   -0.000000    4.949577
   2 Ag   19.0000*   0   107.870   -0.000000   -0.000000   -4.949577
* core charge reduced due to ECP

--------------------------------
INTERNAL COORDINATES (ANGSTROEM)
--------------------------------
 Ag     0   0   0     0.000000000000     0.00000000     0.00000000
 Ag     1   0   0     2.619203333294     0.00000000     0.00000000
 Ag     1   2   0     2.619203359183   179.99999915     0.00000000

---------------------------
INTERNAL COORDINATES (A.U.)
---------------------------
 Ag     0   0   0     0.000000000000     0.00000000     0.00000000
 Ag     1   0   0     4.949576988979     0.00000000     0.00000000
 Ag     1   2   0     4.949577037902   179.99999915     0.00000000



           ************************************************************
           *        Program running with 24 parallel MPI-processes    *
           *              working on a common directory               *
           ************************************************************


           ************************************************************
           *        Program running with 24 parallel MPI-processes    *
           *              working on a common directory               *
           ************************************************************

Diagonalization of the overlap matrix:
Smallest eigenvalue                        ... 1.289e-03
Time for diagonalization                   ...    0.005 sec
Threshold for overlap eigenvalues          ... 1.000e-08
Number of eigenvalues below threshold      ... 0
Time for construction of square roots      ...    0.003 sec
Total time needed                          ...    0.009 sec

-------------------
DFT GRID GENERATION
-------------------

General Integration Accuracy     IntAcc      ...  4.670
Radial Grid Type                 RadialGrid  ... Gauss-Chebyshev
Angular Grid (max. acc.)         AngularGrid ... Lebedev-302
Angular grid pruning method      GridPruning ... 3 (G Style)
Weight generation scheme         WeightScheme... Becke
Basis function cutoff            BFCut       ...    1.0000e-11
Integration weight cutoff        WCut        ...    1.0000e-14
Grids for H and He will be reduced by one unit

# of grid points (after initial pruning)     ...  31974 (   0.0 sec)
# of grid points (after weights+screening)   ...  31770 (   0.0 sec)
nearest neighbour list constructed           ...    0.0 sec
Grid point re-assignment to atoms done       ...    0.0 sec
Grid point division into batches done        ...    0.3 sec
Reduced shell lists constructed in    0.3 sec

Total number of grid points                  ...    31770
Total number of batches                      ...      498
Average number of points per batch           ...       63
Average number of grid points per atom       ...    10590
Average number of shells per batch           ...    12.50 (26.04%)
Average number of basis functions per batch  ...    31.41 (18.70%)
Average number of large shells per batch     ...    10.86 (86.91%)
Average number of large basis fcns per batch ...    26.50 (84.37%)
Maximum spatial batch extension              ...  36.77, 36.77,  4.92 au
Average spatial batch extension              ...   0.56,  0.56,  0.20 au

Time for grid setup =    0.298 sec

--------------
SCF ITERATIONS
--------------
ITER       Energy         Delta-E        Max-DP      RMS-DP      [F,P]     Damp
               ***  Starting incremental Fock matrix formation  ***
  0   -440.8260230398   0.000000000000 0.00108281  0.00001668  0.0237797 0.7000
  1   -440.8260355583  -0.000012518517 0.00104009  0.00001716  0.0166774 0.7000
                               ***Turning on DIIS***
  2   -440.8260443524  -0.000008794131 0.00281592  0.00004733  0.0116778 0.0000
  3   -440.8260647011  -0.000020348721 0.00072708  0.00001223  0.0002223 0.0000
  4   -440.8260645738   0.000000127356 0.00043788  0.00000504  0.0003598 0.0000
  5   -440.8260652703  -0.000000696495 0.00005224  0.00000111  0.0000916 0.0000
  6   -440.8260652768  -0.000000006532 0.00008246  0.00000082  0.0000708 0.0000
  7   -440.8260652871  -0.000000010277 0.00002064  0.00000023  0.0000121 0.0000
  8   -440.8260652877  -0.000000000665 0.00000479  0.00000007  0.0000053 0.0000
                            ***DIIS convergence achieved***

               *****************************************************
               *                     SUCCESS                       *
               *           SCF CONVERGED AFTER   9 CYCLES          *
               *****************************************************

Total Energy       :         -440.82606529 Eh          -11995.48708 eV
  Last Energy change         ...   -2.4687e-10  Tolerance :   1.0000e-08
  Last MAX-Density change    ...    4.3642e-06  Tolerance :   1.0000e-07
             **** THE GBW FILE WAS UPDATED (Ag03N0_LIN.gbw) ****
             **** DENSITY FILE WAS UPDATED (Ag03N0_LIN.scfp) ****
             **** ENERGY FILE WAS UPDATED (Ag03N0_LIN.en.tmp) ****
----------------------
UHF SPIN CONTAMINATION
----------------------

Warning: in a DFT calculation there is little theoretical justification to 
         calculate <S**2> as in Hartree-Fock theory. We will do it anyways
         but you should keep in mind that the values have only limited relevance

Expectation value of <S**2>     :     0.758196
Ideal value S*(S+1) for S=0.5   :     0.750000
Deviation                       :     0.008196

             **** THE GBW FILE WAS UPDATED (Ag03N0_LIN.gbw) ****
             **** DENSITY FILE WAS UPDATED (Ag03N0_LIN.scfp) ****
Total SCF time: 0 days 0 hours 0 min 3 sec 


-------------------------------------------------------------------------------
                          DFT DISPERSION CORRECTION                            
                                                                               
                              DFTD3 V3.1  Rev 1                                
                          USING Becke-Johnson damping                          
-------------------------------------------------------------------------------
-------------------------   ----------------
Dispersion correction           -0.004287385
-------------------------   ----------------


-------------------------   --------------------
FINAL SINGLE POINT ENERGY      -440.830352672657
-------------------------   --------------------



           ************************************************************
           *        Program running with 24 parallel MPI-processes    *
           *              working on a common directory               *
           ************************************************************
------------------------------------------------------------------------------
                         ORCA SCF GRADIENT CALCULATION
------------------------------------------------------------------------------

Gradient of the Kohn-Sham DFT energy:
Kohn-Sham wavefunction type      ... UKS
Hartree-Fock exchange scaling    ...    0.100
Number of operators              ...    2
Number of atoms                  ...    3
Basis set dimensions             ...  168
Integral neglect threshold       ... 2.5e-11
Integral primitive cutoff        ... 2.5e-12

Nuclear repulsion gradient       ... done
[...]
      dx2y2   :     1.999845
      dxy     :     1.999845
      f0      :     0.001708  f :     0.003037
      f+1     :     0.000621
      f-1     :     0.000621
      f+2     :     0.000043
      f-2     :     0.000043
      f+3     :     0.000000
      f-3     :     0.000000
      g0      :     0.000013  g :     0.000031
      g+1     :     0.000008
      g-1     :     0.000008
      g+2     :     0.000001
      g-2     :     0.000001
      g+3     :     0.000000
      g-3     :     0.000000
      g+4     :     0.000000
      g-4     :     0.000000
  1 Ags       :     2.829282  s :     2.829282
      pz      :     2.090266  p :     6.110826
      px      :     2.010280
      py      :     2.010280
      dz2     :     1.985869  d :     9.968419
      dxz     :     1.991259
      dyz     :     1.991259
      dx2y2   :     2.000016
      dxy     :     2.000016
      f0      :     0.000658  f :     0.001491
      f+1     :     0.000377
      f-1     :     0.000377
      f+2     :     0.000039
      f-2     :     0.000039
      f+3     :     0.000000
      f-3     :     0.000000
      g0      :     0.000007  g :     0.000017
      g+1     :     0.000004
      g-1     :     0.000004
      g+2     :     0.000000
      g-2     :     0.000000
      g+3     :     0.000000
      g-3     :     0.000000
      g+4     :     0.000000
      g-4     :     0.000000
  2 Ags       :     2.829282  s :     2.829282
      pz      :     2.090266  p :     6.110826
      px      :     2.010280
      py      :     2.010280
      dz2     :     1.985869  d :     9.968419
      dxz     :     1.991259
      dyz     :     1.991259
      dx2y2   :     2.000016
      dxy     :     2.000016
      f0      :     0.000658  f :     0.001491
      f+1     :     0.000377
      f-1     :     0.000377
      f+2     :     0.000039
      f-2     :     0.000039
      f+3     :     0.000000
      f-3     :     0.000000
      g0      :     0.000007  g :     0.000017
      g+1     :     0.000004
      g-1     :     0.000004
      g+2     :     0.000000
      g-2     :     0.000000
      g+3     :     0.000000
      g-3     :     0.000000
      g+4     :     0.000000
      g-4     :     0.000000

SPIN
  0 Ags       :    -0.041192  s :    -0.041192
      pz      :     0.328458  p :     0.329361
      px      :     0.000451
      py      :     0.000451
      dz2     :     0.003428  d :     0.000237
      dxz     :    -0.001604
      dyz     :    -0.001604
      dx2y2   :     0.000009
      dxy     :     0.000009
      f0      :     0.000304  f :     0.000349
      f+1     :     0.000020
      f-1     :     0.000020
      f+2     :     0.000002
      f-2     :     0.000002
      f+3     :    -0.000000
      f-3     :    -0.000000
      g0      :     0.000000  g :     0.000001
      g+1     :     0.000000
      g-1     :     0.000000
      g+2     :     0.000000
      g-2     :     0.000000
      g+3     :    -0.000000
      g-3     :    -0.000000
      g+4     :    -0.000000
      g-4     :     0.000000
  1 Ags       :     0.360302  s :     0.360302
      pz      :    -0.005891  p :    -0.004209
      px      :     0.000841
      py      :     0.000841
      dz2     :     0.000112  d :    -0.000458
      dxz     :    -0.000279
      dyz     :    -0.000279
      dx2y2   :    -0.000006
      dxy     :    -0.000006
      f0      :    -0.000022  f :    -0.000013
      f+1     :     0.000004
      f-1     :     0.000004
      f+2     :     0.000000
      f-2     :     0.000000
      f+3     :    -0.000000
      f-3     :    -0.000000
      g0      :    -0.000000  g :    -0.000000
      g+1     :    -0.000000
      g-1     :    -0.000000
      g+2     :    -0.000000
      g-2     :    -0.000000
      g+3     :    -0.000000
      g-3     :    -0.000000
      g+4     :     0.000000
      g-4     :     0.000000
  2 Ags       :     0.360302  s :     0.360302
      pz      :    -0.005891  p :    -0.004209
      px      :     0.000841
      py      :     0.000841
      dz2     :     0.000112  d :    -0.000458
      dxz     :    -0.000279
      dyz     :    -0.000279
      dx2y2   :    -0.000006
      dxy     :    -0.000006
      f0      :    -0.000022  f :    -0.000013
      f+1     :     0.000004
      f-1     :     0.000004
      f+2     :     0.000000
      f-2     :     0.000000
      f+3     :    -0.000000
      f-3     :    -0.000000
      g0      :    -0.000000  g :    -0.000000
      g+1     :    -0.000000
      g-1     :    -0.000000
      g+2     :    -0.000000
      g-2     :    -0.000000
      g+3     :    -0.000000
      g-3     :    -0.000000
      g+4     :     0.000000
      g-4     :     0.000000


                      *****************************
                      * MAYER POPULATION ANALYSIS *
                      *****************************

  NA   - Mulliken gross atomic population
  ZA   - Total nuclear charge
  QA   - Mulliken gross atomic charge
  VA   - Mayer's total valence
  BVA  - Mayer's bonded valence
  FA   - Mayer's free valence

  ATOM       NA         ZA         QA         VA         BVA        FA
  0 Ag    19.0375    19.0000    -0.0375     1.1968     1.1876     0.0092
  1 Ag    18.9812    19.0000     0.0188     1.0976     0.7965     0.3010
  2 Ag    18.9812    19.0000     0.0188     1.0976     0.7965     0.3010

  Mayer bond orders larger than 0.100000
B(  0-Ag,  1-Ag) :   0.5938 B(  0-Ag,  2-Ag) :   0.5938 B(  1-Ag,  2-Ag) :   0.2027 


-------
TIMINGS
-------

Total SCF time: 0 days 0 hours 0 min 1 sec 

Total time                  ....       1.615 sec
Sum of individual times     ....       1.393 sec  ( 86.2%)

Fock matrix formation       ....       1.025 sec  ( 63.5%)
  XC integration            ....       0.136 sec  ( 13.3% of F)
    Basis function eval.    ....       0.012 sec  (  8.7% of XC)
    Density eval.           ....       0.027 sec  ( 20.0% of XC)
    XC-Functional eval.     ....       0.010 sec  (  7.2% of XC)
    XC-Potential eval.      ....       0.040 sec  ( 29.6% of XC)
Diagonalization             ....       0.027 sec  (  1.7%)
Density matrix formation    ....       0.006 sec  (  0.3%)
Population analysis         ....       0.009 sec  (  0.6%)
Initial guess               ....       0.019 sec  (  1.2%)
Orbital Transformation      ....       0.000 sec  (  0.0%)
Orbital Orthonormalization  ....       0.013 sec  (  0.8%)
DIIS solution               ....       0.006 sec  (  0.4%)
Grid generation             ....       0.301 sec  ( 18.7%)


-------------------------------------------------------------------------------
                          DFT DISPERSION CORRECTION                            
                                                                               
                              DFTD3 V3.1  Rev 1                                
                          USING Becke-Johnson damping                          
-------------------------------------------------------------------------------
The TPSSH functional is recognized
Active option DFTDOPT                   ...         4   

molecular C6(AA) [au] = 2439.721719 


            DFT-D V3
 parameters
 s6 scaling factor         :     1.0000 
 a1 scaling factor         :     0.4529 
 s8 scaling factor         :     2.2382 
 a2 scaling factor         :     4.6550 
 ad hoc parameters k1-k3   :    16.0000     1.3333    -4.0000 

 Edisp/kcal,au: -2.689030371330  -0.004285242209 
 E6   /kcal   :  -0.770592922 
 E8   /kcal   :  -1.918437449 
 % E8         :  71.343093390 

-------------------------   ----------------
Dispersion correction           -0.004285242
-------------------------   ----------------


-------------------------   --------------------
FINAL SINGLE POINT ENERGY      -440.830353731835
-------------------------   --------------------

                                *** OPTIMIZATION RUN DONE ***

                            ***************************************
                            *     ORCA property calculations      *
                            ***************************************

                                    ---------------------
                                    Active property flags
                                    ---------------------
   (+) Dipole Moment


------------------------------------------------------------------------------
                       ORCA ELECTRIC PROPERTIES CALCULATION
------------------------------------------------------------------------------

Dipole Moment Calculation                       ... on
Quadrupole Moment Calculation                   ... off
Polarizability Calculation                      ... off
GBWName                                         ... Ag03N0_LIN.gbw
Electron density file                           ... Ag03N0_LIN.scfp
The origin for moment calculation is the CENTER OF MASS  = (-0.000000, -0.000000  0.000000)

-------------
DIPOLE MOMENT
-------------
                                X             Y             Z
Electronic contribution:      0.00000      -0.00000      -0.00000
Nuclear contribution   :     -0.00000      -0.00000       0.00000
                        -----------------------------------------
Total Dipole Moment    :      0.00000      -0.00000      -0.00000
                        -----------------------------------------
Magnitude (a.u.)       :      0.00000
Magnitude (Debye)      :      0.00000



--------------------
Rotational spectrum 
--------------------
 
Rotational constants in cm-1:     0.000000     0.011374     0.011374 
Rotational constants in MHz :     0.000000   340.995479   340.995479 

 Dipole components along the rotational axes: 
x,y,z [a.u.] :     0.000000    -0.000000     0.000000 
x,y,z [Debye]:     0.000000    -0.000000     0.000000 

 

----------------------------------------------------------------------------
                           ORCA NUMERICAL FREQUENCIES
                              (24-process run)
----------------------------------------------------------------------------

Number of atoms                ... 3
Central differences            ... used
Number of displacements        ... 18
Numerical increment            ... 5.000e-03 bohr
IR-spectrum generation         ... on
Raman-spectrum generation      ... off
Surface Crossing Hessian       ... off

 WARNING: There are more processes than displacements to do
  ====> : Reducing number of processes to   9

The output will be reduced. Please look at the following files:
SCF program output             ... >Ag03N0_LIN.lastscf
Integral program output        ... >Ag03N0_LIN.lastint
Gradient program output        ... >Ag03N0_LIN.lastgrad
Dipole moment program output   ... >Ag03N0_LIN.lastmom
AutoCI program output          ... >Ag03N0_LIN.lastautoci


         <<< Energy and Gradient at the input geometry >>>

        <<< Energy and Gradient at displaced geometries >>>
             <<<Displacing   1/coordinate 2 (+)>>>
             <<<Displacing   2/coordinate 1 (+)>>>
             <<<Displacing   1/coordinate 1 (+)>>>
             <<<Displacing   2/coordinate 3 (+)>>>
             <<<Displacing   3/coordinate 1 (+)>>>
             <<<Displacing   3/coordinate 2 (+)>>>
             <<<Displacing   1/coordinate 3 (+)>>>
             <<<Displacing   2/coordinate 2 (+)>>>
             <<<Displacing   3/coordinate 3 (+)>>>
             <<<Displacing   2/coordinate 1 (-)>>>
             <<<Displacing   3/coordinate 1 (-)>>>
             <<<Displacing   2/coordinate 2 (-)>>>
             <<<Displacing   3/coordinate 2 (-)>>>
             <<<Displacing   1/coordinate 1 (-)>>>
             <<<Displacing   1/coordinate 2 (-)>>>
             <<<Displacing   1/coordinate 3 (-)>>>
             <<<Displacing   2/coordinate 3 (-)>>>
             <<<Displacing   3/coordinate 3 (-)>>>
Warning: T+R mode no 5 is zero 

-----------------------
VIBRATIONAL FREQUENCIES
-----------------------

Scaling factor for frequencies =  1.000000000 (already applied!)

   0:         0.00 cm**-1
   1:         0.00 cm**-1
   2:         0.00 cm**-1
   3:         0.00 cm**-1
   4:         0.00 cm**-1
   5:       -11.83 cm**-1 ***imaginary mode***
   6:       -11.79 cm**-1 ***imaginary mode***
   7:       111.92 cm**-1
   8:       180.73 cm**-1


------------
NORMAL MODES
------------

These modes are the cartesian displacements weighted by the diagonal matrix
M(i,i)=1/sqrt(m[i]) where m[i] is the mass of the displaced atom
Thus, these vectors are normalized but *not* orthogonal

                  0          1          2          3          4          5    
      0       0.000000   0.000000   0.000000   0.000000   0.000000  -0.749072
      1       0.000000   0.000000   0.000000   0.000000   0.000000   0.324896
      2       0.000000   0.000000   0.000000   0.000000   0.000000   0.000005
      3       0.000000   0.000000   0.000000   0.000000   0.000000   0.374536
      4       0.000000   0.000000   0.000000   0.000000   0.000000  -0.162448
      5       0.000000   0.000000   0.000000   0.000000   0.000000   0.000022
      6       0.000000   0.000000   0.000000   0.000000   0.000000   0.374536
      7       0.000000   0.000000   0.000000   0.000000   0.000000  -0.162448
      8       0.000000   0.000000   0.000000   0.000000   0.000000  -0.000027
                   6          7          8    
      0       0.324896  -0.000020  -0.000015
      1       0.749072   0.000026  -0.000022
      2      -0.000026   0.000000  -0.816497
      3      -0.162448   0.000010   0.000007
      4      -0.374536  -0.000013   0.000011
      5       0.000026  -0.707107   0.408248
      6      -0.162448   0.000010   0.000007
      7      -0.374536  -0.000013   0.000011
      8      -0.000000   0.707107   0.408248


-----------
IR SPECTRUM  
-----------

 Mode    freq (cm**-1)   T**2         TX         TY         TZ
-------------------------------------------------------------------
   7:       111.92    0.000000  (  0.000018  -0.000009  -0.000000)
   8:       180.73    1.332714  (  0.000010   0.000022   1.154432)

The first frequency considered to be a vibration is 7
The total number of vibrations considered is 2


--------------------------
THERMOCHEMISTRY AT 298.15K
--------------------------

Temperature         ... 298.15 K
Pressure            ... 1.00 atm
Total Mass          ... 323.61 AMU
The molecule is recognized as being linear

Throughout the following assumptions are being made:
  (1) The electronic state is orbitally nondegenerate
      but the spin degeneracy is treated
  (2) There are no thermally accessible electronically excited states
  (3) Hindered rotations indicated by low frequency modes are not
      treated as such but are treated as vibrations and this may
      cause some error
  (4) All equations used are the standard statistical mechanics
      equations for an ideal gas
  (5) All vibrations are strictly harmonic

freq.     111.92  E(vib)   ...       0.45 
freq.     180.73  E(vib)   ...       0.37 

------------
INNER ENERGY
------------

The inner energy is: U= E(el) + E(ZPE) + E(vib) + E(rot) + E(trans)
    E(el)   - is the total energy from the electronic structure calculation
              = E(kin-el) + E(nuc-el) + E(el-el) + E(nuc-nuc)
    E(ZPE)  - the the zero temperature vibrational energy from the frequency calculation
    E(vib)  - the the finite temperature correction to E(ZPE) due to population
              of excited vibrational states
    E(rot)  - is the rotational thermal energy
    E(trans)- is the translational thermal energy

Summary of contributions to the inner energy U:
Electronic energy                ...   -440.83035373 Eh
Zero point energy                ...      0.00066671 Eh       0.42 kcal/mol
Thermal vibrational correction   ...      0.00130365 Eh       0.82 kcal/mol
Thermal rotational correction    ...      0.00094418 Eh       0.59 kcal/mol
Thermal translational correction ...      0.00141627 Eh       0.89 kcal/mol
-----------------------------------------------------------------------
Total thermal energy                   -440.82602292 Eh


Summary of corrections to the electronic energy:
(perhaps to be used in another calculation)
Total thermal correction                  0.00366411 Eh       2.30 kcal/mol
Non-thermal (ZPE) correction              0.00066671 Eh       0.42 kcal/mol
-----------------------------------------------------------------------
Total correction                          0.00433081 Eh       2.72 kcal/mol


--------
ENTHALPY
--------

The enthalpy is H = U + kB*T
                kB is Boltzmann's constant
Total free energy                 ...   -440.82602292 Eh 
Thermal Enthalpy correction       ...      0.00094421 Eh       0.59 kcal/mol
-----------------------------------------------------------------------
Total Enthalpy                    ...   -440.82507871 Eh


Note: Rotational entropy computed according to Herzberg 
Infrared and Raman Spectra, Chapter V,1, Van Nostrand Reinhold, 1945 
Point Group:  Dinfh, Symmetry Number:   2  
Rotational constants in cm-1:     0.000000     0.011374     0.011374 

Vibrational entropy computed according to the QRRHO of S. Grimme
Chem.Eur.J. 2012 18 9955


-------
ENTROPY
-------

The entropy contributions are T*S = T*(S(el)+S(vib)+S(rot)+S(trans))
     S(el)   - electronic entropy
     S(vib)  - vibrational entropy
     S(rot)  - rotational entropy
     S(trans)- translational entropy
The entropies will be listed as mutliplied by the temperature to get
units of energy

Electronic entropy                ...      0.00065446 Eh      0.41 kcal/mol
Vibrational entropy               ...      0.00254677 Eh      1.60 kcal/mol
Rotational entropy                ...      0.00955233 Eh      5.99 kcal/mol
Translational entropy             ...      0.02053447 Eh     12.89 kcal/mol
-----------------------------------------------------------------------
Final entropy term                ...      0.03328802 Eh     20.89 kcal/mol

In case the symmetry of your molecule has not been determined correctly
or in case you have a reason to use a different symmetry number we print 
out the resulting rotational entropy values for sn=1,12 :
 --------------------------------------------------------
|  sn= 1 | S(rot)=      -0.00187842 Eh     -1.18 kcal/mol|
|  sn= 2 | S(rot)=      -0.00253288 Eh     -1.59 kcal/mol|
|  sn= 3 | S(rot)=      -0.00291571 Eh     -1.83 kcal/mol|
|  sn= 4 | S(rot)=      -0.00318733 Eh     -2.00 kcal/mol|
|  sn= 5 | S(rot)=      -0.00339802 Eh     -2.13 kcal/mol|
|  sn= 6 | S(rot)=      -0.00357017 Eh     -2.24 kcal/mol|
|  sn= 7 | S(rot)=      -0.00371571 Eh     -2.33 kcal/mol|
|  sn= 8 | S(rot)=      -0.00384179 Eh     -2.41 kcal/mol|
|  sn= 9 | S(rot)=      -0.00395300 Eh     -2.48 kcal/mol|
|  sn=10 | S(rot)=      -0.00405248 Eh     -2.54 kcal/mol|
|  sn=11 | S(rot)=      -0.00414247 Eh     -2.60 kcal/mol|
|  sn=12 | S(rot)=      -0.00422462 Eh     -2.65 kcal/mol|
 --------------------------------------------------------


-------------------
GIBBS FREE ENERGY
-------------------

The Gibbs free energy is G = H - T*S

Total enthalpy                    ...   -440.82507871 Eh 
Total entropy correction          ...     -0.03328802 Eh    -20.89 kcal/mol
-----------------------------------------------------------------------
Final Gibbs free energy         ...   -440.85836673 Eh

For completeness - the Gibbs free energy minus the electronic energy
G-E(el)                           ...     -0.02801300 Eh    -17.58 kcal/mol


Total Time for Numerical Frequencies  :       104.881 sec

Timings for individual modules:

Sum of individual times         ...       42.583 sec (=   0.710 min)
GTO integral calculation        ...        5.920 sec (=   0.099 min)  13.9 %
SCF iterations                  ...       20.777 sec (=   0.346 min)  48.8 %
SCF Gradient evaluation         ...       15.596 sec (=   0.260 min)  36.6 %
Geometry relaxation             ...        0.289 sec (=   0.005 min)   0.7 %
                             ****ORCA TERMINATED NORMALLY****
TOTAL RUN TIME: 0 days 0 hours 2 minutes 22 seconds 960 msec
