
                                 *****************
                                 * O   R   C   A *
                                 *****************

           --- An Ab Initio, DFT and Semiempirical electronic structure package ---

                  #######################################################
                  #                        -***-                        #
                  #          Department of theory and spectroscopy      #
                  #               Directorship: Frank Neese             #
                  #        Max Planck Institute fuer Kohlenforschung    #
                  #                Kaiser Wilhelm Platz 1               #
                  #                 D-45470 Muelheim/Ruhr               #
                  #                      Germany                        #
                  #                                                     #
                  #                  All rights reserved                #
                  #                        -***-                        #
                  #######################################################


                         Program Version 4.2.0 -  RELEASE  -


 With contributions from (in alphabetic order):
   Daniel Aravena         : Magnetic Suceptibility
   Michael Atanasov       : Ab Initio Ligand Field Theory (pilot matlab implementation)
   Alexander A. Auer      : GIAO ZORA, VPT2
   Ute Becker             : Parallelization
   Giovanni Bistoni       : ED, misc. LED, open-shell LED, HFLED
   Martin Brehm           : Molecular dynamics
   Dmytro Bykov           : SCF Hessian
   Vijay G. Chilkuri      : MRCI spin determinant printing, contributions to CSF-ICE
   Dipayan Datta          : RHF DLPNO-CCSD density
   Achintya Kumar Dutta   : EOM-CC, STEOM-CC
   Dmitry Ganyushin       : Spin-Orbit,Spin-Spin,Magnetic field MRCI
   Miquel Garcia          : C-PCM Hessian, Gaussian charge scheme
   Yang Guo               : DLPNO-NEVPT2, CIM, IAO-localization
   Andreas Hansen         : Spin unrestricted coupled pair/coupled cluster methods
   Benjamin Helmich-Paris : CASSCF linear response (MC-RPA)
   Lee Huntington         : MR-EOM, pCC
   Robert Izsak           : Overlap fitted RIJCOSX, COSX-SCS-MP3, EOM
   Christian Kollmar      : KDIIS, OOCD, Brueckner-CCSD(T), CCSD density
   Simone Kossmann        : Meta GGA functionals, TD-DFT gradient, OOMP2, MP2 Hessian
   Martin Krupicka        : AUTO-CI
   Lucas Lang             : DCDCAS
   Dagmar Lenk            : GEPOL surface, SMD
   Dimitrios Liakos       : Extrapolation schemes; Compound Job, initial MDCI parallelization
   Dimitrios Manganas     : Further ROCIS development; embedding schemes
   Dimitrios Pantazis     : SARC Basis sets
   Taras Petrenko         : DFT Hessian,TD-DFT gradient, ASA, ECA, R-Raman, ABS, FL, XAS/XES, NRVS
   Peter Pinski           : DLPNO-MP2, DLPNO-MP2 Gradient
   Christoph Reimann      : Effective Core Potentials
   Marius Retegan         : Local ZFS, SOC
   Christoph Riplinger    : Optimizer, TS searches, QM/MM, DLPNO-CCSD(T), (RO)-DLPNO pert. Triples
   Tobias Risthaus        : Range-separated hybrids, TD-DFT gradient, RPA, STAB
   Michael Roemelt        : Original ROCIS implementation
   Masaaki Saitow         : Open-shell DLPNO-CCSD energy and density
   Barbara Sandhoefer     : DKH picture change effects
   Avijit Sen             : IP-ROCIS
   Kantharuban Sivalingam : CASSCF convergence, NEVPT2, FIC-MRCI
   Bernardo de Souza      : ESD, SOC TD-DFT
   Georgi Stoychev        : AutoAux, RI-MP2 NMR
   Willem Van den Heuvel  : Paramagnetic NMR
   Boris Wezisla          : Elementary symmetry handling
   Frank Wennmohs         : Technical directorship


 We gratefully acknowledge several colleagues who have allowed us to
 interface, adapt or use parts of their codes:
   Stefan Grimme, W. Hujo, H. Kruse,             : VdW corrections, initial TS optimization,
                  C. Bannwarth                     DFT functionals, gCP, sTDA/sTD-DF
   Ed Valeev, F. Pavosevic, A. Kumar             : LibInt (2-el integral package), F12 methods
   Garnet Chan, S. Sharma, J. Yang, R. Olivares  : DMRG
   Ulf Ekstrom                                   : XCFun DFT Library
   Mihaly Kallay                                 : mrcc  (arbitrary order and MRCC methods)
   Andreas Klamt, Michael Diedenhofen            : otool_cosmo (COSMO solvation model)
   Jiri Pittner, Ondrej Demel                    : Mk-CCSD
   Frank Weinhold                                : gennbo (NPA and NBO analysis)
   Christopher J. Cramer and Donald G. Truhlar   : smd solvation model
   Lars Goerigk                                  : TD-DFT with DH, B97 family of functionals
   V. Asgeirsson, H. Jonsson                     : NEB implementation
   FAccTs GmbH                                   : IRC, NEB, NEB-TS, Multilevel, MM, QM/MM, CI optimization
   S Lehtola, MJT Oliveira, MAL Marques          : LibXC Library


 Your calculation uses the libint2 library for the computation of 2-el integrals
 For citations please refer to: http://libint.valeyev.net

 Your ORCA version has been built with support for libXC version: 4.2.3
 For citations please refer to: https://tddft.org/programs/libxc/

 This ORCA versions uses:
   CBLAS   interface :  Fast vector & matrix operations
   LAPACKE interface :  Fast linear algebra routines
   SCALAPACK package :  Parallel linear algebra routines


Your calculation utilizes the atom-pairwise dispersion correction
with the Becke-Johnson damping scheme (D3BJ)
Cite in your paper:
S.Grimme, S.Ehrlich, L.Goerigk, J Comput Chem, (2011), 32, 1456–1465 
S.Grimme, J.Antony, S.Ehrlich and H.Krieg, J.Chem.Phys., 132, (2010), 154104 
   

----- Orbital basis set information -----
Your calculation utilizes the basis: def2-TZVPPD
   F. Weigend and R. Ahlrichs, Phys. Chem. Chem. Phys. 7, 3297 (2005).
   D. Rappoport and F. Furche, J. Chem. Phys. 133 134105 (2010).

----- AuxJK basis set information -----
Your calculation utilizes the auxiliary basis: def2/JK
   H-Ba, Hf-Rn: F. Weigend, J. Comput. Chem. 29, 167 (2008).

cite the ECPs for Ag [Def2-ECP] as follows:
Ce-Yb(ecp-28): M. Dolg, H. Stoll, H.Preuss, J. Chem. Phys., 1989, 90, 1730-1734.
Y-Cd(ecp-28), Hf-Hg(ecp-46): D. Andrae,U. Haeussermann, M. Dolg, H. Stoll, H. Preuss, Theor. Chim. Acta, 1990, 77, 123-141.
In-Sb(ecp-28), Tl-Bi(ecp-46): B. Metz, H. Stoll, M. Dolg, J. Chem. Phys., 2000, 113, 2563-2569.
Te-Xe(ecp-28), Po-Rn(ecp-46): K. A. Peterson, D. Figgen, E. Goll, H. Stoll, M. Dolg, J. Chem. Phys., 2003, 119, 11113-11123.
Rb(ecp-28), Cs(ecp-46): T. Leininger, A. Nicklass, W. Kuechle, H. Stoll, M. Dolg, A. Bergner, Chem. Phys. Lett., 1996, 255, 274-280.
Sr(ecp-28), Ba(ecp-46): M. Kaupp, P. V. Schleyer, H. Stoll and H. Preuss, J. Chem. Phys., 1991, 94, 1360-1366.
La(ecp-46): M. Dolg, H. Stoll, A. Savin, H. Preuss, Theor. Chim. Acta, 1989, 75, 173-194.
Lu(ecp-28): X. Cao, M. Dolg, J. Chem. Phys., 2001, 115, 7348-7355.

ECP parameters for Ag [Def2-ECP] have been obtained from:
TURBOMOLE (7.0.2)

================================================================================
                                        WARNINGS
                       Please study these warnings very carefully!
================================================================================


WARNING: Geometry Optimization
  ===> : Switching off AutoStart
         For restart on a previous wavefunction, please use MOREAD

INFO   : the flag for use of LIBINT has been found!

================================================================================
                                       INPUT FILE
================================================================================
NAME = Ag03C1_D3H.in
|  1> #
|  2> # Ag03C1_D3H TPSSh-D3BJ/Def2-TZVPPD
|  3> #
|  4> ! tpssh d3bj def2-tzvppd def2/jk grid4 nofinalgrid opt xyzfile numfreq
|  5> 
|  6> *xyz 1 1
|  7> Ag       0.000000    1.529877    0.000000 
|  8> Ag       1.324912   -0.764938    0.000000 
|  9> Ag      -1.324912   -0.764938    0.000000 
| 10> *
| 11> 
| 12> %maxcore 5000
| 13> 
| 14> %pal
| 15> nprocs = 24
| 16> end
| 17> 
| 18> 
| 19>                          ****END OF INPUT****
================================================================================

                       *****************************
                       * Geometry Optimization Run *
                       *****************************

Geometry optimization settings:
Update method            Update   .... BFGS
Choice of coordinates    CoordSys .... Z-matrix Internals
Initial Hessian          InHess   .... Almoef's Model

Convergence Tolerances:
Energy Change            TolE     ....  5.0000e-06 Eh
Max. Gradient            TolMAXG  ....  3.0000e-04 Eh/bohr
RMS Gradient             TolRMSG  ....  1.0000e-04 Eh/bohr
Max. Displacement        TolMAXD  ....  4.0000e-03 bohr
RMS Displacement         TolRMSD  ....  2.0000e-03 bohr
Strict Convergence                ....  False
------------------------------------------------------------------------------
                        ORCA OPTIMIZATION COORDINATE SETUP
------------------------------------------------------------------------------

The optimization will be done in new redundant internal coordinates
Making redundant internal coordinates   ...  (new redundants) done
Evaluating the initial hessian          ...  (Almloef) done
Evaluating the coordinates              ...  done
Calculating the B-matrix                .... done
Calculating the G-matrix                .... done
Diagonalizing the G-matrix              .... done
The first mode is                       ....    3
The number of degrees of freedom        ....    3

    -----------------------------------------------------------------
                    Redundant Internal Coordinates


    -----------------------------------------------------------------
         Definition                    Initial Value    Approx d2E/dq
    -----------------------------------------------------------------
      1. B(Ag  1,Ag  0)                  2.6498         0.625200   
      2. B(Ag  2,Ag  1)                  2.6498         0.625201   
      3. B(Ag  2,Ag  0)                  2.6498         0.625200   
      4. A(Ag  1,Ag  0,Ag  2)           60.0000         0.661321   
      5. A(Ag  0,Ag  1,Ag  2)           60.0000         0.661321   
      6. A(Ag  0,Ag  2,Ag  1)           60.0000         0.661321   
    -----------------------------------------------------------------

Number of atoms                         .... 3
Number of degrees of freedom            .... 6

         *************************************************************
         *                GEOMETRY OPTIMIZATION CYCLE   1            *
         *************************************************************
---------------------------------
CARTESIAN COORDINATES (ANGSTROEM)
---------------------------------
  Ag     0.000000    1.529877    0.000000
  Ag     1.324912   -0.764938    0.000000
  Ag    -1.324912   -0.764938    0.000000

----------------------------
CARTESIAN COORDINATES (A.U.)
----------------------------
  NO LB      ZA    FRAG     MASS         X           Y           Z
   0 Ag   19.0000*   0   107.870    0.000000    2.891049    0.000000
   1 Ag   19.0000*   0   107.870    2.503721   -1.445523    0.000000
   2 Ag   19.0000*   0   107.870   -2.503721   -1.445523    0.000000
* core charge reduced due to ECP

--------------------------------
INTERNAL COORDINATES (ANGSTROEM)
--------------------------------
 Ag     0   0   0     0.000000000000     0.00000000     0.00000000
 Ag     1   0   0     2.649824086986     0.00000000     0.00000000
 Ag     2   1   0     2.649824000000    60.00000109     0.00000000

---------------------------
INTERNAL COORDINATES (A.U.)
---------------------------
 Ag     0   0   0     0.000000000000     0.00000000     0.00000000
 Ag     1   0   0     5.007441827471     0.00000000     0.00000000
 Ag     2   1   0     5.007441663092    60.00000109     0.00000000

---------------------
BASIS SET INFORMATION
---------------------
There are 1 groups of distinct atoms

 Group   1 Type Ag  : 7s7p6d2f1g contracted to 6s4p3d2f1g pattern {211111/4111/411/11/1}

Atom   0Ag   basis set group =>   1
Atom   1Ag   basis set group =>   1
Atom   2Ag   basis set group =>   1
----------------------------------
AUXILIARY/JK BASIS SET INFORMATION
----------------------------------
There are 1 groups of distinct atoms

 Group   1 Type Ag  : 13s12p10d9f6g3h2i contracted to 11s10p9d8f6g3h2i pattern {31111111111/3111111111/211111111/21111111/111111/111/11}

Atom   0Ag   basis set group =>   1
Atom   1Ag   basis set group =>   1
Atom   2Ag   basis set group =>   1
-------------------------
ECP PARAMETER INFORMATION
-------------------------

 Group 1, Type Ag ECP Def2-ECP (replacing 28 core electrons, lmax=3)

Atom   0Ag   ECP group =>   1
Atom   1Ag   ECP group =>   1
Atom   2Ag   ECP group =>   1



           ************************************************************
           *        Program running with 24 parallel MPI-processes    *
           *              working on a common directory               *
           ************************************************************
------------------------------------------------------------------------------
                           ORCA GTO INTEGRAL CALCULATION
------------------------------------------------------------------------------

                         BASIS SET STATISTICS AND STARTUP INFO

 # of primitive gaussian shells          ...   69
 # of primitive gaussian functions       ...  243
 # of contracted shells                  ...   48
 # of contracted basis functions         ...  168
 Highest angular momentum                ...    4
 Maximum contraction depth               ...    4
 Integral package used                   ... LIBINT
 Integral threshhold            Thresh   ...  2.500e-11
 Primitive cut-off              TCut     ...  2.500e-12


------------------------------ INTEGRAL EVALUATION ----------------------------


 * One electron integrals 

   ECP integrals                         ... done
 Pre-screening matrix                    ... done
 Shell pair data                         ... done (   0.000 sec)



           ************************************************************
           *        Program running with 24 parallel MPI-processes    *
           *              working on a common directory               *
           ************************************************************
-------------------------------------------------------------------------------
                                 ORCA SCF
-------------------------------------------------------------------------------

------------
SCF SETTINGS
------------
Hamiltonian:
 Density Functional     Method          .... DFT(GTOs)
 Exchange Functional    Exchange        .... TPSS
 Correlation Functional Correlation     .... TPSS
 LDA part of GGA corr.  LDAOpt          .... PW91-LDA
 Gradients option       PostSCFGGA      .... off
 Hybrid DFT is turned on
   Fraction HF Exchange ScalHFX         ....  0.100000
   Scaling of DF-GGA-X  ScalDFX         ....  0.900000
   Scaling of DF-GGA-C  ScalDFC         ....  1.000000
   Scaling of DF-LDA-C  ScalLDAC        ....  1.000000
   Perturbative correction              ....  0.000000
   Density functional embedding theory  .... OFF
   NL short-range parameter             ....  5.200000


General Settings:
 Integral files         IntName         .... Ag03C1_D3H
 Hartree-Fock type      HFTyp           .... RHF
 Total Charge           Charge          ....    1
 Multiplicity           Mult            ....    1
 Number of Electrons    NEL             ....   56
 Basis Dimension        Dim             ....  168
 Nuclear Repulsion      ENuc            ....    216.2781015067 Eh

Convergence Acceleration:
 DIIS                   CNVDIIS         .... on
   Start iteration      DIISMaxIt       ....    12
   Startup error        DIISStart       ....  0.200000
   # of expansion vecs  DIISMaxEq       ....     5
   Bias factor          DIISBfac        ....   1.050
   Max. coefficient     DIISMaxC        ....  10.000
 Newton-Raphson         CNVNR           .... off
 SOSCF                  CNVSOSCF        .... off
 Level Shifting         CNVShift        .... on
   Level shift para.    LevelShift      ....    0.2500
   Turn off err/grad.   ShiftErr        ....    0.0010
 Zerner damping         CNVZerner       .... off
 Static damping         CNVDamp         .... on
   Fraction old density DampFac         ....    0.7000
   Max. Damping (<1)    DampMax         ....    0.9800
   Min. Damping (>=0)   DampMin         ....    0.0000
   Turn off err/grad.   DampErr         ....    0.1000
 Fernandez-Rico         CNVRico         .... off

SCF Procedure:
 Maximum # iterations   MaxIter         ....   125
 SCF integral mode      SCFMode         .... Direct
   Integral package                     .... LIBINT
 Reset frequency        DirectResetFreq ....    20
 Integral Threshold     Thresh          ....  2.500e-11 Eh
 Primitive CutOff       TCut            ....  2.500e-12 Eh

Convergence Tolerance:
 Convergence Check Mode ConvCheckMode   .... Total+1el-Energy
 Convergence forced     ConvForced      .... 0
 Energy Change          TolE            ....  1.000e-08 Eh
 1-El. energy change                    ....  1.000e-05 Eh
 DIIS Error             TolErr          ....  5.000e-07


Diagonalization of the overlap matrix:
Smallest eigenvalue                        ... 2.894e-03
Time for diagonalization                   ...    0.021 sec
Threshold for overlap eigenvalues          ... 1.000e-08
Number of eigenvalues below threshold      ... 0
Time for construction of square roots      ...    0.003 sec
Total time needed                          ...    0.023 sec

-------------------
DFT GRID GENERATION
-------------------

General Integration Accuracy     IntAcc      ...  4.670
Radial Grid Type                 RadialGrid  ... Gauss-Chebyshev
Angular Grid (max. acc.)         AngularGrid ... Lebedev-302
Angular grid pruning method      GridPruning ... 3 (G Style)
Weight generation scheme         WeightScheme... Becke
Basis function cutoff            BFCut       ...    1.0000e-11
Integration weight cutoff        WCut        ...    1.0000e-14
Grids for H and He will be reduced by one unit

# of grid points (after initial pruning)     ...  31974 (   0.0 sec)
# of grid points (after weights+screening)   ...  31838 (   0.0 sec)
nearest neighbour list constructed           ...    0.0 sec
Grid point re-assignment to atoms done       ...    0.0 sec
Grid point division into batches done        ...    0.3 sec
Reduced shell lists constructed in    0.3 sec

Total number of grid points                  ...    31838
Total number of batches                      ...      500
Average number of points per batch           ...       63
Average number of grid points per atom       ...    10613
Average number of shells per batch           ...     5.18 (10.80%)
Average number of basis functions per batch  ...    11.36 ( 6.76%)
Average number of large shells per batch     ...     3.32 (64.04%)
Average number of large basis fcns per batch ...     6.68 (58.80%)
Maximum spatial batch extension              ...  27.01, 22.64, 31.14 au
Average spatial batch extension              ...   0.75,  0.63,  0.73 au

Time for grid setup =    0.334 sec

------------------------------
INITIAL GUESS: MODEL POTENTIAL
------------------------------
Loading Hartree-Fock densities                     ... done
  calling /sw/apps/orca/orca_4_2_0_linux_x86-64_openmpi314/orca Ag03C1_D3H_atom47.inp > Ag03C1_D3H_atom47.out in order to generate an atomic fitting density for atom 0 (Ag with ECP) on-the-fly... 
    atom 0 (Ag), assumed electronic state with S=2: 1s2 2s2 2p6 3s2 3p6 4s2 3d10 4p6 5s2 4d9           ... done
Calculating cut-offs                               ... done
Setting up the integral package                    ... done
Initializing the effective Hamiltonian             ... done
Starting the Coulomb interaction                   ... done (   0.0 sec)
Reading the grid                                   ... done
Mapping shells                                     ... done
Starting the XC term evaluation                    ... done (   0.0 sec)
  promolecular density results
     # of electrons  =    141.001729661
     EX              =   -430.311889058
     EC              =     -7.473148663
     EX+EC           =   -437.785037721
Transforming the Hamiltonian                       ... done (   0.0 sec)
Diagonalizing the Hamiltonian                      ... done (   0.0 sec)
Back transforming the eigenvectors                 ... done (   0.0 sec)
Now organizing SCF variables                       ... done
                      ------------------
                      INITIAL GUESS DONE (   2.0 sec)
                      ------------------
--------------
SCF ITERATIONS
--------------
ITER       Energy         Delta-E        Max-DP      RMS-DP      [F,P]     Damp
               ***  Starting incremental Fock matrix formation  ***
  0   -440.3773769103   0.000000000000 0.09639185  0.00229991  0.5111753 0.7000
  1   -440.4950324432  -0.117655532991 0.04465458  0.00119697  0.3332674 0.7000
  2   -440.5341157007  -0.039083257407 0.01590817  0.00039759  0.2204293 0.7000
                               ***Turning on DIIS***
  3   -440.5597818574  -0.025666156745 0.00682474  0.00016859  0.1511026 0.7000
  4   -440.5787699507  -0.018988093302 0.00475054  0.00015443  0.1058002 0.7000
  5   -440.5921537526  -0.013383801912 0.01445090  0.00041452  0.0744236 0.0000
  6   -440.6232822130  -0.031128460433 0.00199949  0.00006117  0.0006362 0.0000
  7   -440.6232853824  -0.000003169320 0.00055923  0.00001949  0.0009873 0.0000
  8   -440.6232896529  -0.000004270493 0.00010691  0.00000420  0.0001557 0.0000
  9   -440.6232897927  -0.000000139867 0.00002031  0.00000090  0.0000239 0.0000
 10   -440.6232897967  -0.000000003969 0.00000624  0.00000022  0.0000139 0.0000
 11   -440.6232897975  -0.000000000842 0.00000115  0.00000003  0.0000023 0.0000
                 **** Energy Check signals convergence ****

               *****************************************************
               *                     SUCCESS                       *
               *           SCF CONVERGED AFTER  12 CYCLES          *
               *****************************************************


----------------
TOTAL SCF ENERGY
----------------

Total Energy       :         -440.62328980 Eh          -11989.96927 eV

Components:
Nuclear Repulsion  :          216.27810151 Eh            5885.22634 eV
Electronic Energy  :         -656.90139130 Eh          -17875.19561 eV
One Electron Energy:        -1204.48064942 Eh          -32775.58475 eV
Two Electron Energy:          547.57925811 Eh           14900.38913 eV

Virial components:
Potential Energy   :         -609.31547114 Eh          -16580.31690 eV
Kinetic Energy     :          168.69218134 Eh            4590.34762 eV
Virial Ratio       :            3.61199592


DFT components:
N(Alpha)           :       27.999983495728 electrons
N(Beta)            :       27.999983495728 electrons
N(Total)           :       55.999966991455 electrons
E(X)               :      -35.669782879877 Eh       
E(C)               :       -2.462364329876 Eh       
E(XC)              :      -38.132147209753 Eh       
DFET-embed. en.    :        0.000000000000 Eh       

---------------
SCF CONVERGENCE
---------------

  Last Energy change         ...    4.3315e-11  Tolerance :   1.0000e-08
  Last MAX-Density change    ...    5.6301e-07  Tolerance :   1.0000e-07
  Last RMS-Density change    ...    1.4306e-08  Tolerance :   5.0000e-09
  Last DIIS Error            ...    1.2043e-07  Tolerance :   5.0000e-07

             **** THE GBW FILE WAS UPDATED (Ag03C1_D3H.gbw) ****
             **** DENSITY FILE WAS UPDATED (Ag03C1_D3H.scfp) ****
             **** ENERGY FILE WAS UPDATED (Ag03C1_D3H.en.tmp) ****
             **** THE GBW FILE WAS UPDATED (Ag03C1_D3H.gbw) ****
             **** DENSITY FILE WAS UPDATED (Ag03C1_D3H.scfp) ****
----------------
ORBITAL ENERGIES
----------------

  NO   OCC          E(Eh)            E(eV) 
   0   2.0000      -3.864118      -105.1480 
   1   2.0000      -3.863606      -105.1341 
   2   2.0000      -3.863603      -105.1340 
   3   2.0000      -2.474386       -67.3315 
   4   2.0000      -2.471450       -67.2516 
   5   2.0000      -2.471445       -67.2514 
   6   2.0000      -2.468480       -67.1708 
   7   2.0000      -2.468471       -67.1705 
   8   2.0000      -2.468403       -67.1687 
   9   2.0000      -2.467170       -67.1351 
  10   2.0000      -2.466620       -67.1201 
  11   2.0000      -2.466617       -67.1201 
  12   2.0000      -0.543997       -14.8029 
  13   2.0000      -0.525190       -14.2912 
  14   2.0000      -0.525187       -14.2911 
  15   2.0000      -0.519606       -14.1392 
  16   2.0000      -0.505374       -13.7519 
  17   2.0000      -0.501574       -13.6485 
  18   2.0000      -0.501565       -13.6483 
  19   2.0000      -0.483027       -13.1438 
  20   2.0000      -0.483027       -13.1438 
  21   2.0000      -0.479089       -13.0367 
  22   2.0000      -0.476421       -12.9641 
  23   2.0000      -0.476396       -12.9634 
  24   2.0000      -0.475692       -12.9442 
  25   2.0000      -0.475678       -12.9439 
  26   2.0000      -0.459365       -12.4999 
  27   2.0000      -0.416256       -11.3269 
  28   0.0000      -0.275634        -7.5004 
  29   0.0000      -0.275633        -7.5003 
  30   0.0000      -0.202176        -5.5015 
  31   0.0000      -0.171340        -4.6624 
  32   0.0000      -0.157897        -4.2966 
  33   0.0000      -0.157895        -4.2966 
  34   0.0000      -0.110429        -3.0049 
  35   0.0000      -0.110428        -3.0049 
  36   0.0000      -0.048704        -1.3253 
  37   0.0000      -0.048703        -1.3253 
  38   0.0000      -0.046023        -1.2523 
  39   0.0000      -0.037758        -1.0275 
  40   0.0000       0.016062         0.4371 
  41   0.0000       0.018173         0.4945 
  42   0.0000       0.028136         0.7656 
  43   0.0000       0.028136         0.7656 
  44   0.0000       0.037964         1.0331 
  45   0.0000       0.037964         1.0331 
  46   0.0000       0.077809         2.1173 
  47   0.0000       0.077811         2.1173 
  48   0.0000       0.142970         3.8904 
  49   0.0000       0.181671         4.9435 
  50   0.0000       0.191623         5.2143 
  51   0.0000       0.191625         5.2144 
  52   0.0000       0.219143         5.9632 
  53   0.0000       0.219146         5.9633 
  54   0.0000       0.228569         6.2197 
  55   0.0000       0.324173         8.8212 
  56   0.0000       0.324174         8.8212 
  57   0.0000       0.366621         9.9763 
  58   0.0000       0.384244        10.4558 
  59   0.0000       0.419681        11.4201 
  60   0.0000       0.419681        11.4201 
  61   0.0000       0.424745        11.5579 
  62   0.0000       0.424748        11.5580 
  63   0.0000       0.503574        13.7029 
  64   0.0000       0.503580        13.7031 
  65   0.0000       0.556147        15.1335 
  66   0.0000       1.268066        34.5058 
  67   0.0000       1.268077        34.5061 
  68   0.0000       1.303771        35.4774 
  69   0.0000       1.314059        35.7574 
  70   0.0000       1.343607        36.5614 
  71   0.0000       1.345031        36.6002 
  72   0.0000       1.345056        36.6008 
  73   0.0000       1.370163        37.2840 
  74   0.0000       1.370170        37.2842 
  75   0.0000       1.373960        37.3874 
  76   0.0000       1.388407        37.7805 
  77   0.0000       1.388419        37.7808 
  78   0.0000       1.389622        37.8135 
  79   0.0000       1.398292        38.0494 
  80   0.0000       1.398305        38.0498 
  81   0.0000       1.414845        38.4999 
  82   0.0000       1.414851        38.5000 
  83   0.0000       1.422833        38.7173 
  84   0.0000       1.429893        38.9094 
  85   0.0000       1.429906        38.9097 
  86   0.0000       1.440308        39.1928 
  87   0.0000       1.482403        40.3382 
  88   0.0000       1.491290        40.5801 
  89   0.0000       1.491316        40.5808 
  90   0.0000       1.515717        41.2448 
  91   0.0000       1.526922        41.5497 
  92   0.0000       1.526942        41.5502 
  93   0.0000       1.555642        42.3312 
  94   0.0000       1.555645        42.3312 
  95   0.0000       1.709540        46.5189 
  96   0.0000       1.751694        47.6660 
  97   0.0000       1.840530        50.0834 
  98   0.0000       1.850596        50.3573 
  99   0.0000       1.850661        50.3590 
 100   0.0000       1.882903        51.2364 
 101   0.0000       1.882950        51.2377 
 102   0.0000       1.885723        51.3131 
 103   0.0000       1.898932        51.6726 
 104   0.0000       1.910712        51.9931 
 105   0.0000       1.910807        51.9957 
 106   0.0000       1.926880        52.4331 
 107   0.0000       1.926992        52.4361 
 108   0.0000       2.024023        55.0765 
 109   0.0000       2.024089        55.0783 
 110   0.0000       2.051830        55.8331 
 111   0.0000       2.167379        58.9774 
 112   0.0000       2.342971        63.7555 
 113   0.0000       2.342996        63.7562 
 114   0.0000       4.546222       123.7090 
 115   0.0000       4.563068       124.1674 
 116   0.0000       4.563133       124.1692 
 117   0.0000       4.574077       124.4670 
 118   0.0000       4.576447       124.5315 
 119   0.0000       4.576522       124.5335 
 120   0.0000       4.584216       124.7429 
 121   0.0000       4.599938       125.1707 
 122   0.0000       4.603994       125.2810 
 123   0.0000       4.604041       125.2823 
 124   0.0000       4.612401       125.5098 
 125   0.0000       4.612482       125.5120 
 126   0.0000       4.617760       125.6556 
 127   0.0000       4.660611       126.8217 
 128   0.0000       4.682392       127.4144 
 129   0.0000       4.682454       127.4161 
 130   0.0000       4.684798       127.4798 
 131   0.0000       4.684962       127.4843 
 132   0.0000       4.843650       131.8024 
 133   0.0000       4.843663       131.8028 
 134   0.0000       4.860234       132.2537 
 135   0.0000       5.364944       145.9876 
 136   0.0000       5.366070       146.0182 
 137   0.0000       5.366210       146.0220 
 138   0.0000       5.366572       146.0319 
 139   0.0000       5.366869       146.0399 
 140   0.0000       5.367260       146.0506 
 141   0.0000       5.367315       146.0521 
 142   0.0000       5.367501       146.0571 
 143   0.0000       5.367728       146.0633 
 144   0.0000       5.367840       146.0663 
 145   0.0000       5.368318       146.0794 
 146   0.0000       5.368358       146.0804 
 147   0.0000       5.368822       146.0931 
 148   0.0000       5.369261       146.1050 
 149   0.0000       5.369274       146.1054 
 150   0.0000       5.369966       146.1242 
 151   0.0000       5.370529       146.1395 
 152   0.0000       5.371049       146.1537 
 153   0.0000       5.371094       146.1549 
 154   0.0000       5.371097       146.1550 
 155   0.0000       5.371177       146.1572 
 156   0.0000       5.371346       146.1617 
 157   0.0000       5.371420       146.1638 
 158   0.0000       5.371822       146.1747 
 159   0.0000       5.373264       146.2139 
 160   0.0000       5.380832       146.4199 
 161   0.0000       5.380982       146.4240 
 162   0.0000      33.126150       901.4084 
 163   0.0000      33.463307       910.5829 
 164   0.0000      33.463311       910.5830 
 165   0.0000     110.552356      3008.2825 
 166   0.0000     110.660494      3011.2251 
 167   0.0000     110.660496      3011.2252 

                    ********************************
                    * MULLIKEN POPULATION ANALYSIS *
                    ********************************

-----------------------
MULLIKEN ATOMIC CHARGES
-----------------------
   0 Ag:    0.333349
   1 Ag:    0.333326
   2 Ag:    0.333325
Sum of atomic charges:    1.0000000

--------------------------------
MULLIKEN REDUCED ORBITAL CHARGES
--------------------------------
  0 Ags       :     2.653557  s :     2.653557
      pz      :     2.011430  p :     6.095973
      px      :     2.013837
      py      :     2.070706
      dz2     :     1.991325  d :     9.915245
      dxz     :     1.996214
      dyz     :     1.991863
      dx2y2   :     1.985948
      dxy     :     1.949894
      f0      :     0.000165  f :     0.001854
      f+1     :     0.000110
      f-1     :     0.000301
      f+2     :     0.000105
      f-2     :     0.000217
      f+3     :     0.000565
      f-3     :     0.000390
      g0      :     0.000002  g :     0.000021
      g+1     :     0.000001
      g-1     :     0.000002
      g+2     :     0.000001
      g-2     :     0.000003
      g+3     :     0.000002
      g-3     :     0.000000
      g+4     :     0.000004
      g-4     :     0.000005
  1 Ags       :     2.653576  s :     2.653576
      pz      :     2.011428  p :     6.095974
      px      :     2.056487
      py      :     2.028059
      dz2     :     1.991327  d :     9.915250
      dxz     :     1.992954
      dyz     :     1.995124
      dx2y2   :     1.958915
      dxy     :     1.976930
      f0      :     0.000165  f :     0.001854
      f+1     :     0.000254
      f-1     :     0.000158
      f+2     :     0.000189
      f-2     :     0.000133
      f+3     :     0.000565
      f-3     :     0.000390
      g0      :     0.000002  g :     0.000021
      g+1     :     0.000002
      g-1     :     0.000001
      g+2     :     0.000002
      g-2     :     0.000002
      g+3     :     0.000002
      g-3     :     0.000000
      g+4     :     0.000005
      g-4     :     0.000005
  2 Ags       :     2.653576  s :     2.653576
      pz      :     2.011428  p :     6.095974
      px      :     2.056487
      py      :     2.028059
      dz2     :     1.991327  d :     9.915250
      dxz     :     1.992954
      dyz     :     1.995124
      dx2y2   :     1.958915
      dxy     :     1.976930
      f0      :     0.000165  f :     0.001854
      f+1     :     0.000254
      f-1     :     0.000158
      f+2     :     0.000189
      f-2     :     0.000133
      f+3     :     0.000565
      f-3     :     0.000390
      g0      :     0.000002  g :     0.000021
      g+1     :     0.000002
      g-1     :     0.000001
      g+2     :     0.000002
      g-2     :     0.000002
      g+3     :     0.000002
      g-3     :     0.000000
      g+4     :     0.000005
      g-4     :     0.000005


                     *******************************
                     * LOEWDIN POPULATION ANALYSIS *
                     *******************************

----------------------
LOEWDIN ATOMIC CHARGES
----------------------
   0 Ag:    0.333341
   1 Ag:    0.333330
   2 Ag:    0.333330

-------------------------------
LOEWDIN REDUCED ORBITAL CHARGES
-------------------------------
  0 Ags       :     2.541314  s :     2.541314
      pz      :     2.013749  p :     6.180034
      px      :     2.024991
      py      :     2.141294
      dz2     :     2.000795  d :     9.942723
      dxz     :     1.995946
      dyz     :     1.989657
      dx2y2   :     1.988980
      dxy     :     1.967345
      f0      :     0.000215  f :     0.002562
      f+1     :     0.000160
      f-1     :     0.000355
      f+2     :     0.000130
      f-2     :     0.000297
      f+3     :     0.000903
      f-3     :     0.000502
      g0      :     0.000002  g :     0.000028
      g+1     :     0.000001
      g-1     :     0.000003
      g+2     :     0.000002
      g-2     :     0.000004
      g+3     :     0.000003
      g-3     :     0.000000
      g+4     :     0.000005
      g-4     :     0.000008
  1 Ags       :     2.541326  s :     2.541326
      pz      :     2.013748  p :     6.180032
      px      :     2.112217
      py      :     2.054067
      dz2     :     2.000794  d :     9.942723
      dxz     :     1.991232
      dyz     :     1.994372
      dx2y2   :     1.972758
      dxy     :     1.983568
      f0      :     0.000214  f :     0.002562
      f+1     :     0.000306
      f-1     :     0.000209
      f+2     :     0.000255
      f-2     :     0.000172
      f+3     :     0.000902
      f-3     :     0.000502
      g0      :     0.000002  g :     0.000028
      g+1     :     0.000002
      g-1     :     0.000002
      g+2     :     0.000003
      g-2     :     0.000002
      g+3     :     0.000003
      g-3     :     0.000000
      g+4     :     0.000007
      g-4     :     0.000006
  2 Ags       :     2.541326  s :     2.541326
      pz      :     2.013748  p :     6.180032
      px      :     2.112217
      py      :     2.054067
      dz2     :     2.000794  d :     9.942723
      dxz     :     1.991232
      dyz     :     1.994372
      dx2y2   :     1.972758
      dxy     :     1.983568
      f0      :     0.000214  f :     0.002562
      f+1     :     0.000306
      f-1     :     0.000209
      f+2     :     0.000255
      f-2     :     0.000172
      f+3     :     0.000902
      f-3     :     0.000502
      g0      :     0.000002  g :     0.000028
      g+1     :     0.000002
      g-1     :     0.000002
      g+2     :     0.000003
      g-2     :     0.000002
      g+3     :     0.000003
      g-3     :     0.000000
      g+4     :     0.000007
      g-4     :     0.000006


                      *****************************
                      * MAYER POPULATION ANALYSIS *
                      *****************************

  NA   - Mulliken gross atomic population
  ZA   - Total nuclear charge
  QA   - Mulliken gross atomic charge
  VA   - Mayer's total valence
  BVA  - Mayer's bonded valence
  FA   - Mayer's free valence

  ATOM       NA         ZA         QA         VA         BVA        FA
  0 Ag    18.6667    19.0000     0.3333     1.1273     1.1273     0.0000
  1 Ag    18.6667    19.0000     0.3333     1.1273     1.1273     0.0000
  2 Ag    18.6667    19.0000     0.3333     1.1273     1.1273    -0.0000

  Mayer bond orders larger than 0.100000
B(  0-Ag,  1-Ag) :   0.5637 B(  0-Ag,  2-Ag) :   0.5637 B(  1-Ag,  2-Ag) :   0.5636 


-------
TIMINGS
-------

Total SCF time: 0 days 0 hours 0 min 6 sec 

Total time                  ....       6.856 sec
Sum of individual times     ....       6.637 sec  ( 96.8%)

Fock matrix formation       ....       4.599 sec  ( 67.1%)
  XC integration            ....       0.549 sec  ( 11.9% of F)
    Basis function eval.    ....       0.048 sec  (  8.8% of XC)
    Density eval.           ....       0.068 sec  ( 12.3% of XC)
    XC-Functional eval.     ....       0.030 sec  (  5.5% of XC)
    XC-Potential eval.      ....       0.136 sec  ( 24.8% of XC)
Diagonalization             ....       0.046 sec  (  0.7%)
Density matrix formation    ....       0.008 sec  (  0.1%)
Population analysis         ....       0.004 sec  (  0.1%)
Initial guess               ....       1.626 sec  ( 23.7%)
Orbital Transformation      ....       0.000 sec  (  0.0%)
Orbital Orthonormalization  ....       0.000 sec  (  0.0%)
DIIS solution               ....       0.020 sec  (  0.3%)
Grid generation             ....       0.334 sec  (  4.9%)


-------------------------------------------------------------------------------
                          DFT DISPERSION CORRECTION                            
                                                                               
                              DFTD3 V3.1  Rev 1                                
                          USING Becke-Johnson damping                          
-------------------------------------------------------------------------------
The TPSSH functional is recognized
Active option DFTDOPT                   ...         4   

molecular C6(AA) [au] = 2417.546456 


            DFT-D V3
 parameters
 s6 scaling factor         :     1.0000 
 a1 scaling factor         :     0.4529 
 s8 scaling factor         :     2.2382 
 a2 scaling factor         :     4.6550 
 ad hoc parameters k1-k3   :    16.0000     1.3333    -4.0000 

 Edisp/kcal,au: -3.445825100991  -0.005491271249 
 E6   /kcal   :  -0.970600368 
 E8   /kcal   :  -2.475224733 
 % E8         :  71.832570139 

-------------------------   ----------------
Dispersion correction           -0.005491271
-------------------------   ----------------


-------------------------   --------------------
FINAL SINGLE POINT ENERGY      -440.628781068741
-------------------------   --------------------



           ************************************************************
           *        Program running with 24 parallel MPI-processes    *
           *              working on a common directory               *
           ************************************************************
------------------------------------------------------------------------------
                         ORCA SCF GRADIENT CALCULATION
------------------------------------------------------------------------------

Gradient of the Kohn-Sham DFT energy:
Kohn-Sham wavefunction type      ... RKS
Hartree-Fock exchange scaling    ...    0.100
Number of operators              ...    1
Number of atoms                  ...    3
Basis set dimensions             ...  168
Integral neglect threshold       ... 2.5e-11
Integral primitive cutoff        ... 2.5e-12

Nuclear repulsion gradient       ... done
One Electron Gradient            
  ECP gradient                   ... done
Pre-screening matrix             ... done
Starting the two electron gradient:
Two electron gradient done
Exchange-correlation gradient    ... done
Dispersion correction            ... done

------------------
CARTESIAN GRADIENT
------------------

   1   Ag  :    0.000000003   -0.003908822   -0.000000007
   2   Ag  :   -0.003247718    0.002065797    0.000000002
   3   Ag  :    0.003247718    0.002065802    0.000000004

Difference to translation invariance:
           :    0.0000000022    0.0002227773   -0.0000000014

Norm of the cartesian gradient     ...    0.0067014397
RMS gradient                       ...    0.0022338132
MAX gradient                       ...    0.0039088224

-------
TIMINGS
-------

Total SCF gradient time            ...        3.400 sec

One electron gradient       ....       1.054 sec  ( 31.0%)
Prescreening matrices       ....       0.005 sec  (  0.1%)
Two electron gradient       ....       2.069 sec  ( 60.9%)
XC gradient                 ....       0.076 sec  (  2.2%)
------------------------------------------------------------------------------
                         ORCA GEOMETRY RELAXATION STEP
------------------------------------------------------------------------------

Reading the OPT-File                    .... done
Getting information on internals        .... done
Copying old internal coords+grads       .... done
Making the new internal coordinates     .... (new redundants).... done
Validating the new internal coordinates .... (new redundants).... done
Calculating the B-matrix                .... done
Calculating the G,G- and P matrices     .... done
Transforming gradient to internals      .... done
Projecting the internal gradient        .... done
Number of atoms                         ....   3
Number of internal coordinates          ....   6
Current Energy                          ....  -440.628781069 Eh
Current gradient norm                   ....     0.006701440 Eh/bohr
Maximum allowed component of the step   ....  0.300
Current trust radius                    ....  0.300
Evaluating the initial hessian          ....  (Almloef) done
Projecting the Hessian                  .... done
Forming the augmented Hessian           .... done
Diagonalizing the augmented Hessian     .... done
Last element of RFO vector              ....  0.999980847
Lowest eigenvalues of augmented Hessian:
 -0.000023951  0.625224324  0.629060144  0.629060299 1000.000000000
Length of the computed step             ....  0.006189307
The final length of the internal step   ....  0.006189307
Converting the step to cartesian space:
 Initial RMS(Int)=    0.0025267740
Transforming coordinates:
 Iter   0:  RMS(Cart)=    0.0011918809 RMS(Int)=    0.0025267750
 Iter   1:  RMS(Cart)=    0.0000000045 RMS(Int)=    0.0000000072
done
Storing new coordinates                 .... done

                                .--------------------.
          ----------------------|Geometry convergence|-------------------------
          Item                value                   Tolerance       Converged
          ---------------------------------------------------------------------
          RMS gradient        0.0015798163            0.0001000000      NO
          MAX gradient        0.0022924478            0.0003000000      NO
          RMS step            0.0025267740            0.0020000000      NO
          MAX step            0.0036660112            0.0040000000      YES
          ........................................................
          Max(Bonds)      0.0019      Max(Angles)    0.00
          Max(Dihed)        0.00      Max(Improp)    0.00
          ---------------------------------------------------------------------

The optimization has not yet converged - more geometry cycles are needed


    ---------------------------------------------------------------------------
                         Redundant Internal Coordinates
                            (Angstroem and degrees)

        Definition                    Value    dE/dq     Step     New-Value
    ----------------------------------------------------------------------------
     1. B(Ag  1,Ag  0)                2.6498 -0.002292  0.0019    2.6518   
     2. B(Ag  2,Ag  1)                2.6498 -0.002112  0.0018    2.6516   
     3. B(Ag  2,Ag  0)                2.6498 -0.002292  0.0019    2.6518   
     4. A(Ag  1,Ag  0,Ag  2)           60.00  0.000042   -0.00     60.00   
     5. A(Ag  0,Ag  1,Ag  2)           60.00 -0.000021    0.00     60.00   
     6. A(Ag  0,Ag  2,Ag  1)           60.00 -0.000021    0.00     60.00   
    ----------------------------------------------------------------------------

         *************************************************************
         *                GEOMETRY OPTIMIZATION CYCLE   2            *
         *************************************************************
---------------------------------
CARTESIAN COORDINATES (ANGSTROEM)
---------------------------------
  Ag     0.000000    1.531026    0.000000
  Ag     1.325806   -0.765513    0.000000
  Ag    -1.325806   -0.765513    0.000000

----------------------------
CARTESIAN COORDINATES (A.U.)
----------------------------
  NO LB      ZA    FRAG     MASS         X           Y           Z
   0 Ag   19.0000*   0   107.870    0.000000    2.893220    0.000000
   1 Ag   19.0000*   0   107.870    2.505411   -1.446609    0.000000
   2 Ag   19.0000*   0   107.870   -2.505411   -1.446609    0.000000
* core charge reduced due to ECP

--------------------------------
INTERNAL COORDINATES (ANGSTROEM)
--------------------------------
 Ag     0   0   0     0.000000000000     0.00000000     0.00000000
 Ag     1   0   0     2.651764060154     0.00000000     0.00000000
 Ag     2   1   0     2.651612400068    60.00189189     0.00000000

---------------------------
INTERNAL COORDINATES (A.U.)
---------------------------
 Ag     0   0   0     0.000000000000     0.00000000     0.00000000
 Ag     1   0   0     5.011107845465     0.00000000     0.00000000
 Ag     2   1   0     5.010821249437    60.00189189     0.00000000



           ************************************************************
           *        Program running with 24 parallel MPI-processes    *
           *              working on a common directory               *
           ************************************************************


           ************************************************************
           *        Program running with 24 parallel MPI-processes    *
           *              working on a common directory               *
           ************************************************************

Diagonalization of the overlap matrix:
Smallest eigenvalue                        ... 2.905e-03
Time for diagonalization                   ...    0.005 sec
Threshold for overlap eigenvalues          ... 1.000e-08
Number of eigenvalues below threshold      ... 0
Time for construction of square roots      ...    0.003 sec
Total time needed                          ...    0.009 sec

-------------------
DFT GRID GENERATION
-------------------

General Integration Accuracy     IntAcc      ...  4.670
Radial Grid Type                 RadialGrid  ... Gauss-Chebyshev
Angular Grid (max. acc.)         AngularGrid ... Lebedev-302
Angular grid pruning method      GridPruning ... 3 (G Style)
Weight generation scheme         WeightScheme... Becke
Basis function cutoff            BFCut       ...    1.0000e-11
Integration weight cutoff        WCut        ...    1.0000e-14
Grids for H and He will be reduced by one unit

# of grid points (after initial pruning)     ...  31974 (   0.0 sec)
# of grid points (after weights+screening)   ...  31838 (   0.0 sec)
nearest neighbour list constructed           ...    0.0 sec
Grid point re-assignment to atoms done       ...    0.0 sec
Grid point division into batches done        ...    0.3 sec
Reduced shell lists constructed in    0.3 sec

Total number of grid points                  ...    31838
Total number of batches                      ...      499
Average number of points per batch           ...       63
Average number of grid points per atom       ...    10613
Average number of shells per batch           ...     5.14 (10.70%)
Average number of basis functions per batch  ...    11.32 ( 6.74%)
Average number of large shells per batch     ...     3.32 (64.60%)
Average number of large basis fcns per batch ...     6.68 (59.04%)
Maximum spatial batch extension              ...  27.01, 24.03, 31.14 au
Average spatial batch extension              ...   0.75,  0.64,  0.72 au

Time for grid setup =    0.327 sec

--------------
SCF ITERATIONS
--------------
ITER       Energy         Delta-E        Max-DP      RMS-DP      [F,P]     Damp
               ***  Starting incremental Fock matrix formation  ***
  0   -440.6233144341   0.000000000000 0.00006754  0.00000205  0.0020589 0.7000
  1   -440.6233145612  -0.000000127098 0.00006568  0.00000189  0.0014438 0.7000
                               ***Turning on DIIS***
  2   -440.6233146447  -0.000000083501 0.00018075  0.00000475  0.0010110 0.0000
  3   -440.6233148312  -0.000000186538 0.00003844  0.00000129  0.0000261 0.0000
  4   -440.6233148309   0.000000000325 0.00001413  0.00000061  0.0000356 0.0000
  5   -440.6233148384  -0.000000007514 0.00000316  0.00000009  0.0000015 0.0000
  6   -440.6233148388  -0.000000000406 0.00000099  0.00000004  0.0000014 0.0000
                            ***DIIS convergence achieved***

               *****************************************************
               *                     SUCCESS                       *
               *           SCF CONVERGED AFTER   7 CYCLES          *
               *****************************************************

Total Energy       :         -440.62331484 Eh          -11989.96996 eV
  Last Energy change         ...    5.0022e-11  Tolerance :   1.0000e-08
  Last MAX-Density change    ...    5.3494e-07  Tolerance :   1.0000e-07
             **** THE GBW FILE WAS UPDATED (Ag03C1_D3H.gbw) ****
             **** DENSITY FILE WAS UPDATED (Ag03C1_D3H.scfp) ****
             **** ENERGY FILE WAS UPDATED (Ag03C1_D3H.en.tmp) ****
             **** THE GBW FILE WAS UPDATED (Ag03C1_D3H.gbw) ****
             **** DENSITY FILE WAS UPDATED (Ag03C1_D3H.scfp) ****
Total SCF time: 0 days 0 hours 0 min 3 sec 


-------------------------------------------------------------------------------
                          DFT DISPERSION CORRECTION                            
                                                                               
                              DFTD3 V3.1  Rev 1                                
                          USING Becke-Johnson damping                          
-------------------------------------------------------------------------------
-------------------------   ----------------
Dispersion correction           -0.005490852
-------------------------   ----------------


-------------------------   --------------------
FINAL SINGLE POINT ENERGY      -440.628805690943
-------------------------   --------------------



           ************************************************************
           *        Program running with 24 parallel MPI-processes    *
           *              working on a common directory               *
           ************************************************************
------------------------------------------------------------------------------
                         ORCA SCF GRADIENT CALCULATION
------------------------------------------------------------------------------

Gradient of the Kohn-Sham DFT energy:
Kohn-Sham wavefunction type      ... RKS
Hartree-Fock exchange scaling    ...    0.100
Number of operators              ...    1
Number of atoms                  ...    3
Basis set dimensions             ...  168
Integral neglect threshold       ... 2.5e-11
Integral primitive cutoff        ... 2.5e-12

Nuclear repulsion gradient       ... done
One Electron Gradient            
  ECP gradient                   ... done
Pre-screening matrix             ... done
Starting the two electron gradient:
Two electron gradient done
Exchange-correlation gradient    ... done
Dispersion correction            ... done

------------------
CARTESIAN GRADIENT
------------------

   1   Ag  :    0.000000006   -0.003602106   -0.000000004
   2   Ag  :   -0.002995676    0.001912449   -0.000000000
   3   Ag  :    0.002995674    0.001912448   -0.000000000

Difference to translation invariance:
           :    0.0000000042    0.0002227907   -0.0000000042

Norm of the cartesian gradient     ...    0.0061837064
RMS gradient                       ...    0.0020612355
MAX gradient                       ...    0.0036021062

-------
TIMINGS
-------

Total SCF gradient time            ...        3.403 sec

One electron gradient       ....       1.063 sec  ( 31.2%)
Prescreening matrices       ....       0.005 sec  (  0.2%)
Two electron gradient       ....       2.058 sec  ( 60.5%)
XC gradient                 ....       0.068 sec  (  2.0%)
------------------------------------------------------------------------------
                         ORCA GEOMETRY RELAXATION STEP
------------------------------------------------------------------------------

Reading the OPT-File                    .... done
Getting information on internals        .... done
Copying old internal coords+grads       .... done
Making the new internal coordinates     .... (new redundants).... done
Validating the new internal coordinates .... (new redundants).... done
Calculating the B-matrix                .... done
Calculating the G,G- and P matrices     .... done
Transforming gradient to internals      .... done
Projecting the internal gradient        .... done
Number of atoms                         ....   3
Number of internal coordinates          ....   6
Current Energy                          ....  -440.628805691 Eh
Current gradient norm                   ....     0.006183706 Eh/bohr
Maximum allowed component of the step   ....  0.300
Current trust radius                    ....  0.300
Updating the Hessian (BFGS)             .... done
Forming the augmented Hessian           .... done
Diagonalizing the augmented Hessian     .... done
Last element of RFO vector              ....  0.997309735
Lowest eigenvalues of augmented Hessian:
 -0.000262447  0.048580475  0.629055205  0.629060144 999.999866056
Length of the computed step             ....  0.073500488
The final length of the internal step   ....  0.073500488
Converting the step to cartesian space:
 Initial RMS(Int)=    0.0300064485
Transforming coordinates:
 Iter   0:  RMS(Cart)=    0.0141542355 RMS(Int)=    0.0300065918
 Iter   1:  RMS(Cart)=    0.0000006304 RMS(Int)=    0.0000010070
 Iter   2:  RMS(Cart)=    0.0000000005 RMS(Int)=    0.0000000008
done
Storing new coordinates                 .... done

                                .--------------------.
          ----------------------|Geometry convergence|-------------------------
          Item                value                   Tolerance       Converged
          ---------------------------------------------------------------------
          Energy change      -0.0000246222            0.0000050000      NO
          RMS gradient        0.0014577276            0.0001000000      NO
          MAX gradient        0.0021158306            0.0003000000      NO
          RMS step            0.0300064485            0.0020000000      NO
          MAX step            0.0435463894            0.0040000000      NO
          ........................................................
          Max(Bonds)      0.0230      Max(Angles)    0.05
          Max(Dihed)        0.00      Max(Improp)    0.00
          ---------------------------------------------------------------------

The optimization has not yet converged - more geometry cycles are needed


    ---------------------------------------------------------------------------
                         Redundant Internal Coordinates
                            (Angstroem and degrees)

        Definition                    Value    dE/dq     Step     New-Value
    ----------------------------------------------------------------------------
     1. B(Ag  1,Ag  0)                2.6518 -0.002116  0.0230    2.6748   
     2. B(Ag  2,Ag  1)                2.6516 -0.001948  0.0212    2.6728   
     3. B(Ag  2,Ag  0)                2.6518 -0.002116  0.0230    2.6748   
     4. A(Ag  1,Ag  0,Ag  2)           60.00  0.000039   -0.05     59.95   
     5. A(Ag  0,Ag  1,Ag  2)           60.00 -0.000019    0.02     60.02   
     6. A(Ag  0,Ag  2,Ag  1)           60.00 -0.000019    0.02     60.02   
    ----------------------------------------------------------------------------

         *************************************************************
         *                GEOMETRY OPTIMIZATION CYCLE   3            *
         *************************************************************
---------------------------------
CARTESIAN COORDINATES (ANGSTROEM)
---------------------------------
  Ag    -0.000000    1.544681    0.000000
  Ag     1.336418   -0.772340    0.000000
  Ag    -1.336418   -0.772340    0.000000

----------------------------
CARTESIAN COORDINATES (A.U.)
----------------------------
  NO LB      ZA    FRAG     MASS         X           Y           Z
   0 Ag   19.0000*   0   107.870   -0.000000    2.919024    0.000000
   1 Ag   19.0000*   0   107.870    2.525464   -1.459511    0.000000
   2 Ag   19.0000*   0   107.870   -2.525464   -1.459511    0.000000
* core charge reduced due to ECP

--------------------------------
INTERNAL COORDINATES (ANGSTROEM)
--------------------------------
 Ag     0   0   0     0.000000000000     0.00000000     0.00000000
 Ag     1   0   0     2.674808429523     0.00000000     0.00000000
 Ag     2   1   0     2.672836472917    60.02438343     0.00000000

---------------------------
INTERNAL COORDINATES (A.U.)
---------------------------
 Ag     0   0   0     0.000000000000     0.00000000     0.00000000
 Ag     1   0   0     5.054655392502     0.00000000     0.00000000
 Ag     2   1   0     5.050928934568    60.02438343     0.00000000



           ************************************************************
           *        Program running with 24 parallel MPI-processes    *
           *              working on a common directory               *
           ************************************************************


           ************************************************************
           *        Program running with 24 parallel MPI-processes    *
           *              working on a common directory               *
           ************************************************************

Diagonalization of the overlap matrix:
Smallest eigenvalue                        ... 3.032e-03
Time for diagonalization                   ...    0.007 sec
Threshold for overlap eigenvalues          ... 1.000e-08
Number of eigenvalues below threshold      ... 0
Time for construction of square roots      ...    0.003 sec
Total time needed                          ...    0.010 sec

-------------------
DFT GRID GENERATION
-------------------

General Integration Accuracy     IntAcc      ...  4.670
Radial Grid Type                 RadialGrid  ... Gauss-Chebyshev
Angular Grid (max. acc.)         AngularGrid ... Lebedev-302
Angular grid pruning method      GridPruning ... 3 (G Style)
Weight generation scheme         WeightScheme... Becke
Basis function cutoff            BFCut       ...    1.0000e-11
Integration weight cutoff        WCut        ...    1.0000e-14
Grids for H and He will be reduced by one unit

# of grid points (after initial pruning)     ...  31974 (   0.0 sec)
# of grid points (after weights+screening)   ...  31838 (   0.0 sec)
nearest neighbour list constructed           ...    0.0 sec
Grid point re-assignment to atoms done       ...    0.0 sec
Grid point division into batches done        ...    0.3 sec
Reduced shell lists constructed in    0.3 sec

Total number of grid points                  ...    31838
Total number of batches                      ...      499
Average number of points per batch           ...       63
Average number of grid points per atom       ...    10613
Average number of shells per batch           ...     5.09 (10.61%)
Average number of basis functions per batch  ...    11.27 ( 6.71%)
Average number of large shells per batch     ...     3.32 (65.18%)
Average number of large basis fcns per batch ...     6.68 (59.27%)
Maximum spatial batch extension              ...  27.05, 24.03, 31.14 au
Average spatial batch extension              ...   0.75,  0.64,  0.72 au

Time for grid setup =    0.312 sec

--------------
SCF ITERATIONS
--------------
ITER       Energy         Delta-E        Max-DP      RMS-DP      [F,P]     Damp
               ***  Starting incremental Fock matrix formation  ***
  0   -440.6234230458   0.000000000000 0.00077804  0.00002357  0.0240570 0.7000
  1   -440.6234402266  -0.000017180823 0.00076074  0.00002182  0.0168701 0.7000
                               ***Turning on DIIS***
  2   -440.6234515584  -0.000011331734 0.00211611  0.00005528  0.0118129 0.0000
  3   -440.6234770626  -0.000025504260 0.00046990  0.00001509  0.0003024 0.0000
  4   -440.6234768125   0.000000250154 0.00016161  0.00000709  0.0004113 0.0000
  5   -440.6234778560  -0.000001043550 0.00003688  0.00000111  0.0000170 0.0000
  6   -440.6234778581  -0.000000002077 0.00001199  0.00000048  0.0000172 0.0000
  7   -440.6234778599  -0.000000001811 0.00000643  0.00000018  0.0000096 0.0000
                 **** Energy Check signals convergence ****

               *****************************************************
               *                     SUCCESS                       *
               *           SCF CONVERGED AFTER   8 CYCLES          *
               *****************************************************

Total Energy       :         -440.62347786 Eh          -11989.97439 eV
  Last Energy change         ...   -1.8395e-10  Tolerance :   1.0000e-08
  Last MAX-Density change    ...    6.3168e-06  Tolerance :   1.0000e-07
             **** THE GBW FILE WAS UPDATED (Ag03C1_D3H.gbw) ****
             **** DENSITY FILE WAS UPDATED (Ag03C1_D3H.scfp) ****
             **** ENERGY FILE WAS UPDATED (Ag03C1_D3H.en.tmp) ****
             **** THE GBW FILE WAS UPDATED (Ag03C1_D3H.gbw) ****
             **** DENSITY FILE WAS UPDATED (Ag03C1_D3H.scfp) ****
Total SCF time: 0 days 0 hours 0 min 3 sec 


-------------------------------------------------------------------------------
                          DFT DISPERSION CORRECTION                            
                                                                               
                              DFTD3 V3.1  Rev 1                                
                          USING Becke-Johnson damping                          
-------------------------------------------------------------------------------
-------------------------   ----------------
Dispersion correction           -0.005485743
-------------------------   ----------------


-------------------------   --------------------
FINAL SINGLE POINT ENERGY      -440.628963603471
-------------------------   --------------------



           ************************************************************
           *        Program running with 24 parallel MPI-processes    *
           *              working on a common directory               *
           ************************************************************
------------------------------------------------------------------------------
                         ORCA SCF GRADIENT CALCULATION
------------------------------------------------------------------------------

Gradient of the Kohn-Sham DFT energy:
Kohn-Sham wavefunction type      ... RKS
Hartree-Fock exchange scaling    ...    0.100
Number of operators              ...    1
Number of atoms                  ...    3
Basis set dimensions             ...  168
Integral neglect threshold       ... 2.5e-11
Integral primitive cutoff        ... 2.5e-12

Nuclear repulsion gradient       ... done
One Electron Gradient            
  ECP gradient                   ... done
Pre-screening matrix             ... done
Starting the two electron gradient:
Two electron gradient done
Exchange-correlation gradient    ... done
Dispersion correction            ... done

------------------
CARTESIAN GRADIENT
------------------

   1   Ag  :   -0.000000000   -0.000150672    0.000000003
   2   Ag  :   -0.000153657    0.000185751   -0.000000001
   3   Ag  :    0.000153659    0.000185750   -0.000000001

Difference to translation invariance:
           :    0.0000000020    0.0002208289    0.0000000007

Norm of the cartesian gradient     ...    0.0003727336
RMS gradient                       ...    0.0001242445
MAX gradient                       ...    0.0001857509

-------
TIMINGS
-------

Total SCF gradient time            ...        3.374 sec

One electron gradient       ....       1.060 sec  ( 31.4%)
Prescreening matrices       ....       0.005 sec  (  0.2%)
Two electron gradient       ....       2.020 sec  ( 59.9%)
XC gradient                 ....       0.063 sec  (  1.9%)
------------------------------------------------------------------------------
                         ORCA GEOMETRY RELAXATION STEP
------------------------------------------------------------------------------

Reading the OPT-File                    .... done
Getting information on internals        .... done
Copying old internal coords+grads       .... done
Making the new internal coordinates     .... (new redundants).... done
Validating the new internal coordinates .... (new redundants).... done
Calculating the B-matrix                .... done
Calculating the G,G- and P matrices     .... done
Transforming gradient to internals      .... done
Projecting the internal gradient        .... done
Number of atoms                         ....   3
Number of internal coordinates          ....   6
Current Energy                          ....  -440.628963603 Eh
Current gradient norm                   ....     0.000372734 Eh/bohr
Maximum allowed component of the step   ....  0.300
Current trust radius                    ....  0.300
Updating the Hessian (BFGS)             .... done
Forming the augmented Hessian           .... done
Diagonalizing the augmented Hessian     .... done
Last element of RFO vector              ....  0.999990291
Lowest eigenvalues of augmented Hessian:
 -0.000000891  0.045833528  0.629057357  0.629060144 999.711294956
Length of the computed step             ....  0.004406702
The final length of the internal step   ....  0.004406702
Converting the step to cartesian space:
 Initial RMS(Int)=    0.0017990286
Transforming coordinates:
 Iter   0:  RMS(Cart)=    0.0008488693 RMS(Int)=    0.0017990294
 Iter   1:  RMS(Cart)=    0.0000000027 RMS(Int)=    0.0000000043
done
Storing new coordinates                 .... done

                                .--------------------.
          ----------------------|Geometry convergence|-------------------------
          Item                value                   Tolerance       Converged
          ---------------------------------------------------------------------
          Energy change      -0.0001579125            0.0000050000      NO
          RMS gradient        0.0000829871            0.0001000000      YES
          MAX gradient        0.0001280448            0.0003000000      YES
          RMS step            0.0017990286            0.0020000000      YES
          MAX step            0.0026248647            0.0040000000      YES
          ........................................................
          Max(Bonds)      0.0014      Max(Angles)    0.00
          Max(Dihed)        0.00      Max(Improp)    0.00
          ---------------------------------------------------------------------

       Everything but the energy has converged. However, the energy
       appears to be close enough to convergence to make sure that the
       final evaluation at the new geometry represents the equilibrium energy.
       Convergence will therefore be signaled now


                    ***********************HURRAY********************
                    ***        THE OPTIMIZATION HAS CONVERGED     ***
                    *************************************************


    ---------------------------------------------------------------------------
                         Redundant Internal Coordinates

                          --- Optimized Parameters ---  
                            (Angstroem and degrees)

        Definition                    OldVal   dE/dq     Step     FinalVal
    ----------------------------------------------------------------------------
     1. B(Ag  1,Ag  0)                2.6748 -0.000128  0.0014    2.6762   
     2. B(Ag  2,Ag  1)                2.6728 -0.000092  0.0013    2.6741   
     3. B(Ag  2,Ag  0)                2.6748 -0.000128  0.0014    2.6762   
     4. A(Ag  1,Ag  0,Ag  2)           59.95  0.000008   -0.00     59.95   
     5. A(Ag  0,Ag  1,Ag  2)           60.02 -0.000004    0.00     60.03   
     6. A(Ag  0,Ag  2,Ag  1)           60.02 -0.000004    0.00     60.03   
    ----------------------------------------------------------------------------
                 *******************************************************
                 *** FINAL ENERGY EVALUATION AT THE STATIONARY POINT ***
                 ***               (AFTER    3 CYCLES)               ***
                 *******************************************************
---------------------------------
CARTESIAN COORDINATES (ANGSTROEM)
---------------------------------
  Ag    -0.000000    1.545509    0.000000
  Ag     1.337046   -0.772754    0.000000
  Ag    -1.337046   -0.772754    0.000000

----------------------------
CARTESIAN COORDINATES (A.U.)
----------------------------
  NO LB      ZA    FRAG     MASS         X           Y           Z
   0 Ag   19.0000*   0   107.870   -0.000000    2.920588    0.000000
   1 Ag   19.0000*   0   107.870    2.526651   -1.460293    0.000000
   2 Ag   19.0000*   0   107.870   -2.526651   -1.460293    0.000000
* core charge reduced due to ECP

--------------------------------
INTERNAL COORDINATES (ANGSTROEM)
--------------------------------
 Ag     0   0   0     0.000000000000     0.00000000     0.00000000
 Ag     1   0   0     2.676197492068     0.00000000     0.00000000
 Ag     2   1   0     2.674092471782    60.02601508     0.00000000

---------------------------
INTERNAL COORDINATES (A.U.)
---------------------------
 Ag     0   0   0     0.000000000000     0.00000000     0.00000000
 Ag     1   0   0     5.057280340295     0.00000000     0.00000000
 Ag     2   1   0     5.053302428448    60.02601508     0.00000000

---------------------
BASIS SET INFORMATION
---------------------
There are 1 groups of distinct atoms

 Group   1 Type Ag  : 7s7p6d2f1g contracted to 6s4p3d2f1g pattern {211111/4111/411/11/1}

Atom   0Ag   basis set group =>   1
Atom   1Ag   basis set group =>   1
Atom   2Ag   basis set group =>   1
----------------------------------
AUXILIARY/JK BASIS SET INFORMATION
----------------------------------
There are 1 groups of distinct atoms

 Group   1 Type Ag  : 13s12p10d9f6g3h2i contracted to 11s10p9d8f6g3h2i pattern {31111111111/3111111111/211111111/21111111/111111/111/11}

Atom   0Ag   basis set group =>   1
Atom   1Ag   basis set group =>   1
Atom   2Ag   basis set group =>   1
-------------------------
ECP PARAMETER INFORMATION
-------------------------

 Group 1, Type Ag ECP Def2-ECP (replacing 28 core electrons, lmax=3)

Atom   0Ag   ECP group =>   1
Atom   1Ag   ECP group =>   1
Atom   2Ag   ECP group =>   1



           ************************************************************
           *        Program running with 24 parallel MPI-processes    *
           *              working on a common directory               *
           ************************************************************
------------------------------------------------------------------------------
                           ORCA GTO INTEGRAL CALCULATION
------------------------------------------------------------------------------

                         BASIS SET STATISTICS AND STARTUP INFO

 # of primitive gaussian shells          ...   69
 # of primitive gaussian functions       ...  243
 # of contracted shells                  ...   48
 # of contracted basis functions         ...  168
 Highest angular momentum                ...    4
 Maximum contraction depth               ...    4
 Integral package used                   ... LIBINT
 Integral threshhold            Thresh   ...  2.500e-11
 Primitive cut-off              TCut     ...  2.500e-12


------------------------------ INTEGRAL EVALUATION ----------------------------


 * One electron integrals 

   ECP integrals                         ... done
 Pre-screening matrix                    ... done
 Shell pair data                         ... done (   0.000 sec)



           ************************************************************
           *        Program running with 24 parallel MPI-processes    *
           *              working on a common directory               *
           ************************************************************
-------------------------------------------------------------------------------
                                 ORCA SCF
-------------------------------------------------------------------------------

------------
SCF SETTINGS
------------
Hamiltonian:
 Density Functional     Method          .... DFT(GTOs)
 Exchange Functional    Exchange        .... TPSS
 Correlation Functional Correlation     .... TPSS
 LDA part of GGA corr.  LDAOpt          .... PW91-LDA
 Gradients option       PostSCFGGA      .... off
 Hybrid DFT is turned on
   Fraction HF Exchange ScalHFX         ....  0.100000
   Scaling of DF-GGA-X  ScalDFX         ....  0.900000
   Scaling of DF-GGA-C  ScalDFC         ....  1.000000
   Scaling of DF-LDA-C  ScalLDAC        ....  1.000000
   Perturbative correction              ....  0.000000
   Density functional embedding theory  .... OFF
   NL short-range parameter             ....  5.200000


General Settings:
 Integral files         IntName         .... Ag03C1_D3H
 Hartree-Fock type      HFTyp           .... RHF
 Total Charge           Charge          ....    1
 Multiplicity           Mult            ....    1
 Number of Electrons    NEL             ....   56
 Basis Dimension        Dim             ....  168
 Nuclear Repulsion      ENuc            ....    214.2029131855 Eh

Convergence Acceleration:
 DIIS                   CNVDIIS         .... on
   Start iteration      DIISMaxIt       ....    12
   Startup error        DIISStart       ....  0.200000
   # of expansion vecs  DIISMaxEq       ....     5
   Bias factor          DIISBfac        ....   1.050
   Max. coefficient     DIISMaxC        ....  10.000
 Newton-Raphson         CNVNR           .... off
 SOSCF                  CNVSOSCF        .... off
 Level Shifting         CNVShift        .... on
   Level shift para.    LevelShift      ....    0.2500
   Turn off err/grad.   ShiftErr        ....    0.0010
 Zerner damping         CNVZerner       .... off
 Static damping         CNVDamp         .... on
   Fraction old density DampFac         ....    0.7000
   Max. Damping (<1)    DampMax         ....    0.9800
   Min. Damping (>=0)   DampMin         ....    0.0000
   Turn off err/grad.   DampErr         ....    0.1000
 Fernandez-Rico         CNVRico         .... off

SCF Procedure:
 Maximum # iterations   MaxIter         ....   125
 SCF integral mode      SCFMode         .... Direct
   Integral package                     .... LIBINT
 Reset frequency        DirectResetFreq ....    20
 Integral Threshold     Thresh          ....  2.500e-11 Eh
 Primitive CutOff       TCut            ....  2.500e-12 Eh

Convergence Tolerance:
 Convergence Check Mode ConvCheckMode   .... Total+1el-Energy
 Convergence forced     ConvForced      .... 0
 Energy Change          TolE            ....  1.000e-08 Eh
 1-El. energy change                    ....  1.000e-05 Eh
 DIIS Error             TolErr          ....  5.000e-07


Diagonalization of the overlap matrix:
Smallest eigenvalue                        ... 3.040e-03
Time for diagonalization                   ...    0.006 sec
Threshold for overlap eigenvalues          ... 1.000e-08
Number of eigenvalues below threshold      ... 0
Time for construction of square roots      ...    0.003 sec
Total time needed                          ...    0.010 sec

---------------------
INITIAL GUESS: MOREAD
---------------------
Guess MOs are being read from file: Ag03C1_D3H.gbw
Input Geometry matches current geometry (good)
Input basis set matches current basis set (good)
MOs were renormalized
MOs were reorthogonalized (Cholesky)
                      ------------------
                      INITIAL GUESS DONE (   0.0 sec)
                      ------------------
-------------------
DFT GRID GENERATION
-------------------

General Integration Accuracy     IntAcc      ...  4.670
Radial Grid Type                 RadialGrid  ... Gauss-Chebyshev
Angular Grid (max. acc.)         AngularGrid ... Lebedev-302
Angular grid pruning method      GridPruning ... 3 (G Style)
Weight generation scheme         WeightScheme... Becke
Basis function cutoff            BFCut       ...    1.0000e-11
Integration weight cutoff        WCut        ...    1.0000e-14
Grids for H and He will be reduced by one unit

# of grid points (after initial pruning)     ...  31974 (   0.0 sec)
# of grid points (after weights+screening)   ...  31838 (   0.0 sec)
nearest neighbour list constructed           ...    0.0 sec
Grid point re-assignment to atoms done       ...    0.0 sec
Grid point division into batches done        ...    0.3 sec
Reduced shell lists constructed in    0.3 sec

Total number of grid points                  ...    31838
Total number of batches                      ...      499
Average number of points per batch           ...       63
Average number of grid points per atom       ...    10613
[...]
      g-1     :     0.000002
      g+2     :     0.000001
      g-2     :     0.000002
      g+3     :     0.000002
      g-3     :     0.000000
      g+4     :     0.000004
      g-4     :     0.000005
  1 Ags       :     2.651802  s :     2.651802
      pz      :     2.010883  p :     6.094887
      px      :     2.056291
      py      :     2.027713
      dz2     :     1.991603  d :     9.918383
      dxz     :     1.993285
      dyz     :     1.995389
      dx2y2   :     1.960245
      dxy     :     1.977861
      f0      :     0.000148  f :     0.001670
      f+1     :     0.000231
      f-1     :     0.000142
      f+2     :     0.000170
      f-2     :     0.000120
      f+3     :     0.000509
      f-3     :     0.000349
      g0      :     0.000002  g :     0.000019
      g+1     :     0.000002
      g-1     :     0.000001
      g+2     :     0.000002
      g-2     :     0.000001
      g+3     :     0.000002
      g-3     :     0.000000
      g+4     :     0.000004
      g-4     :     0.000004
  2 Ags       :     2.651802  s :     2.651802
      pz      :     2.010883  p :     6.094886
      px      :     2.056291
      py      :     2.027713
      dz2     :     1.991603  d :     9.918383
      dxz     :     1.993285
      dyz     :     1.995389
      dx2y2   :     1.960245
      dxy     :     1.977861
      f0      :     0.000148  f :     0.001670
      f+1     :     0.000231
      f-1     :     0.000142
      f+2     :     0.000170
      f-2     :     0.000120
      f+3     :     0.000509
      f-3     :     0.000349
      g0      :     0.000002  g :     0.000019
      g+1     :     0.000002
      g-1     :     0.000001
      g+2     :     0.000002
      g-2     :     0.000001
      g+3     :     0.000002
      g-3     :     0.000000
      g+4     :     0.000004
      g-4     :     0.000004


                     *******************************
                     * LOEWDIN POPULATION ANALYSIS *
                     *******************************

----------------------
LOEWDIN ATOMIC CHARGES
----------------------
   0 Ag:    0.333548
   1 Ag:    0.333226
   2 Ag:    0.333226

-------------------------------
LOEWDIN REDUCED ORBITAL CHARGES
-------------------------------
  0 Ags       :     2.541849  s :     2.541849
      pz      :     2.013093  p :     6.178024
      px      :     2.024023
      py      :     2.140908
      dz2     :     2.000726  d :     9.944259
      dxz     :     1.996166
      dyz     :     1.990163
      dx2y2   :     1.989562
      dxy     :     1.967642
      f0      :     0.000191  f :     0.002297
      f+1     :     0.000143
      f-1     :     0.000326
      f+2     :     0.000119
      f-2     :     0.000263
      f+3     :     0.000807
      f-3     :     0.000447
      g0      :     0.000002  g :     0.000024
      g+1     :     0.000001
      g-1     :     0.000002
      g+2     :     0.000001
      g-2     :     0.000003
      g+3     :     0.000002
      g-3     :     0.000000
      g+4     :     0.000004
      g-4     :     0.000007
  1 Ags       :     2.542244  s :     2.542244
      pz      :     2.013121  p :     6.178064
      px      :     2.111678
      py      :     2.053265
      dz2     :     2.000727  d :     9.944136
      dxz     :     1.991639
      dyz     :     1.994657
      dx2y2   :     1.973076
      dxy     :     1.984037
      f0      :     0.000192  f :     0.002306
      f+1     :     0.000282
      f-1     :     0.000189
      f+2     :     0.000229
      f-2     :     0.000154
      f+3     :     0.000810
      f-3     :     0.000450
      g0      :     0.000002  g :     0.000024
      g+1     :     0.000002
      g-1     :     0.000001
      g+2     :     0.000003
      g-2     :     0.000002
      g+3     :     0.000002
      g-3     :     0.000000
      g+4     :     0.000006
      g-4     :     0.000005
  2 Ags       :     2.542244  s :     2.542244
      pz      :     2.013121  p :     6.178064
      px      :     2.111678
      py      :     2.053265
      dz2     :     2.000727  d :     9.944136
      dxz     :     1.991639
      dyz     :     1.994657
      dx2y2   :     1.973076
      dxy     :     1.984037
      f0      :     0.000192  f :     0.002306
      f+1     :     0.000282
      f-1     :     0.000189
      f+2     :     0.000229
      f-2     :     0.000154
      f+3     :     0.000810
      f-3     :     0.000450
      g0      :     0.000002  g :     0.000024
      g+1     :     0.000002
      g-1     :     0.000001
      g+2     :     0.000003
      g-2     :     0.000002
      g+3     :     0.000002
      g-3     :     0.000000
      g+4     :     0.000006
      g-4     :     0.000005


                      *****************************
                      * MAYER POPULATION ANALYSIS *
                      *****************************

  NA   - Mulliken gross atomic population
  ZA   - Total nuclear charge
  QA   - Mulliken gross atomic charge
  VA   - Mayer's total valence
  BVA  - Mayer's bonded valence
  FA   - Mayer's free valence

  ATOM       NA         ZA         QA         VA         BVA        FA
  0 Ag    18.6665    19.0000     0.3335     1.1192     1.1192    -0.0000
  1 Ag    18.6668    19.0000     0.3332     1.1198     1.1198    -0.0000
  2 Ag    18.6668    19.0000     0.3332     1.1198     1.1198     0.0000

  Mayer bond orders larger than 0.100000
B(  0-Ag,  1-Ag) :   0.5596 B(  0-Ag,  2-Ag) :   0.5596 B(  1-Ag,  2-Ag) :   0.5602 


-------
TIMINGS
-------

Total SCF time: 0 days 0 hours 0 min 2 sec 

Total time                  ....       2.687 sec
Sum of individual times     ....       2.464 sec  ( 91.7%)

Fock matrix formation       ....       2.082 sec  ( 77.5%)
  XC integration            ....       0.170 sec  (  8.2% of F)
    Basis function eval.    ....       0.019 sec  ( 11.0% of XC)
    Density eval.           ....       0.029 sec  ( 17.2% of XC)
    XC-Functional eval.     ....       0.013 sec  (  7.6% of XC)
    XC-Potential eval.      ....       0.041 sec  ( 24.3% of XC)
Diagonalization             ....       0.021 sec  (  0.8%)
Density matrix formation    ....       0.005 sec  (  0.2%)
Population analysis         ....       0.005 sec  (  0.2%)
Initial guess               ....       0.014 sec  (  0.5%)
Orbital Transformation      ....       0.000 sec  (  0.0%)
Orbital Orthonormalization  ....       0.010 sec  (  0.4%)
DIIS solution               ....       0.007 sec  (  0.3%)
Grid generation             ....       0.330 sec  ( 12.3%)


-------------------------------------------------------------------------------
                          DFT DISPERSION CORRECTION                            
                                                                               
                              DFTD3 V3.1  Rev 1                                
                          USING Becke-Johnson damping                          
-------------------------------------------------------------------------------
The TPSSH functional is recognized
Active option DFTDOPT                   ...         4   

molecular C6(AA) [au] = 2417.553162 


            DFT-D V3
 parameters
 s6 scaling factor         :     1.0000 
 a1 scaling factor         :     0.4529 
 s8 scaling factor         :     2.2382 
 a2 scaling factor         :     4.6550 
 ad hoc parameters k1-k3   :    16.0000     1.3333    -4.0000 

 Edisp/kcal,au: -3.442159241052  -0.005485429330 
 E6   /kcal   :  -0.968857026 
 E8   /kcal   :  -2.473302215 
 % E8         :  71.853218928 

-------------------------   ----------------
Dispersion correction           -0.005485429
-------------------------   ----------------


-------------------------   --------------------
FINAL SINGLE POINT ENERGY      -440.628965494049
-------------------------   --------------------

                                *** OPTIMIZATION RUN DONE ***

                            ***************************************
                            *     ORCA property calculations      *
                            ***************************************

                                    ---------------------
                                    Active property flags
                                    ---------------------
   (+) Dipole Moment


------------------------------------------------------------------------------
                       ORCA ELECTRIC PROPERTIES CALCULATION
------------------------------------------------------------------------------

Dipole Moment Calculation                       ... on
Quadrupole Moment Calculation                   ... off
Polarizability Calculation                      ... off
GBWName                                         ... Ag03C1_D3H.gbw
Electron density file                           ... Ag03C1_D3H.scfp
The origin for moment calculation is the CENTER OF MASS  = ( 0.000000,  0.000001  0.000000)

-------------
DIPOLE MOMENT
-------------
                                X             Y             Z
Electronic contribution:      0.00000       0.00099      -0.00000
Nuclear contribution   :      0.00000       0.00000       0.00000
                        -----------------------------------------
Total Dipole Moment    :      0.00000       0.00099      -0.00000
                        -----------------------------------------
Magnitude (a.u.)       :      0.00099
Magnitude (Debye)      :      0.00252



--------------------
Rotational spectrum 
--------------------
 
Rotational constants in cm-1:     0.043709     0.043618     0.021832 
Rotational constants in MHz :  1310.370412  1307.624428   654.497990 

 Dipole components along the rotational axes: 
x,y,z [a.u.] :    -0.000990    -0.000000    -0.000000 
x,y,z [Debye]:    -0.002516    -0.000000    -0.000000 

 

----------------------------------------------------------------------------
                           ORCA NUMERICAL FREQUENCIES
                              (24-process run)
----------------------------------------------------------------------------

Number of atoms                ... 3
Central differences            ... used
Number of displacements        ... 18
Numerical increment            ... 5.000e-03 bohr
IR-spectrum generation         ... on
Raman-spectrum generation      ... off
Surface Crossing Hessian       ... off

 WARNING: There are more processes than displacements to do
  ====> : Reducing number of processes to   9

The output will be reduced. Please look at the following files:
SCF program output             ... >Ag03C1_D3H.lastscf
Integral program output        ... >Ag03C1_D3H.lastint
Gradient program output        ... >Ag03C1_D3H.lastgrad
Dipole moment program output   ... >Ag03C1_D3H.lastmom
AutoCI program output          ... >Ag03C1_D3H.lastautoci


         <<< Energy and Gradient at the input geometry >>>

        <<< Energy and Gradient at displaced geometries >>>
             <<<Displacing   3/coordinate 2 (+)>>>
             <<<Displacing   2/coordinate 2 (+)>>>
             <<<Displacing   3/coordinate 1 (+)>>>
             <<<Displacing   1/coordinate 2 (+)>>>
             <<<Displacing   3/coordinate 3 (+)>>>
             <<<Displacing   2/coordinate 1 (+)>>>
             <<<Displacing   1/coordinate 1 (+)>>>
             <<<Displacing   1/coordinate 3 (+)>>>
             <<<Displacing   2/coordinate 3 (+)>>>
             <<<Displacing   1/coordinate 1 (-)>>>
             <<<Displacing   1/coordinate 3 (-)>>>
             <<<Displacing   2/coordinate 3 (-)>>>
             <<<Displacing   3/coordinate 3 (-)>>>
             <<<Displacing   3/coordinate 2 (-)>>>
             <<<Displacing   2/coordinate 2 (-)>>>
             <<<Displacing   2/coordinate 1 (-)>>>
             <<<Displacing   1/coordinate 2 (-)>>>
             <<<Displacing   3/coordinate 1 (-)>>>

-----------------------
VIBRATIONAL FREQUENCIES
-----------------------

Scaling factor for frequencies =  1.000000000 (already applied!)

   0:         0.00 cm**-1
   1:         0.00 cm**-1
   2:         0.00 cm**-1
   3:         0.00 cm**-1
   4:         0.00 cm**-1
   5:         0.00 cm**-1
   6:       121.58 cm**-1
   7:       123.32 cm**-1
   8:       178.52 cm**-1


------------
NORMAL MODES
------------

These modes are the cartesian displacements weighted by the diagonal matrix
M(i,i)=1/sqrt(m[i]) where m[i] is the mass of the displaced atom
Thus, these vectors are normalized but *not* orthogonal

                  0          1          2          3          4          5    
      0       0.000000   0.000000   0.000000   0.000000   0.000000   0.000000
      1       0.000000   0.000000   0.000000   0.000000   0.000000   0.000000
      2       0.000000   0.000000   0.000000   0.000000   0.000000   0.000000
      3       0.000000   0.000000   0.000000   0.000000   0.000000   0.000000
      4       0.000000   0.000000   0.000000   0.000000   0.000000   0.000000
      5       0.000000   0.000000   0.000000   0.000000   0.000000   0.000000
      6       0.000000   0.000000   0.000000   0.000000   0.000000   0.000000
      7       0.000000   0.000000   0.000000   0.000000   0.000000   0.000000
      8       0.000000   0.000000   0.000000   0.000000   0.000000   0.000000
                   6          7          8    
      0       0.577047  -0.000056  -0.000003
      1       0.000059   0.575136   0.579557
      2       0.000000   0.000000   0.000000
      3      -0.288570  -0.501883   0.498083
      4       0.500233  -0.287616  -0.289781
      5       0.000000   0.000000   0.000000
      6      -0.288477   0.501939  -0.498081
      7      -0.500291  -0.287519  -0.289776
      8       0.000000   0.000000   0.000000


-----------
IR SPECTRUM  
-----------

 Mode    freq (cm**-1)   T**2         TX         TY         TZ
-------------------------------------------------------------------
   6:       121.58    0.970214  ( -0.984995   0.000121   0.000016)
   7:       123.32    1.235160  (  0.000096   1.111377  -0.000011)
   8:       178.52    0.000000  (  0.000009  -0.000005  -0.000010)

The first frequency considered to be a vibration is 6
The total number of vibrations considered is 3


--------------------------
THERMOCHEMISTRY AT 298.15K
--------------------------

Temperature         ... 298.15 K
Pressure            ... 1.00 atm
Total Mass          ... 323.61 AMU

Throughout the following assumptions are being made:
  (1) The electronic state is orbitally nondegenerate
  (2) There are no thermally accessible electronically excited states
  (3) Hindered rotations indicated by low frequency modes are not
      treated as such but are treated as vibrations and this may
      cause some error
  (4) All equations used are the standard statistical mechanics
      equations for an ideal gas
  (5) All vibrations are strictly harmonic

freq.     121.58  E(vib)   ...       0.44 
freq.     123.32  E(vib)   ...       0.43 
freq.     178.52  E(vib)   ...       0.37 

------------
INNER ENERGY
------------

The inner energy is: U= E(el) + E(ZPE) + E(vib) + E(rot) + E(trans)
    E(el)   - is the total energy from the electronic structure calculation
              = E(kin-el) + E(nuc-el) + E(el-el) + E(nuc-nuc)
    E(ZPE)  - the the zero temperature vibrational energy from the frequency calculation
    E(vib)  - the the finite temperature correction to E(ZPE) due to population
              of excited vibrational states
    E(rot)  - is the rotational thermal energy
    E(trans)- is the translational thermal energy

Summary of contributions to the inner energy U:
Electronic energy                ...   -440.62896549 Eh
Zero point energy                ...      0.00096462 Eh       0.61 kcal/mol
Thermal vibrational correction   ...      0.00198032 Eh       1.24 kcal/mol
Thermal rotational correction    ...      0.00141627 Eh       0.89 kcal/mol
Thermal translational correction ...      0.00141627 Eh       0.89 kcal/mol
-----------------------------------------------------------------------
Total thermal energy                   -440.62318801 Eh


Summary of corrections to the electronic energy:
(perhaps to be used in another calculation)
Total thermal correction                  0.00481286 Eh       3.02 kcal/mol
Non-thermal (ZPE) correction              0.00096462 Eh       0.61 kcal/mol
-----------------------------------------------------------------------
Total correction                          0.00577748 Eh       3.63 kcal/mol


--------
ENTHALPY
--------

The enthalpy is H = U + kB*T
                kB is Boltzmann's constant
Total free energy                 ...   -440.62318801 Eh 
Thermal Enthalpy correction       ...      0.00094421 Eh       0.59 kcal/mol
-----------------------------------------------------------------------
Total Enthalpy                    ...   -440.62224380 Eh


Note: Rotational entropy computed according to Herzberg 
Infrared and Raman Spectra, Chapter V,1, Van Nostrand Reinhold, 1945 
Point Group:  C2v, Symmetry Number:   2  
Rotational constants in cm-1:     0.043709     0.043618     0.021832 

Vibrational entropy computed according to the QRRHO of S. Grimme
Chem.Eur.J. 2012 18 9955


-------
ENTROPY
-------

The entropy contributions are T*S = T*(S(el)+S(vib)+S(rot)+S(trans))
     S(el)   - electronic entropy
     S(vib)  - vibrational entropy
     S(rot)  - rotational entropy
     S(trans)- translational entropy
The entropies will be listed as mutliplied by the temperature to get
units of energy

Electronic entropy                ...      0.00000000 Eh      0.00 kcal/mol
Vibrational entropy               ...      0.00390081 Eh      2.45 kcal/mol
Rotational entropy                ...      0.01361827 Eh      8.55 kcal/mol
Translational entropy             ...      0.02053447 Eh     12.89 kcal/mol
-----------------------------------------------------------------------
Final entropy term                ...      0.03805355 Eh     23.88 kcal/mol

In case the symmetry of your molecule has not been determined correctly
or in case you have a reason to use a different symmetry number we print 
out the resulting rotational entropy values for sn=1,12 :
 --------------------------------------------------------
|  sn= 1 | S(rot)=       0.01427273 Eh      8.96 kcal/mol|
|  sn= 2 | S(rot)=       0.01361827 Eh      8.55 kcal/mol|
|  sn= 3 | S(rot)=       0.01323544 Eh      8.31 kcal/mol|
|  sn= 4 | S(rot)=       0.01296382 Eh      8.13 kcal/mol|
|  sn= 5 | S(rot)=       0.01275313 Eh      8.00 kcal/mol|
|  sn= 6 | S(rot)=       0.01258099 Eh      7.89 kcal/mol|
|  sn= 7 | S(rot)=       0.01243544 Eh      7.80 kcal/mol|
|  sn= 8 | S(rot)=       0.01230936 Eh      7.72 kcal/mol|
|  sn= 9 | S(rot)=       0.01219815 Eh      7.65 kcal/mol|
|  sn=10 | S(rot)=       0.01209867 Eh      7.59 kcal/mol|
|  sn=11 | S(rot)=       0.01200868 Eh      7.54 kcal/mol|
|  sn=12 | S(rot)=       0.01192653 Eh      7.48 kcal/mol|
 --------------------------------------------------------


-------------------
GIBBS FREE ENERGY
-------------------

The Gibbs free energy is G = H - T*S

Total enthalpy                    ...   -440.62224380 Eh 
Total entropy correction          ...     -0.03805355 Eh    -23.88 kcal/mol
-----------------------------------------------------------------------
Final Gibbs free energy         ...   -440.66029735 Eh

For completeness - the Gibbs free energy minus the electronic energy
G-E(el)                           ...     -0.03133186 Eh    -19.66 kcal/mol


Total Time for Numerical Frequencies  :       124.456 sec

Timings for individual modules:

Sum of individual times         ...       40.865 sec (=   0.681 min)
GTO integral calculation        ...        5.393 sec (=   0.090 min)  13.2 %
SCF iterations                  ...       20.117 sec (=   0.335 min)  49.2 %
SCF Gradient evaluation         ...       15.127 sec (=   0.252 min)  37.0 %
Geometry relaxation             ...        0.228 sec (=   0.004 min)   0.6 %
                             ****ORCA TERMINATED NORMALLY****
TOTAL RUN TIME: 0 days 0 hours 2 minutes 39 seconds 769 msec
