
                                 *****************
                                 * O   R   C   A *
                                 *****************

           --- An Ab Initio, DFT and Semiempirical electronic structure package ---

                  #######################################################
                  #                        -***-                        #
                  #          Department of theory and spectroscopy      #
                  #               Directorship: Frank Neese             #
                  #        Max Planck Institute fuer Kohlenforschung    #
                  #                Kaiser Wilhelm Platz 1               #
                  #                 D-45470 Muelheim/Ruhr               #
                  #                      Germany                        #
                  #                                                     #
                  #                  All rights reserved                #
                  #                        -***-                        #
                  #######################################################


                         Program Version 4.2.0 -  RELEASE  -


 With contributions from (in alphabetic order):
   Daniel Aravena         : Magnetic Suceptibility
   Michael Atanasov       : Ab Initio Ligand Field Theory (pilot matlab implementation)
   Alexander A. Auer      : GIAO ZORA, VPT2
   Ute Becker             : Parallelization
   Giovanni Bistoni       : ED, misc. LED, open-shell LED, HFLED
   Martin Brehm           : Molecular dynamics
   Dmytro Bykov           : SCF Hessian
   Vijay G. Chilkuri      : MRCI spin determinant printing, contributions to CSF-ICE
   Dipayan Datta          : RHF DLPNO-CCSD density
   Achintya Kumar Dutta   : EOM-CC, STEOM-CC
   Dmitry Ganyushin       : Spin-Orbit,Spin-Spin,Magnetic field MRCI
   Miquel Garcia          : C-PCM Hessian, Gaussian charge scheme
   Yang Guo               : DLPNO-NEVPT2, CIM, IAO-localization
   Andreas Hansen         : Spin unrestricted coupled pair/coupled cluster methods
   Benjamin Helmich-Paris : CASSCF linear response (MC-RPA)
   Lee Huntington         : MR-EOM, pCC
   Robert Izsak           : Overlap fitted RIJCOSX, COSX-SCS-MP3, EOM
   Christian Kollmar      : KDIIS, OOCD, Brueckner-CCSD(T), CCSD density
   Simone Kossmann        : Meta GGA functionals, TD-DFT gradient, OOMP2, MP2 Hessian
   Martin Krupicka        : AUTO-CI
   Lucas Lang             : DCDCAS
   Dagmar Lenk            : GEPOL surface, SMD
   Dimitrios Liakos       : Extrapolation schemes; Compound Job, initial MDCI parallelization
   Dimitrios Manganas     : Further ROCIS development; embedding schemes
   Dimitrios Pantazis     : SARC Basis sets
   Taras Petrenko         : DFT Hessian,TD-DFT gradient, ASA, ECA, R-Raman, ABS, FL, XAS/XES, NRVS
   Peter Pinski           : DLPNO-MP2, DLPNO-MP2 Gradient
   Christoph Reimann      : Effective Core Potentials
   Marius Retegan         : Local ZFS, SOC
   Christoph Riplinger    : Optimizer, TS searches, QM/MM, DLPNO-CCSD(T), (RO)-DLPNO pert. Triples
   Tobias Risthaus        : Range-separated hybrids, TD-DFT gradient, RPA, STAB
   Michael Roemelt        : Original ROCIS implementation
   Masaaki Saitow         : Open-shell DLPNO-CCSD energy and density
   Barbara Sandhoefer     : DKH picture change effects
   Avijit Sen             : IP-ROCIS
   Kantharuban Sivalingam : CASSCF convergence, NEVPT2, FIC-MRCI
   Bernardo de Souza      : ESD, SOC TD-DFT
   Georgi Stoychev        : AutoAux, RI-MP2 NMR
   Willem Van den Heuvel  : Paramagnetic NMR
   Boris Wezisla          : Elementary symmetry handling
   Frank Wennmohs         : Technical directorship


 We gratefully acknowledge several colleagues who have allowed us to
 interface, adapt or use parts of their codes:
   Stefan Grimme, W. Hujo, H. Kruse,             : VdW corrections, initial TS optimization,
                  C. Bannwarth                     DFT functionals, gCP, sTDA/sTD-DF
   Ed Valeev, F. Pavosevic, A. Kumar             : LibInt (2-el integral package), F12 methods
   Garnet Chan, S. Sharma, J. Yang, R. Olivares  : DMRG
   Ulf Ekstrom                                   : XCFun DFT Library
   Mihaly Kallay                                 : mrcc  (arbitrary order and MRCC methods)
   Andreas Klamt, Michael Diedenhofen            : otool_cosmo (COSMO solvation model)
   Jiri Pittner, Ondrej Demel                    : Mk-CCSD
   Frank Weinhold                                : gennbo (NPA and NBO analysis)
   Christopher J. Cramer and Donald G. Truhlar   : smd solvation model
   Lars Goerigk                                  : TD-DFT with DH, B97 family of functionals
   V. Asgeirsson, H. Jonsson                     : NEB implementation
   FAccTs GmbH                                   : IRC, NEB, NEB-TS, Multilevel, MM, QM/MM, CI optimization
   S Lehtola, MJT Oliveira, MAL Marques          : LibXC Library


 Your calculation uses the libint2 library for the computation of 2-el integrals
 For citations please refer to: http://libint.valeyev.net

 Your ORCA version has been built with support for libXC version: 4.2.3
 For citations please refer to: https://tddft.org/programs/libxc/

 This ORCA versions uses:
   CBLAS   interface :  Fast vector & matrix operations
   LAPACKE interface :  Fast linear algebra routines
   SCALAPACK package :  Parallel linear algebra routines


Your calculation utilizes the atom-pairwise dispersion correction
with the Becke-Johnson damping scheme (D3BJ)
Cite in your paper:
S.Grimme, S.Ehrlich, L.Goerigk, J Comput Chem, (2011), 32, 1456–1465 
S.Grimme, J.Antony, S.Ehrlich and H.Krieg, J.Chem.Phys., 132, (2010), 154104 
   

----- Orbital basis set information -----
Your calculation utilizes the basis: def2-TZVPPD
   F. Weigend and R. Ahlrichs, Phys. Chem. Chem. Phys. 7, 3297 (2005).
   D. Rappoport and F. Furche, J. Chem. Phys. 133 134105 (2010).

----- AuxJK basis set information -----
Your calculation utilizes the auxiliary basis: def2/JK
   H-Ba, Hf-Rn: F. Weigend, J. Comput. Chem. 29, 167 (2008).

cite the ECPs for Ag [Def2-ECP] as follows:
Ce-Yb(ecp-28): M. Dolg, H. Stoll, H.Preuss, J. Chem. Phys., 1989, 90, 1730-1734.
Y-Cd(ecp-28), Hf-Hg(ecp-46): D. Andrae,U. Haeussermann, M. Dolg, H. Stoll, H. Preuss, Theor. Chim. Acta, 1990, 77, 123-141.
In-Sb(ecp-28), Tl-Bi(ecp-46): B. Metz, H. Stoll, M. Dolg, J. Chem. Phys., 2000, 113, 2563-2569.
Te-Xe(ecp-28), Po-Rn(ecp-46): K. A. Peterson, D. Figgen, E. Goll, H. Stoll, M. Dolg, J. Chem. Phys., 2003, 119, 11113-11123.
Rb(ecp-28), Cs(ecp-46): T. Leininger, A. Nicklass, W. Kuechle, H. Stoll, M. Dolg, A. Bergner, Chem. Phys. Lett., 1996, 255, 274-280.
Sr(ecp-28), Ba(ecp-46): M. Kaupp, P. V. Schleyer, H. Stoll and H. Preuss, J. Chem. Phys., 1991, 94, 1360-1366.
La(ecp-46): M. Dolg, H. Stoll, A. Savin, H. Preuss, Theor. Chim. Acta, 1989, 75, 173-194.
Lu(ecp-28): X. Cao, M. Dolg, J. Chem. Phys., 2001, 115, 7348-7355.

ECP parameters for Ag [Def2-ECP] have been obtained from:
TURBOMOLE (7.0.2)

================================================================================
                                        WARNINGS
                       Please study these warnings very carefully!
================================================================================


WARNING: your system is open-shell and RHF/RKS was chosen
  ===> : WILL SWITCH to UHF/UKS


WARNING: Geometry Optimization
  ===> : Switching off AutoStart
         For restart on a previous wavefunction, please use MOREAD

INFO   : the flag for use of LIBINT has been found!

================================================================================
                                       INPUT FILE
================================================================================
NAME = Ag03N0_D3H.in
|  1> #
|  2> # Ag03N0_D3H TPSSh-D3BJ/Def2-TZVPPD
|  3> #
|  4> ! tpssh d3bj def2-tzvppd def2/jk grid4 nofinalgrid opt xyzfile numfreq
|  5> 
|  6> *xyz 0 2
|  7> Ag       0.000000    1.533951   -0.000000 
|  8> Ag       1.328441   -0.766976    0.000000 
|  9> Ag      -1.328441   -0.766976   -0.000000 
| 10> *
| 11> 
| 12> %maxcore 5000
| 13> 
| 14> %pal
| 15> nprocs = 24
| 16> end
| 17> 
| 18> 
| 19>                          ****END OF INPUT****
================================================================================

                       *****************************
                       * Geometry Optimization Run *
                       *****************************

Geometry optimization settings:
Update method            Update   .... BFGS
Choice of coordinates    CoordSys .... Z-matrix Internals
Initial Hessian          InHess   .... Almoef's Model

Convergence Tolerances:
Energy Change            TolE     ....  5.0000e-06 Eh
Max. Gradient            TolMAXG  ....  3.0000e-04 Eh/bohr
RMS Gradient             TolRMSG  ....  1.0000e-04 Eh/bohr
Max. Displacement        TolMAXD  ....  4.0000e-03 bohr
RMS Displacement         TolRMSD  ....  2.0000e-03 bohr
Strict Convergence                ....  False
------------------------------------------------------------------------------
                        ORCA OPTIMIZATION COORDINATE SETUP
------------------------------------------------------------------------------

The optimization will be done in new redundant internal coordinates
Making redundant internal coordinates   ...  (new redundants) done
Evaluating the initial hessian          ...  (Almloef) done
Evaluating the coordinates              ...  done
Calculating the B-matrix                .... done
Calculating the G-matrix                .... done
Diagonalizing the G-matrix              .... done
The first mode is                       ....    3
The number of degrees of freedom        ....    3

    -----------------------------------------------------------------
                    Redundant Internal Coordinates


    -----------------------------------------------------------------
         Definition                    Initial Value    Approx d2E/dq
    -----------------------------------------------------------------
      1. B(Ag  1,Ag  0)                  2.6569         0.609199   
      2. B(Ag  2,Ag  1)                  2.6569         0.609198   
      3. B(Ag  2,Ag  0)                  2.6569         0.609199   
      4. A(Ag  1,Ag  0,Ag  2)           60.0000         0.654643   
      5. A(Ag  0,Ag  1,Ag  2)           60.0000         0.654643   
      6. A(Ag  0,Ag  2,Ag  1)           60.0000         0.654643   
    -----------------------------------------------------------------

Number of atoms                         .... 3
Number of degrees of freedom            .... 6

         *************************************************************
         *                GEOMETRY OPTIMIZATION CYCLE   1            *
         *************************************************************
---------------------------------
CARTESIAN COORDINATES (ANGSTROEM)
---------------------------------
  Ag     0.000000    1.533951   -0.000000
  Ag     1.328441   -0.766976    0.000000
  Ag    -1.328441   -0.766976   -0.000000

----------------------------
CARTESIAN COORDINATES (A.U.)
----------------------------
  NO LB      ZA    FRAG     MASS         X           Y           Z
   0 Ag   19.0000*   0   107.870    0.000000    2.898747   -0.000000
   1 Ag   19.0000*   0   107.870    2.510390   -1.449375    0.000000
   2 Ag   19.0000*   0   107.870   -2.510390   -1.449375   -0.000000
* core charge reduced due to ECP

--------------------------------
INTERNAL COORDINATES (ANGSTROEM)
--------------------------------
 Ag     0   0   0     0.000000000000     0.00000000     0.00000000
 Ag     1   0   0     2.656881734254     0.00000000     0.00000000
 Ag     1   2   0     2.656881734254    60.00000662     0.00000000

---------------------------
INTERNAL COORDINATES (A.U.)
---------------------------
 Ag     0   0   0     0.000000000000     0.00000000     0.00000000
 Ag     1   0   0     5.020778847957     0.00000000     0.00000000
 Ag     1   2   0     5.020778847957    60.00000662     0.00000000

---------------------
BASIS SET INFORMATION
---------------------
There are 1 groups of distinct atoms

 Group   1 Type Ag  : 7s7p6d2f1g contracted to 6s4p3d2f1g pattern {211111/4111/411/11/1}

Atom   0Ag   basis set group =>   1
Atom   1Ag   basis set group =>   1
Atom   2Ag   basis set group =>   1
----------------------------------
AUXILIARY/JK BASIS SET INFORMATION
----------------------------------
There are 1 groups of distinct atoms

 Group   1 Type Ag  : 13s12p10d9f6g3h2i contracted to 11s10p9d8f6g3h2i pattern {31111111111/3111111111/211111111/21111111/111111/111/11}

Atom   0Ag   basis set group =>   1
Atom   1Ag   basis set group =>   1
Atom   2Ag   basis set group =>   1
-------------------------
ECP PARAMETER INFORMATION
-------------------------

 Group 1, Type Ag ECP Def2-ECP (replacing 28 core electrons, lmax=3)

Atom   0Ag   ECP group =>   1
Atom   1Ag   ECP group =>   1
Atom   2Ag   ECP group =>   1



           ************************************************************
           *        Program running with 24 parallel MPI-processes    *
           *              working on a common directory               *
           ************************************************************
------------------------------------------------------------------------------
                           ORCA GTO INTEGRAL CALCULATION
------------------------------------------------------------------------------

                         BASIS SET STATISTICS AND STARTUP INFO

 # of primitive gaussian shells          ...   69
 # of primitive gaussian functions       ...  243
 # of contracted shells                  ...   48
 # of contracted basis functions         ...  168
 Highest angular momentum                ...    4
 Maximum contraction depth               ...    4
 Integral package used                   ... LIBINT
 Integral threshhold            Thresh   ...  2.500e-11
 Primitive cut-off              TCut     ...  2.500e-12


------------------------------ INTEGRAL EVALUATION ----------------------------


 * One electron integrals 

   ECP integrals                         ... done
 Pre-screening matrix                    ... done
 Shell pair data                         ... done (   0.000 sec)



           ************************************************************
           *        Program running with 24 parallel MPI-processes    *
           *              working on a common directory               *
           ************************************************************
-------------------------------------------------------------------------------
                                 ORCA SCF
-------------------------------------------------------------------------------

------------
SCF SETTINGS
------------
Hamiltonian:
 Density Functional     Method          .... DFT(GTOs)
 Exchange Functional    Exchange        .... TPSS
 Correlation Functional Correlation     .... TPSS
 LDA part of GGA corr.  LDAOpt          .... PW91-LDA
 Gradients option       PostSCFGGA      .... off
 Hybrid DFT is turned on
   Fraction HF Exchange ScalHFX         ....  0.100000
   Scaling of DF-GGA-X  ScalDFX         ....  0.900000
   Scaling of DF-GGA-C  ScalDFC         ....  1.000000
   Scaling of DF-LDA-C  ScalLDAC        ....  1.000000
   Perturbative correction              ....  0.000000
   Density functional embedding theory  .... OFF
   NL short-range parameter             ....  5.200000


General Settings:
 Integral files         IntName         .... Ag03N0_D3H
 Hartree-Fock type      HFTyp           .... UHF
 Total Charge           Charge          ....    0
 Multiplicity           Mult            ....    2
 Number of Electrons    NEL             ....   57
 Basis Dimension        Dim             ....  168
 Nuclear Repulsion      ENuc            ....    215.7035784065 Eh

Convergence Acceleration:
 DIIS                   CNVDIIS         .... on
   Start iteration      DIISMaxIt       ....    12
   Startup error        DIISStart       ....  0.200000
   # of expansion vecs  DIISMaxEq       ....     5
   Bias factor          DIISBfac        ....   1.050
   Max. coefficient     DIISMaxC        ....  10.000
 Newton-Raphson         CNVNR           .... off
 SOSCF                  CNVSOSCF        .... off
 Level Shifting         CNVShift        .... on
   Level shift para.    LevelShift      ....    0.2500
   Turn off err/grad.   ShiftErr        ....    0.0010
 Zerner damping         CNVZerner       .... off
 Static damping         CNVDamp         .... on
   Fraction old density DampFac         ....    0.7000
   Max. Damping (<1)    DampMax         ....    0.9800
   Min. Damping (>=0)   DampMin         ....    0.0000
   Turn off err/grad.   DampErr         ....    0.1000
 Fernandez-Rico         CNVRico         .... off

SCF Procedure:
 Maximum # iterations   MaxIter         ....   125
 SCF integral mode      SCFMode         .... Direct
   Integral package                     .... LIBINT
 Reset frequency        DirectResetFreq ....    20
 Integral Threshold     Thresh          ....  2.500e-11 Eh
 Primitive CutOff       TCut            ....  2.500e-12 Eh

Convergence Tolerance:
 Convergence Check Mode ConvCheckMode   .... Total+1el-Energy
 Convergence forced     ConvForced      .... 0
 Energy Change          TolE            ....  1.000e-08 Eh
 1-El. energy change                    ....  1.000e-05 Eh
 DIIS Error             TolErr          ....  5.000e-07


Diagonalization of the overlap matrix:
Smallest eigenvalue                        ... 2.935e-03
Time for diagonalization                   ...    0.021 sec
Threshold for overlap eigenvalues          ... 1.000e-08
Number of eigenvalues below threshold      ... 0
Time for construction of square roots      ...    0.003 sec
Total time needed                          ...    0.024 sec

-------------------
DFT GRID GENERATION
-------------------

General Integration Accuracy     IntAcc      ...  4.670
Radial Grid Type                 RadialGrid  ... Gauss-Chebyshev
Angular Grid (max. acc.)         AngularGrid ... Lebedev-302
Angular grid pruning method      GridPruning ... 3 (G Style)
Weight generation scheme         WeightScheme... Becke
Basis function cutoff            BFCut       ...    1.0000e-11
Integration weight cutoff        WCut        ...    1.0000e-14
Grids for H and He will be reduced by one unit

# of grid points (after initial pruning)     ...  31974 (   0.0 sec)
# of grid points (after weights+screening)   ...  31838 (   0.0 sec)
nearest neighbour list constructed           ...    0.0 sec
Grid point re-assignment to atoms done       ...    0.0 sec
Grid point division into batches done        ...    0.2 sec
Reduced shell lists constructed in    0.3 sec

Total number of grid points                  ...    31838
Total number of batches                      ...      500
Average number of points per batch           ...       63
Average number of grid points per atom       ...    10613
Average number of shells per batch           ...     5.09 (10.61%)
Average number of basis functions per batch  ...    11.27 ( 6.71%)
Average number of large shells per batch     ...     3.32 (65.18%)
Average number of large basis fcns per batch ...     6.68 (59.27%)
Maximum spatial batch extension              ...  27.02, 24.03, 31.14 au
Average spatial batch extension              ...   0.75,  0.64,  0.72 au

Time for grid setup =    0.308 sec

------------------------------
INITIAL GUESS: MODEL POTENTIAL
------------------------------
Loading Hartree-Fock densities                     ... done
  calling /sw/apps/orca/orca_4_2_0_linux_x86-64_openmpi314/orca Ag03N0_D3H_atom47.inp > Ag03N0_D3H_atom47.out in order to generate an atomic fitting density for atom 0 (Ag with ECP) on-the-fly... 
    atom 0 (Ag), assumed electronic state with S=2: 1s2 2s2 2p6 3s2 3p6 4s2 3d10 4p6 5s2 4d9           ... done
Calculating cut-offs                               ... done
Setting up the integral package                    ... done
Initializing the effective Hamiltonian             ... done
Starting the Coulomb interaction                   ... done (   0.0 sec)
Reading the grid                                   ... done
Mapping shells                                     ... done
Starting the XC term evaluation                    ... done (   0.0 sec)
  promolecular density results
     # of electrons  =    141.001725785
     EX              =   -430.310479604
     EC              =     -7.472800310
     EX+EC           =   -437.783279914
Transforming the Hamiltonian                       ... done (   0.0 sec)
Diagonalizing the Hamiltonian                      ... done (   0.0 sec)
Back transforming the eigenvectors                 ... done (   0.0 sec)
Now organizing SCF variables                       ... done
                      ------------------
                      INITIAL GUESS DONE (   2.0 sec)
                      ------------------
--------------
SCF ITERATIONS
--------------
ITER       Energy         Delta-E        Max-DP      RMS-DP      [F,P]     Damp
               ***  Starting incremental Fock matrix formation  ***
  0   -440.5149808754   0.000000000000 0.10361451  0.00159144  0.5101242 0.7000
  1   -440.6676672583  -0.152686382903 0.08437001  0.00098661  0.3307117 0.7000
  2   -440.7144591531  -0.046791894841 0.04456643  0.00041255  0.2179922 0.7000
                               ***Turning on DIIS***
  3   -440.7463442137  -0.031885060564 0.01934730  0.00019631  0.1495773 0.7000
  4   -440.7704145370  -0.024070323257 0.01050488  0.00014961  0.1050289 0.7000
  5   -440.7873558498  -0.016941312852 0.02332549  0.00038772  0.0738125 0.0000
  6   -440.8268043028  -0.039448453016 0.00286201  0.00006041  0.0008693 0.0000
  7   -440.8268176498  -0.000013346956 0.00042701  0.00001062  0.0014392 0.0000
  8   -440.8268251249  -0.000007475146 0.00031276  0.00000645  0.0000818 0.0000
  9   -440.8268255910  -0.000000466079 0.00009022  0.00000161  0.0000573 0.0000
 10   -440.8268256413  -0.000000050271 0.00004351  0.00000066  0.0000245 0.0000
 11   -440.8268256545  -0.000000013204 0.00001852  0.00000034  0.0000096 0.0000
 12   -440.8268256572  -0.000000002710 0.00001464  0.00000020  0.0000112 0.0000
 13   -440.8268256578  -0.000000000570 0.00000614  0.00000007  0.0000039 0.0000
 14   -440.8268256580  -0.000000000217 0.00000247  0.00000005  0.0000012 0.0000
                            ***DIIS convergence achieved***

               *****************************************************
               *                     SUCCESS                       *
               *           SCF CONVERGED AFTER  15 CYCLES          *
               *****************************************************


----------------
TOTAL SCF ENERGY
----------------

Total Energy       :         -440.82682566 Eh          -11995.50777 eV

Components:
Nuclear Repulsion  :          215.70357841 Eh            5869.59277 eV
Electronic Energy  :         -656.53040406 Eh          -17865.10054 eV
One Electron Energy:        -1214.31052596 Eh          -33043.06929 eV
Two Electron Energy:          557.78012189 Eh           15177.96875 eV

Virial components:
Potential Energy   :         -609.43102974 Eh          -16583.46141 eV
Kinetic Energy     :          168.60420408 Eh            4587.95364 eV
Virial Ratio       :            3.61456604


DFT components:
N(Alpha)           :       28.999984681412 electrons
N(Beta)            :       27.999983943449 electrons
N(Total)           :       56.999968624861 electrons
E(X)               :      -35.787596218511 Eh       
E(C)               :       -2.481233302481 Eh       
E(XC)              :      -38.268829520992 Eh       
DFET-embed. en.    :        0.000000000000 Eh       

---------------
SCF CONVERGENCE
---------------

  Last Energy change         ...   -2.9331e-10  Tolerance :   1.0000e-08
  Last MAX-Density change    ...    8.1228e-07  Tolerance :   1.0000e-07
  Last RMS-Density change    ...    1.3553e-08  Tolerance :   5.0000e-09
  Last DIIS Error            ...    8.2299e-07  Tolerance :   5.0000e-07

             **** THE GBW FILE WAS UPDATED (Ag03N0_D3H.gbw) ****
             **** DENSITY FILE WAS UPDATED (Ag03N0_D3H.scfp) ****
             **** ENERGY FILE WAS UPDATED (Ag03N0_D3H.en.tmp) ****
----------------------
UHF SPIN CONTAMINATION
----------------------

Warning: in a DFT calculation there is little theoretical justification to 
         calculate <S**2> as in Hartree-Fock theory. We will do it anyways
         but you should keep in mind that the values have only limited relevance

Expectation value of <S**2>     :     0.756630
Ideal value S*(S+1) for S=0.5   :     0.750000
Deviation                       :     0.006630

             **** THE GBW FILE WAS UPDATED (Ag03N0_D3H.gbw) ****
             **** DENSITY FILE WAS UPDATED (Ag03N0_D3H.scfp) ****
----------------
ORBITAL ENERGIES
----------------
                 SPIN UP ORBITALS
  NO   OCC          E(Eh)            E(eV) 
   0   1.0000      -3.677367      -100.0663 
   1   1.0000      -3.677036      -100.0572 
   2   1.0000      -3.659073       -99.5684 
   3   1.0000      -2.286550       -62.2202 
   4   1.0000      -2.282790       -62.1179 
   5   1.0000      -2.282155       -62.1006 
   6   1.0000      -2.281311       -62.0776 
   7   1.0000      -2.280914       -62.0668 
   8   1.0000      -2.280555       -62.0571 
   9   1.0000      -2.264842       -61.6295 
  10   1.0000      -2.264174       -61.6113 
  11   1.0000      -2.261004       -61.5250 
  12   1.0000      -0.352861        -9.6018 
  13   1.0000      -0.337144        -9.1742 
  14   1.0000      -0.329907        -8.9772 
  15   1.0000      -0.329384        -8.9630 
  16   1.0000      -0.315626        -8.5886 
  17   1.0000      -0.313918        -8.5421 
  18   1.0000      -0.309007        -8.4085 
  19   1.0000      -0.296140        -8.0584 
  20   1.0000      -0.292438        -7.9576 
  21   1.0000      -0.290544        -7.9061 
  22   1.0000      -0.283234        -7.7072 
  23   1.0000      -0.281151        -7.6505 
  24   1.0000      -0.278637        -7.5821 
  25   1.0000      -0.278333        -7.5738 
  26   1.0000      -0.266932        -7.2636 
  27   1.0000      -0.240083        -6.5330 
  28   1.0000      -0.132899        -3.6164 
  29   0.0000      -0.116153        -3.1607 
  30   0.0000      -0.046679        -1.2702 
  31   0.0000      -0.026993        -0.7345 
  32   0.0000      -0.010717        -0.2916 
  33   0.0000      -0.010406        -0.2832 
  34   0.0000       0.028837         0.7847 
  35   0.0000       0.029435         0.8010 
  36   0.0000       0.071641         1.9495 
  37   0.0000       0.073886         2.0105 
  38   0.0000       0.080751         2.1974 
  39   0.0000       0.107052         2.9130 
  40   0.0000       0.149108         4.0574 
  41   0.0000       0.156626         4.2620 
  42   0.0000       0.158028         4.3002 
  43   0.0000       0.159057         4.3282 
  44   0.0000       0.174911         4.7596 
  45   0.0000       0.175560         4.7772 
  46   0.0000       0.218558         5.9473 
  47   0.0000       0.221100         6.0164 
  48   0.0000       0.289448         7.8763 
  49   0.0000       0.348064         9.4713 
  50   0.0000       0.349067         9.4986 
  51   0.0000       0.350220         9.5300 
  52   0.0000       0.383476        10.4349 
  53   0.0000       0.386602        10.5200 
  54   0.0000       0.394631        10.7385 
  55   0.0000       0.486240        13.2313 
  56   0.0000       0.487882        13.2759 
  57   0.0000       0.528207        14.3732 
  58   0.0000       0.544953        14.8289 
  59   0.0000       0.581509        15.8237 
  60   0.0000       0.582617        15.8538 
  61   0.0000       0.586940        15.9715 
  62   0.0000       0.588015        16.0007 
  63   0.0000       0.667554        18.1651 
  64   0.0000       0.668090        18.1796 
  65   0.0000       0.719618        19.5818 
  66   0.0000       1.460256        39.7356 
  67   0.0000       1.463523        39.8245 
  68   0.0000       1.498319        40.7713 
  69   0.0000       1.509548        41.0769 
  70   0.0000       1.531090        41.6631 
  71   0.0000       1.540409        41.9167 
  72   0.0000       1.541404        41.9437 
  73   0.0000       1.558723        42.4150 
  74   0.0000       1.563536        42.5460 
  75   0.0000       1.565237        42.5923 
  76   0.0000       1.576610        42.9017 
  77   0.0000       1.579166        42.9713 
  78   0.0000       1.583648        43.0933 
  79   0.0000       1.587784        43.2058 
  80   0.0000       1.593130        43.3513 
  81   0.0000       1.602287        43.6004 
  82   0.0000       1.604731        43.6670 
  83   0.0000       1.607815        43.7509 
  84   0.0000       1.611867        43.8611 
  85   0.0000       1.622373        44.1470 
  86   0.0000       1.633315        44.4448 
  87   0.0000       1.666176        45.3389 
  88   0.0000       1.678205        45.6663 
  89   0.0000       1.684043        45.8251 
  90   0.0000       1.700395        46.2701 
  91   0.0000       1.710521        46.5457 
  92   0.0000       1.717323        46.7307 
  93   0.0000       1.740775        47.3689 
  94   0.0000       1.741857        47.3983 
  95   0.0000       1.897585        51.6359 
  96   0.0000       1.936070        52.6831 
  97   0.0000       2.027468        55.1702 
  98   0.0000       2.033392        55.3314 
  99   0.0000       2.041638        55.5558 
 100   0.0000       2.066818        56.2410 
 101   0.0000       2.072224        56.3881 
 102   0.0000       2.074012        56.4367 
 103   0.0000       2.086446        56.7751 
 104   0.0000       2.098948        57.1153 
 105   0.0000       2.099427        57.1283 
 106   0.0000       2.108309        57.3700 
 107   0.0000       2.119219        57.6669 
 108   0.0000       2.204413        59.9851 
 109   0.0000       2.210655        60.1550 
 110   0.0000       2.236560        60.8599 
 111   0.0000       2.353799        64.0501 
 112   0.0000       2.524934        68.7069 
 113   0.0000       2.530874        68.8686 
 114   0.0000       4.739998       128.9819 
 115   0.0000       4.753176       129.3405 
 116   0.0000       4.756828       129.4399 
 117   0.0000       4.761777       129.5746 
 118   0.0000       4.771132       129.8291 
 119   0.0000       4.771471       129.8383 
 120   0.0000       4.777745       130.0090 
 121   0.0000       4.789842       130.3382 
 122   0.0000       4.792139       130.4007 
 123   0.0000       4.796745       130.5261 
 124   0.0000       4.799059       130.5890 
 125   0.0000       4.813869       130.9920 
 126   0.0000       4.814487       131.0089 
 127   0.0000       4.850789       131.9967 
 128   0.0000       4.868999       132.4922 
 129   0.0000       4.873949       132.6269 
 130   0.0000       4.879048       132.7656 
 131   0.0000       4.879077       132.7664 
 132   0.0000       5.029699       136.8651 
 133   0.0000       5.034504       136.9958 
 134   0.0000       5.050577       137.4332 
 135   0.0000       5.554264       151.1392 
 136   0.0000       5.554311       151.1405 
 137   0.0000       5.554567       151.1474 
 138   0.0000       5.555254       151.1662 
 139   0.0000       5.555409       151.1704 
 140   0.0000       5.555675       151.1776 
 141   0.0000       5.556496       151.1999 
 142   0.0000       5.556663       151.2045 
 143   0.0000       5.557178       151.2185 
 144   0.0000       5.557572       151.2292 
 145   0.0000       5.557995       151.2407 
 146   0.0000       5.558588       151.2569 
 147   0.0000       5.559237       151.2745 
 148   0.0000       5.559240       151.2746 
 149   0.0000       5.559502       151.2817 
 150   0.0000       5.559561       151.2833 
 151   0.0000       5.562052       151.3511 
 152   0.0000       5.563769       151.3978 
 153   0.0000       5.574635       151.6935 
 154   0.0000       5.575796       151.7251 
 155   0.0000       5.576859       151.7541 
 156   0.0000       5.578721       151.8047 
 157   0.0000       5.578790       151.8066 
 158   0.0000       5.579107       151.8152 
 159   0.0000       5.579635       151.8296 
 160   0.0000       5.582566       151.9093 
 161   0.0000       5.582982       151.9207 
 162   0.0000      33.315017       906.5477 
 163   0.0000      33.646053       915.5556 
 164   0.0000      33.657815       915.8757 
 165   0.0000     110.742839      3013.4659 
 166   0.0000     110.845657      3016.2637 
 167   0.0000     110.857644      3016.5899 

                 SPIN DOWN ORBITALS
  NO   OCC          E(Eh)            E(eV) 
   0   1.0000      -3.677132      -100.0598 
   1   1.0000      -3.676801      -100.0508 
   2   1.0000      -3.658709       -99.5585 
   3   1.0000      -2.286220       -62.2112 
   4   1.0000      -2.282683       -62.1150 
   5   1.0000      -2.281792       -62.0907 
   6   1.0000      -2.280895       -62.0663 
   7   1.0000      -2.280744       -62.0622 
   8   1.0000      -2.280541       -62.0567 
   9   1.0000      -2.264779       -61.6278 
  10   1.0000      -2.263641       -61.5968 
  11   1.0000      -2.260674       -61.5161 
  12   1.0000      -0.351106        -9.5541 
  13   1.0000      -0.334817        -9.1108 
  14   1.0000      -0.328614        -8.9420 
  15   1.0000      -0.325887        -8.8678 
  16   1.0000      -0.313057        -8.5187 
  17   1.0000      -0.312147        -8.4940 
  18   1.0000      -0.306930        -8.3520 
  19   1.0000      -0.295101        -8.0301 
  20   1.0000      -0.291963        -7.9447 
  21   1.0000      -0.289499        -7.8777 
  22   1.0000      -0.279525        -7.6063 
  23   1.0000      -0.277698        -7.5565 
  24   1.0000      -0.274519        -7.4700 
  25   1.0000      -0.273870        -7.4524 
  26   1.0000      -0.262702        -7.1485 
  27   1.0000      -0.230196        -6.2639 
  28   0.0000      -0.108935        -2.9643 
  29   0.0000      -0.091182        -2.4812 
  30   0.0000      -0.039375        -1.0714 
  31   0.0000      -0.016095        -0.4380 
  32   0.0000       0.004364         0.1188 
  33   0.0000       0.005491         0.1494 
  34   0.0000       0.033053         0.8994 
  35   0.0000       0.043640         1.1875 
  36   0.0000       0.078573         2.1381 
  37   0.0000       0.088969         2.4210 
  38   0.0000       0.092700         2.5225 
  39   0.0000       0.111920         3.0455 
  40   0.0000       0.159544         4.3414 
  41   0.0000       0.162158         4.4126 
  42   0.0000       0.164240         4.4692 
  43   0.0000       0.171331         4.6622 
  44   0.0000       0.187883         5.1126 
  45   0.0000       0.188675         5.1341 
  46   0.0000       0.224656         6.1132 
  47   0.0000       0.238227         6.4825 
  48   0.0000       0.305288         8.3073 
  49   0.0000       0.357774         9.7355 
  50   0.0000       0.359787         9.7903 
  51   0.0000       0.366614         9.9761 
  52   0.0000       0.390595        10.6286 
  53   0.0000       0.397659        10.8208 
  54   0.0000       0.405059        11.0222 
  55   0.0000       0.496678        13.5153 
  56   0.0000       0.502094        13.6627 
  57   0.0000       0.539939        14.6925 
  58   0.0000       0.553270        15.0552 
  59   0.0000       0.587953        15.9990 
  60   0.0000       0.598111        16.2754 
  61   0.0000       0.599867        16.3232 
  62   0.0000       0.601153        16.3582 
  63   0.0000       0.674168        18.3450 
  64   0.0000       0.681599        18.5473 
  65   0.0000       0.733640        19.9634 
  66   0.0000       1.462306        39.7914 
  67   0.0000       1.467266        39.9263 
  68   0.0000       1.502278        40.8791 
  69   0.0000       1.512903        41.1682 
  70   0.0000       1.531890        41.6848 
  71   0.0000       1.544005        42.0145 
  72   0.0000       1.544761        42.0351 
  73   0.0000       1.561017        42.4774 
  74   0.0000       1.565904        42.6104 
  75   0.0000       1.566510        42.6269 
  76   0.0000       1.577737        42.9324 
  77   0.0000       1.580721        43.0136 
  78   0.0000       1.585449        43.1423 
  79   0.0000       1.591407        43.3044 
  80   0.0000       1.597198        43.4620 
  81   0.0000       1.607734        43.7487 
  82   0.0000       1.608077        43.7580 
  83   0.0000       1.613364        43.9019 
  84   0.0000       1.614179        43.9240 
  85   0.0000       1.628347        44.3096 
  86   0.0000       1.635715        44.5101 
  87   0.0000       1.671732        45.4901 
  88   0.0000       1.679998        45.7151 
  89   0.0000       1.687373        45.9158 
  90   0.0000       1.706477        46.4356 
  91   0.0000       1.712140        46.5897 
  92   0.0000       1.720335        46.8127 
  93   0.0000       1.744670        47.4749 
  94   0.0000       1.747759        47.5589 
  95   0.0000       1.899917        51.6994 
  96   0.0000       1.939731        52.7828 
  97   0.0000       2.030694        55.2580 
  98   0.0000       2.035756        55.3957 
  99   0.0000       2.045090        55.6497 
 100   0.0000       2.069139        56.3041 
 101   0.0000       2.074331        56.4454 
 102   0.0000       2.078748        56.5656 
 103   0.0000       2.089724        56.8643 
 104   0.0000       2.103454        57.2379 
 105   0.0000       2.103632        57.2427 
 106   0.0000       2.110248        57.4228 
 107   0.0000       2.124509        57.8108 
 108   0.0000       2.206172        60.0330 
 109   0.0000       2.214730        60.2659 
 110   0.0000       2.240379        60.9638 
 111   0.0000       2.354915        64.0805 
 112   0.0000       2.526203        68.7415 
 113   0.0000       2.534672        68.9719 
 114   0.0000       4.741141       129.0130 
 115   0.0000       4.754253       129.3698 
 116   0.0000       4.758133       129.4754 
 117   0.0000       4.762382       129.5910 
 118   0.0000       4.772339       129.8619 
 119   0.0000       4.772883       129.8768 
 120   0.0000       4.779113       130.0463 
 121   0.0000       4.790655       130.3603 
 122   0.0000       4.793008       130.4244 
 123   0.0000       4.797728       130.5528 
 124   0.0000       4.799766       130.6083 
 125   0.0000       4.816053       131.0515 
 126   0.0000       4.816471       131.0628 
 127   0.0000       4.851984       132.0292 
 128   0.0000       4.870166       132.5239 
 129   0.0000       4.875061       132.6572 
 130   0.0000       4.880488       132.8048 
 131   0.0000       4.880828       132.8141 
 132   0.0000       5.030413       136.8845 
 133   0.0000       5.035813       137.0314 
 134   0.0000       5.052027       137.4726 
 135   0.0000       5.554328       151.1409 
 136   0.0000       5.554695       151.1509 
 137   0.0000       5.554891       151.1563 
 138   0.0000       5.555303       151.1675 
 139   0.0000       5.555698       151.1782 
 140   0.0000       5.555770       151.1802 
 141   0.0000       5.556836       151.2092 
 142   0.0000       5.556927       151.2117 
 143   0.0000       5.557567       151.2291 
 144   0.0000       5.557634       151.2309 
 145   0.0000       5.558171       151.2455 
 146   0.0000       5.558945       151.2666 
 147   0.0000       5.559330       151.2771 
 148   0.0000       5.559496       151.2816 
 149   0.0000       5.559895       151.2924 
 150   0.0000       5.560146       151.2993 
 151   0.0000       5.562221       151.3557 
 152   0.0000       5.564492       151.4175 
 153   0.0000       5.575920       151.7285 
 154   0.0000       5.576634       151.7479 
 155   0.0000       5.577890       151.7821 
 156   0.0000       5.579071       151.8142 
 157   0.0000       5.579821       151.8347 
 158   0.0000       5.579840       151.8352 
 159   0.0000       5.579916       151.8372 
 160   0.0000       5.583436       151.9330 
 161   0.0000       5.584117       151.9516 
 162   0.0000      33.315166       906.5517 
 163   0.0000      33.646210       915.5599 
 164   0.0000      33.657990       915.8805 
 165   0.0000     110.742935      3013.4685 
 166   0.0000     110.845719      3016.2654 
 167   0.0000     110.857798      3016.5941 

                    ********************************
                    * MULLIKEN POPULATION ANALYSIS *
                    ********************************

--------------------------------------------
MULLIKEN ATOMIC CHARGES AND SPIN POPULATIONS
--------------------------------------------
   0 Ag:   -0.104632    0.572211
   1 Ag:    0.052314    0.213896
   2 Ag:    0.052318    0.213893
Sum of atomic charges         :   -0.0000000
Sum of atomic spin populations:    1.0000000

-----------------------------------------------------
MULLIKEN REDUCED ORBITAL CHARGES AND SPIN POPULATIONS
-----------------------------------------------------
CHARGE
  0 Ags       :     3.034047  s :     3.034047
      pz      :     2.012033  p :     6.183828
      px      :     2.010971
      py      :     2.160825
      dz2     :     1.986914  d :     9.885094
      dxz     :     1.994532
      dyz     :     1.987454
      dx2y2   :     1.981932
      dxy     :     1.934262
      f0      :     0.000145  f :     0.001643
      f+1     :     0.000101
      f-1     :     0.000267
      f+2     :     0.000079
      f-2     :     0.000186
      f+3     :     0.000518
      f-3     :     0.000346
      g0      :     0.000002  g :     0.000020
      g+1     :     0.000001
      g-1     :     0.000002
      g+2     :     0.000001
      g-2     :     0.000003
      g+3     :     0.000002
      g-3     :     0.000000
      g+4     :     0.000004
      g-4     :     0.000005
  1 Ags       :     2.808782  s :     2.808782
      pz      :     2.014542  p :     6.213036
      px      :     2.041500
      py      :     2.156994
      dz2     :     1.989482  d :     9.923978
      dxz     :     1.992470
      dyz     :     1.995275
      dx2y2   :     1.966344
      dxy     :     1.980408
      f0      :     0.000163  f :     0.001869
      f+1     :     0.000249
      f-1     :     0.000158
      f+2     :     0.000187
      f-2     :     0.000141
      f+3     :     0.000584
      f-3     :     0.000388
      g0      :     0.000002  g :     0.000020
      g+1     :     0.000002
      g-1     :     0.000001
      g+2     :     0.000002
      g-2     :     0.000002
      g+3     :     0.000002
      g-3     :     0.000000
      g+4     :     0.000005
      g-4     :     0.000005
  2 Ags       :     2.808779  s :     2.808779
      pz      :     2.014542  p :     6.213036
      px      :     2.041500
      py      :     2.156994
      dz2     :     1.989482  d :     9.923978
      dxz     :     1.992470
      dyz     :     1.995275
      dx2y2   :     1.966344
      dxy     :     1.980408
      f0      :     0.000163  f :     0.001869
      f+1     :     0.000249
      f-1     :     0.000158
      f+2     :     0.000187
      f-2     :     0.000141
      f+3     :     0.000584
      f-3     :     0.000388
      g0      :     0.000002  g :     0.000020
      g+1     :     0.000002
      g-1     :     0.000001
      g+2     :     0.000002
      g-2     :     0.000002
      g+3     :     0.000002
      g-3     :     0.000000
      g+4     :     0.000005
      g-4     :     0.000005

SPIN
  0 Ags       :     0.466296  s :     0.466296
      pz      :     0.000325  p :     0.094384
      px      :     0.001270
      py      :     0.092788
      dz2     :     0.001113  d :     0.011546
      dxz     :     0.000335
      dyz     :     0.000796
      dx2y2   :     0.002092
      dxy     :     0.007210
      f0      :    -0.000002  f :    -0.000016
      f+1     :    -0.000001
      f-1     :     0.000001
      f+2     :     0.000000
      f-2     :    -0.000001
      f+3     :    -0.000011
      f-3     :    -0.000002
      g0      :     0.000000  g :     0.000000
      g+1     :     0.000000
      g-1     :     0.000000
      g+2     :     0.000000
      g-2     :     0.000000
      g+3     :     0.000000
      g-3     :     0.000000
      g+4     :     0.000000
      g-4     :     0.000000
  1 Ags       :     0.084219  s :     0.084219
      pz      :    -0.000037  p :     0.124900
      px      :    -0.000272
      py      :     0.125209
      dz2     :     0.000488  d :     0.004771
      dxz     :    -0.000275
      dyz     :    -0.000412
      dx2y2   :     0.001522
      dxy     :     0.003449
      f0      :    -0.000001  f :     0.000006
      f+1     :    -0.000002
      f-1     :     0.000004
      f+2     :    -0.000001
      f-2     :    -0.000001
      f+3     :     0.000009
      f-3     :    -0.000003
      g0      :     0.000000  g :    -0.000000
      g+1     :     0.000000
      g-1     :     0.000000
      g+2     :    -0.000000
      g-2     :     0.000000
      g+3     :    -0.000000
      g-3     :    -0.000000
      g+4     :    -0.000000
      g-4     :    -0.000000
  2 Ags       :     0.084216  s :     0.084216
      pz      :    -0.000037  p :     0.124900
      px      :    -0.000272
      py      :     0.125209
      dz2     :     0.000488  d :     0.004771
      dxz     :    -0.000275
      dyz     :    -0.000412
      dx2y2   :     0.001522
      dxy     :     0.003449
      f0      :    -0.000001  f :     0.000006
      f+1     :    -0.000002
      f-1     :     0.000004
      f+2     :    -0.000001
      f-2     :    -0.000001
      f+3     :     0.000009
      f-3     :    -0.000003
      g0      :     0.000000  g :    -0.000000
      g+1     :     0.000000
      g-1     :     0.000000
      g+2     :    -0.000000
      g-2     :     0.000000
      g+3     :    -0.000000
      g-3     :    -0.000000
      g+4     :    -0.000000
      g-4     :    -0.000000


                     *******************************
                     * LOEWDIN POPULATION ANALYSIS *
                     *******************************

-------------------------------------------
LOEWDIN ATOMIC CHARGES AND SPIN POPULATIONS
-------------------------------------------
   0 Ag:   -0.078346    0.476818
   1 Ag:    0.039172    0.261592
   2 Ag:    0.039174    0.261590

----------------------------------------------------
LOEWDIN REDUCED ORBITAL CHARGES AND SPIN POPULATIONS
----------------------------------------------------
CHARGE
  0 Ags       :     2.807788  s :     2.807788
      pz      :     2.014581  p :     6.348558
      px      :     2.025047
      py      :     2.308930
      dz2     :     2.000088  d :     9.919560
      dxz     :     1.994305
      dyz     :     1.985093
      dx2y2   :     1.986613
      dxy     :     1.953462
      f0      :     0.000194  f :     0.002411
      f+1     :     0.000152
      f-1     :     0.000388
      f+2     :     0.000102
      f-2     :     0.000270
      f+3     :     0.000852
      f-3     :     0.000454
      g0      :     0.000002  g :     0.000027
      g+1     :     0.000001
      g-1     :     0.000003
      g+2     :     0.000002
      g-2     :     0.000004
      g+3     :     0.000003
      g-3     :     0.000000
      g+4     :     0.000005
      g-4     :     0.000008
  1 Ags       :     2.649562  s :     2.649562
      pz      :     2.016947  p :     6.352259
      px      :     2.098735
      py      :     2.236577
      dz2     :     1.999070  d :     9.956234
      dxz     :     1.990749
      dyz     :     1.994356
      dx2y2   :     1.982411
      dxy     :     1.989647
      f0      :     0.000218  f :     0.002746
      f+1     :     0.000307
      f-1     :     0.000231
      f+2     :     0.000260
      f-2     :     0.000186
      f+3     :     0.001032
      f-3     :     0.000511
      g0      :     0.000002  g :     0.000028
      g+1     :     0.000002
      g-1     :     0.000001
      g+2     :     0.000003
      g-2     :     0.000002
      g+3     :     0.000003
      g-3     :     0.000001
      g+4     :     0.000008
      g-4     :     0.000006
  2 Ags       :     2.649560  s :     2.649560
      pz      :     2.016947  p :     6.352259
      px      :     2.098735
      py      :     2.236577
      dz2     :     1.999070  d :     9.956234
      dxz     :     1.990749
      dyz     :     1.994356
      dx2y2   :     1.982411
      dxy     :     1.989647
      f0      :     0.000218  f :     0.002746
      f+1     :     0.000307
      f-1     :     0.000231
      f+2     :     0.000260
      f-2     :     0.000186
      f+3     :     0.001032
      f-3     :     0.000511
      g0      :     0.000002  g :     0.000028
      g+1     :     0.000002
      g-1     :     0.000001
      g+2     :     0.000003
      g-2     :     0.000002
      g+3     :     0.000003
      g-3     :     0.000001
      g+4     :     0.000008
      g-4     :     0.000006

SPIN
  0 Ags       :     0.310321  s :     0.310321
      pz      :     0.000451  p :     0.156137
      px      :     0.000568
      py      :     0.155119
      dz2     :     0.001917  d :     0.010305
      dxz     :    -0.000097
      dyz     :     0.000367
      dx2y2   :     0.003564
      dxy     :     0.004554
      f0      :     0.000001  f :     0.000055
      f+1     :    -0.000000
      f-1     :     0.000058
      f+2     :     0.000002
      f-2     :     0.000000
      f+3     :    -0.000005
      f-3     :    -0.000000
      g0      :     0.000000  g :     0.000001
      g+1     :     0.000000
      g-1     :     0.000000
      g+2     :     0.000000
      g-2     :     0.000000
      g+3     :    -0.000000
      g-3     :     0.000000
      g+4     :     0.000000
      g-4     :     0.000000
  1 Ags       :     0.061513  s :     0.061513
      pz      :     0.000155  p :     0.186916
      px      :     0.001683
      py      :     0.185078
      dz2     :     0.001158  d :     0.013000
      dxz     :    -0.000296
      dyz     :    -0.000228
      dx2y2   :     0.005566
      dxy     :     0.006800
      f0      :     0.000002  f :     0.000162
      f+1     :     0.000002
      f-1     :     0.000038
      f+2     :     0.000002
      f-2     :     0.000003
      f+3     :     0.000110
      f-3     :     0.000006
      g0      :     0.000000  g :     0.000001
      g+1     :     0.000000
      g-1     :     0.000000
      g+2     :     0.000000
      g-2     :     0.000000
      g+3     :     0.000000
      g-3     :     0.000000
      g+4     :     0.000000
      g-4     :     0.000000
  2 Ags       :     0.061511  s :     0.061511
      pz      :     0.000155  p :     0.186916
      px      :     0.001683
      py      :     0.185078
      dz2     :     0.001158  d :     0.013000
      dxz     :    -0.000296
      dyz     :    -0.000228
      dx2y2   :     0.005566
      dxy     :     0.006800
      f0      :     0.000002  f :     0.000162
      f+1     :     0.000002
      f-1     :     0.000038
      f+2     :     0.000002
      f-2     :     0.000003
      f+3     :     0.000110
      f-3     :     0.000006
      g0      :     0.000000  g :     0.000001
      g+1     :     0.000000
      g-1     :     0.000000
      g+2     :     0.000000
      g-2     :     0.000000
      g+3     :     0.000000
      g-3     :     0.000000
      g+4     :     0.000000
      g-4     :     0.000000


                      *****************************
                      * MAYER POPULATION ANALYSIS *
                      *****************************

  NA   - Mulliken gross atomic population
  ZA   - Total nuclear charge
  QA   - Mulliken gross atomic charge
  VA   - Mayer's total valence
  BVA  - Mayer's bonded valence
  FA   - Mayer's free valence

  ATOM       NA         ZA         QA         VA         BVA        FA
  0 Ag    19.1046    19.0000    -0.1046     1.4910     1.1590     0.3320
  1 Ag    18.9477    19.0000     0.0523     1.3999     1.3333     0.0666
  2 Ag    18.9477    19.0000     0.0523     1.3999     1.3333     0.0666

  Mayer bond orders larger than 0.100000
B(  0-Ag,  1-Ag) :   0.5795 B(  0-Ag,  2-Ag) :   0.5795 B(  1-Ag,  2-Ag) :   0.7538 


-------
TIMINGS
-------

Total SCF time: 0 days 0 hours 0 min 7 sec 

Total time                  ....       7.576 sec
Sum of individual times     ....       7.339 sec  ( 96.9%)

Fock matrix formation       ....       5.165 sec  ( 68.2%)
  XC integration            ....       0.970 sec  ( 18.8% of F)
    Basis function eval.    ....       0.052 sec  (  5.4% of XC)
    Density eval.           ....       0.131 sec  ( 13.6% of XC)
    XC-Functional eval.     ....       0.037 sec  (  3.8% of XC)
    XC-Potential eval.      ....       0.283 sec  ( 29.2% of XC)
Diagonalization             ....       0.109 sec  (  1.4%)
Density matrix formation    ....       0.020 sec  (  0.3%)
Population analysis         ....       0.009 sec  (  0.1%)
Initial guess               ....       1.687 sec  ( 22.3%)
Orbital Transformation      ....       0.000 sec  (  0.0%)
Orbital Orthonormalization  ....       0.000 sec  (  0.0%)
DIIS solution               ....       0.040 sec  (  0.5%)
Grid generation             ....       0.308 sec  (  4.1%)


-------------------------------------------------------------------------------
                          DFT DISPERSION CORRECTION                            
                                                                               
                              DFTD3 V3.1  Rev 1                                
                          USING Becke-Johnson damping                          
-------------------------------------------------------------------------------
The TPSSH functional is recognized
Active option DFTDOPT                   ...         4   

molecular C6(AA) [au] = 2417.548083 


            DFT-D V3
 parameters
 s6 scaling factor         :     1.0000 
 a1 scaling factor         :     0.4529 
 s8 scaling factor         :     2.2382 
 a2 scaling factor         :     4.6550 
 ad hoc parameters k1-k3   :    16.0000     1.3333    -4.0000 

 Edisp/kcal,au: -3.444837375118  -0.005489697208 
 E6   /kcal   :  -0.970128757 
 E8   /kcal   :  -2.474708618 
 % E8         :  71.838184175 

-------------------------   ----------------
Dispersion correction           -0.005489697
-------------------------   ----------------


-------------------------   --------------------
FINAL SINGLE POINT ENERGY      -440.832315355487
-------------------------   --------------------



           ************************************************************
           *        Program running with 24 parallel MPI-processes    *
           *              working on a common directory               *
           ************************************************************
------------------------------------------------------------------------------
                         ORCA SCF GRADIENT CALCULATION
------------------------------------------------------------------------------

Gradient of the Kohn-Sham DFT energy:
Kohn-Sham wavefunction type      ... UKS
Hartree-Fock exchange scaling    ...    0.100
Number of operators              ...    2
Number of atoms                  ...    3
Basis set dimensions             ...  168
Integral neglect threshold       ... 2.5e-11
Integral primitive cutoff        ... 2.5e-12

Nuclear repulsion gradient       ... done
One Electron Gradient            
  ECP gradient                   ... done
Pre-screening matrix             ... done
Starting the two electron gradient:
Two electron gradient done
Exchange-correlation gradient    ... done
Dispersion correction            ... done

------------------
CARTESIAN GRADIENT
------------------

   1   Ag  :    0.000000084   -0.013250704   -0.000000003
   2   Ag  :    0.004033175    0.006737343   -0.000000002
   3   Ag  :   -0.004033268    0.006737189   -0.000000001

Difference to translation invariance:
           :   -0.0000000087    0.0002238277   -0.0000000067

Norm of the cartesian gradient     ...    0.0172886212
RMS gradient                       ...    0.0057628737
MAX gradient                       ...    0.0132507044

-------
TIMINGS
-------

Total SCF gradient time            ...        3.382 sec

One electron gradient       ....       1.025 sec  ( 30.3%)
Prescreening matrices       ....       0.005 sec  (  0.1%)
Two electron gradient       ....       2.019 sec  ( 59.7%)
XC gradient                 ....       0.120 sec  (  3.6%)
------------------------------------------------------------------------------
                         ORCA GEOMETRY RELAXATION STEP
------------------------------------------------------------------------------

Reading the OPT-File                    .... done
Getting information on internals        .... done
Copying old internal coords+grads       .... done
Making the new internal coordinates     .... (new redundants).... done
Validating the new internal coordinates .... (new redundants).... done
Calculating the B-matrix                .... done
Calculating the G,G- and P matrices     .... done
Transforming gradient to internals      .... done
Projecting the internal gradient        .... done
Number of atoms                         ....   3
Number of internal coordinates          ....   6
Current Energy                          ....  -440.832315355 Eh
Current gradient norm                   ....     0.017288621 Eh/bohr
Maximum allowed component of the step   ....  0.300
Current trust radius                    ....  0.300
Evaluating the initial hessian          ....  (Almloef) done
Projecting the Hessian                  .... done
Forming the augmented Hessian           .... done
Diagonalizing the augmented Hessian     .... done
Last element of RFO vector              ....  0.999783339
Lowest eigenvalues of augmented Hessian:
 -0.000266031  0.609228177  0.614032056  0.614268370 1000.000000000
Length of the computed step             ....  0.020819782
The final length of the internal step   ....  0.020819782
Converting the step to cartesian space:
 Initial RMS(Int)=    0.0084996403
Transforming coordinates:
 Iter   0:  RMS(Cart)=    0.0052171853 RMS(Int)=    0.0085055658
 Iter   1:  RMS(Cart)=    0.0000043386 RMS(Int)=    0.0000087060
 Iter   2:  RMS(Cart)=    0.0000000033 RMS(Int)=    0.0000000069
done
Storing new coordinates                 .... done

                                .--------------------.
          ----------------------|Geometry convergence|-------------------------
          Item                value                   Tolerance       Converged
          ---------------------------------------------------------------------
          RMS gradient        0.0052165356            0.0001000000      NO
          MAX gradient        0.0071413690            0.0003000000      NO
          RMS step            0.0084996403            0.0020000000      NO
          MAX step            0.0116575518            0.0040000000      NO
          ........................................................
          Max(Bonds)      0.0062      Max(Angles)    0.30
          Max(Dihed)        0.00      Max(Improp)    0.00
          ---------------------------------------------------------------------

The optimization has not yet converged - more geometry cycles are needed


    ---------------------------------------------------------------------------
                         Redundant Internal Coordinates
                            (Angstroem and degrees)

        Definition                    Value    dE/dq     Step     New-Value
    ----------------------------------------------------------------------------
     1. B(Ag  1,Ag  0)                2.6569 -0.007141  0.0062    2.6631   
     2. B(Ag  2,Ag  1)                2.6569  0.006776 -0.0058    2.6511   
     3. B(Ag  2,Ag  0)                2.6569 -0.007141  0.0062    2.6631   
     4. A(Ag  1,Ag  0,Ag  2)           60.00  0.003201   -0.30     59.70   
     5. A(Ag  0,Ag  1,Ag  2)           60.00 -0.001600    0.15     60.15   
     6. A(Ag  0,Ag  2,Ag  1)           60.00 -0.001600    0.15     60.15   
    ----------------------------------------------------------------------------

         *************************************************************
         *                GEOMETRY OPTIMIZATION CYCLE   2            *
         *************************************************************
---------------------------------
CARTESIAN COORDINATES (ANGSTROEM)
---------------------------------
  Ag    -0.000000    1.539814    0.000000
  Ag     1.325530   -0.769908    0.000000
  Ag    -1.325530   -0.769908    0.000000

----------------------------
CARTESIAN COORDINATES (A.U.)
----------------------------
  NO LB      ZA    FRAG     MASS         X           Y           Z
   0 Ag   19.0000*   0   107.870   -0.000000    2.909827    0.000000
   1 Ag   19.0000*   0   107.870    2.504888   -1.454915    0.000000
   2 Ag   19.0000*   0   107.870   -2.504888   -1.454915    0.000000
* core charge reduced due to ECP

--------------------------------
INTERNAL COORDINATES (ANGSTROEM)
--------------------------------
 Ag     0   0   0     0.000000000000     0.00000000     0.00000000
 Ag     1   0   0     2.663051947381     0.00000000     0.00000000
 Ag     2   1   0     2.651059629295    60.14885059     0.00000000

---------------------------
INTERNAL COORDINATES (A.U.)
---------------------------
 Ag     0   0   0     0.000000000000     0.00000000     0.00000000
 Ag     1   0   0     5.032438860956     0.00000000     0.00000000
 Ag     2   1   0     5.009776664062    60.14885059     0.00000000



           ************************************************************
           *        Program running with 24 parallel MPI-processes    *
           *              working on a common directory               *
           ************************************************************


           ************************************************************
           *        Program running with 24 parallel MPI-processes    *
           *              working on a common directory               *
           ************************************************************

Diagonalization of the overlap matrix:
Smallest eigenvalue                        ... 2.920e-03
Time for diagonalization                   ...    0.006 sec
Threshold for overlap eigenvalues          ... 1.000e-08
Number of eigenvalues below threshold      ... 0
Time for construction of square roots      ...    0.003 sec
Total time needed                          ...    0.010 sec

-------------------
DFT GRID GENERATION
-------------------

General Integration Accuracy     IntAcc      ...  4.670
Radial Grid Type                 RadialGrid  ... Gauss-Chebyshev
Angular Grid (max. acc.)         AngularGrid ... Lebedev-302
Angular grid pruning method      GridPruning ... 3 (G Style)
Weight generation scheme         WeightScheme... Becke
Basis function cutoff            BFCut       ...    1.0000e-11
Integration weight cutoff        WCut        ...    1.0000e-14
Grids for H and He will be reduced by one unit

# of grid points (after initial pruning)     ...  31974 (   0.0 sec)
# of grid points (after weights+screening)   ...  31836 (   0.0 sec)
nearest neighbour list constructed           ...    0.0 sec
Grid point re-assignment to atoms done       ...    0.0 sec
Grid point division into batches done        ...    0.2 sec
Reduced shell lists constructed in    0.3 sec

Total number of grid points                  ...    31836
Total number of batches                      ...      499
Average number of points per batch           ...       63
Average number of grid points per atom       ...    10612
Average number of shells per batch           ...     5.18 (10.80%)
Average number of basis functions per batch  ...    11.36 ( 6.76%)
Average number of large shells per batch     ...     3.32 (64.04%)
Average number of large basis fcns per batch ...     6.68 (58.80%)
Maximum spatial batch extension              ...  27.01, 24.03, 31.14 au
Average spatial batch extension              ...   0.75,  0.64,  0.72 au

Time for grid setup =    0.306 sec

--------------
SCF ITERATIONS
--------------
ITER       Energy         Delta-E        Max-DP      RMS-DP      [F,P]     Damp
               ***  Starting incremental Fock matrix formation  ***
  0   -440.8270786150   0.000000000000 0.00015216  0.00000378  0.0067683 0.7000
  1   -440.8270798314  -0.000001216365 0.00016760  0.00000395  0.0047472 0.7000
                               ***Turning on DIIS***
  2   -440.8270807199  -0.000000888466 0.00059608  0.00001117  0.0033246 0.0000
  3   -440.8270828520  -0.000002132153 0.00047677  0.00000472  0.0000622 0.0000
  4   -440.8270829007  -0.000000048647 0.00003796  0.00000072  0.0000709 0.0000
  5   -440.8270829273  -0.000000026603 0.00005002  0.00000056  0.0000122 0.0000
  6   -440.8270829283  -0.000000001031 0.00001838  0.00000017  0.0000134 0.0000
  7   -440.8270829284  -0.000000000060 0.00000626  0.00000008  0.0000060 0.0000
                            ***DIIS convergence achieved***

               *****************************************************
               *                     SUCCESS                       *
               *           SCF CONVERGED AFTER   8 CYCLES          *
               *****************************************************

Total Energy       :         -440.82708293 Eh          -11995.51477 eV
  Last Energy change         ...    1.8997e-10  Tolerance :   1.0000e-08
  Last MAX-Density change    ...    2.8538e-06  Tolerance :   1.0000e-07
             **** THE GBW FILE WAS UPDATED (Ag03N0_D3H.gbw) ****
             **** DENSITY FILE WAS UPDATED (Ag03N0_D3H.scfp) ****
             **** ENERGY FILE WAS UPDATED (Ag03N0_D3H.en.tmp) ****
----------------------
UHF SPIN CONTAMINATION
----------------------

Warning: in a DFT calculation there is little theoretical justification to 
         calculate <S**2> as in Hartree-Fock theory. We will do it anyways
         but you should keep in mind that the values have only limited relevance

Expectation value of <S**2>     :     0.756619
Ideal value S*(S+1) for S=0.5   :     0.750000
Deviation                       :     0.006619

             **** THE GBW FILE WAS UPDATED (Ag03N0_D3H.gbw) ****
             **** DENSITY FILE WAS UPDATED (Ag03N0_D3H.scfp) ****
Total SCF time: 0 days 0 hours 0 min 3 sec 


-------------------------------------------------------------------------------
                          DFT DISPERSION CORRECTION                            
                                                                               
                              DFTD3 V3.1  Rev 1                                
                          USING Becke-Johnson damping                          
-------------------------------------------------------------------------------
-------------------------   ----------------
Dispersion correction           -0.005489200
-------------------------   ----------------


-------------------------   --------------------
FINAL SINGLE POINT ENERGY      -440.832572128200
-------------------------   --------------------



           ************************************************************
           *        Program running with 24 parallel MPI-processes    *
           *              working on a common directory               *
           ************************************************************
------------------------------------------------------------------------------
                         ORCA SCF GRADIENT CALCULATION
------------------------------------------------------------------------------

Gradient of the Kohn-Sham DFT energy:
Kohn-Sham wavefunction type      ... UKS
Hartree-Fock exchange scaling    ...    0.100
Number of operators              ...    2
Number of atoms                  ...    3
Basis set dimensions             ...  168
Integral neglect threshold       ... 2.5e-11
Integral primitive cutoff        ... 2.5e-12

Nuclear repulsion gradient       ... done
One Electron Gradient            
  ECP gradient                   ... done
Pre-screening matrix             ... done
Starting the two electron gradient:
Two electron gradient done
Exchange-correlation gradient    ... done
Dispersion correction            ... done

------------------
CARTESIAN GRADIENT
------------------

   1   Ag  :    0.000000067   -0.012332743    0.000000003
   2   Ag  :    0.003823196    0.006276306    0.000000004
   3   Ag  :   -0.003823277    0.006276164    0.000000008

Difference to translation invariance:
           :   -0.0000000141    0.0002197266    0.0000000139

Norm of the cartesian gradient     ...    0.0161280212
RMS gradient                       ...    0.0053760071
MAX gradient                       ...    0.0123327428

-------
TIMINGS
-------

Total SCF gradient time            ...        3.359 sec

One electron gradient       ....       1.014 sec  ( 30.2%)
Prescreening matrices       ....       0.005 sec  (  0.2%)
Two electron gradient       ....       1.997 sec  ( 59.5%)
XC gradient                 ....       0.117 sec  (  3.5%)
------------------------------------------------------------------------------
                         ORCA GEOMETRY RELAXATION STEP
------------------------------------------------------------------------------

Reading the OPT-File                    .... done
Getting information on internals        .... done
Copying old internal coords+grads       .... done
Making the new internal coordinates     .... (new redundants).... done
Validating the new internal coordinates .... (new redundants).... done
Calculating the B-matrix                .... done
Calculating the G,G- and P matrices     .... done
Transforming gradient to internals      .... done
Projecting the internal gradient        .... done
Number of atoms                         ....   3
Number of internal coordinates          ....   6
Current Energy                          ....  -440.832572128 Eh
Current gradient norm                   ....     0.016128021 Eh/bohr
Maximum allowed component of the step   ....  0.300
Current trust radius                    ....  0.300
Updating the Hessian (BFGS)             .... done
Forming the augmented Hessian           .... done
Diagonalizing the augmented Hessian     .... done
Last element of RFO vector              ....  0.966081628
Lowest eigenvalues of augmented Hessian:
 -0.003185199  0.044578703  0.609874108  0.614032056 998.717271283
Length of the computed step             ....  0.267303379
The final length of the internal step   ....  0.267303379
Converting the step to cartesian space:
 Initial RMS(Int)=    0.1091261473
Transforming coordinates:
 Iter   0:  RMS(Cart)=    0.0669436651 RMS(Int)=    0.1100774383
 Iter   1:  RMS(Cart)=    0.0006916350 RMS(Int)=    0.0014007947
 Iter   2:  RMS(Cart)=    0.0000061792 RMS(Int)=    0.0000130147
 Iter   3:  RMS(Cart)=    0.0000000247 RMS(Int)=    0.0000000505
done
Storing new coordinates                 .... done

                                .--------------------.
          ----------------------|Geometry convergence|-------------------------
          Item                value                   Tolerance       Converged
          ---------------------------------------------------------------------
          Energy change      -0.0002567727            0.0000050000      NO
          RMS gradient        0.0048647217            0.0001000000      NO
          MAX gradient        0.0066434651            0.0003000000      NO
          RMS step            0.1091261473            0.0020000000      NO
          MAX step            0.1492712620            0.0040000000      NO
          ........................................................
          Max(Bonds)      0.0790      Max(Angles)    3.83
          Max(Dihed)        0.00      Max(Improp)    0.00
          ---------------------------------------------------------------------

The optimization has not yet converged - more geometry cycles are needed


    ---------------------------------------------------------------------------
                         Redundant Internal Coordinates
                            (Angstroem and degrees)

        Definition                    Value    dE/dq     Step     New-Value
    ----------------------------------------------------------------------------
     1. B(Ag  1,Ag  0)                2.6631 -0.006643  0.0790    2.7420   
     2. B(Ag  2,Ag  1)                2.6511  0.006361 -0.0752    2.5759   
     3. B(Ag  2,Ag  0)                2.6631 -0.006643  0.0790    2.7420   
     4. A(Ag  1,Ag  0,Ag  2)           59.70  0.002973   -3.83     55.87   
     5. A(Ag  0,Ag  1,Ag  2)           60.15 -0.001486    1.91     62.06   
     6. A(Ag  0,Ag  2,Ag  1)           60.15 -0.001486    1.91     62.06   
    ----------------------------------------------------------------------------

         *************************************************************
         *                GEOMETRY OPTIMIZATION CYCLE   3            *
         *************************************************************
---------------------------------
CARTESIAN COORDINATES (ANGSTROEM)
---------------------------------
  Ag    -0.000001    1.614078    0.000000
  Ag     1.287710   -0.807040    0.000000
  Ag    -1.287709   -0.807039    0.000000

----------------------------
CARTESIAN COORDINATES (A.U.)
----------------------------
  NO LB      ZA    FRAG     MASS         X           Y           Z
   0 Ag   19.0000*   0   107.870   -0.000001    3.050165    0.000000
   1 Ag   19.0000*   0   107.870    2.433419   -1.525084    0.000000
   2 Ag   19.0000*   0   107.870   -2.433418   -1.525082    0.000000
* core charge reduced due to ECP

--------------------------------
INTERNAL COORDINATES (ANGSTROEM)
--------------------------------
 Ag     0   0   0     0.000000000000     0.00000000     0.00000000
 Ag     1   0   0     2.742263119379     0.00000000     0.00000000
 Ag     2   1   0     2.575418897005    61.99297732     0.00000000

---------------------------
INTERNAL COORDINATES (A.U.)
---------------------------
 Ag     0   0   0     0.000000000000     0.00000000     0.00000000
 Ag     1   0   0     5.182126282778     0.00000000     0.00000000
 Ag     2   1   0     4.866836395464    61.99297732     0.00000000



           ************************************************************
           *        Program running with 24 parallel MPI-processes    *
           *              working on a common directory               *
           ************************************************************


           ************************************************************
           *        Program running with 24 parallel MPI-processes    *
           *              working on a common directory               *
           ************************************************************

Diagonalization of the overlap matrix:
Smallest eigenvalue                        ... 2.700e-03
Time for diagonalization                   ...    0.006 sec
Threshold for overlap eigenvalues          ... 1.000e-08
Number of eigenvalues below threshold      ... 0
Time for construction of square roots      ...    0.003 sec
Total time needed                          ...    0.009 sec

-------------------
DFT GRID GENERATION
-------------------

General Integration Accuracy     IntAcc      ...  4.670
Radial Grid Type                 RadialGrid  ... Gauss-Chebyshev
Angular Grid (max. acc.)         AngularGrid ... Lebedev-302
Angular grid pruning method      GridPruning ... 3 (G Style)
Weight generation scheme         WeightScheme... Becke
Basis function cutoff            BFCut       ...    1.0000e-11
Integration weight cutoff        WCut        ...    1.0000e-14
Grids for H and He will be reduced by one unit

# of grid points (after initial pruning)     ...  31974 (   0.0 sec)
# of grid points (after weights+screening)   ...  31844 (   0.0 sec)
nearest neighbour list constructed           ...    0.0 sec
Grid point re-assignment to atoms done       ...    0.0 sec
Grid point division into batches done        ...    0.2 sec
Reduced shell lists constructed in    0.3 sec

Total number of grid points                  ...    31844
Total number of batches                      ...      499
Average number of points per batch           ...       63
Average number of grid points per atom       ...    10615
Average number of shells per batch           ...     4.95 (10.32%)
Average number of basis functions per batch  ...    10.95 ( 6.52%)
Average number of large shells per batch     ...     3.32 (66.97%)
Average number of large basis fcns per batch ...     6.77 (61.83%)
Maximum spatial batch extension              ...  26.87, 23.54, 31.14 au
Average spatial batch extension              ...   0.74,  0.63,  0.72 au

Time for grid setup =    0.300 sec

--------------
SCF ITERATIONS
--------------
ITER       Energy         Delta-E        Max-DP      RMS-DP      [F,P]     Damp
               ***  Starting incremental Fock matrix formation  ***
  0   -440.8282051085   0.000000000000 0.00184312  0.00004502  0.0819923 0.7000
  1   -440.8283932794  -0.000188170896 0.00205733  0.00004754  0.0575091 0.7000
                               ***Turning on DIIS***
  2   -440.8285319065  -0.000138627141 0.00723006  0.00013564  0.0402755 0.0000
  3   -440.8288659152  -0.000334008667 0.00579144  0.00005889  0.0007114 0.0000
  4   -440.8288746671  -0.000008751869 0.00053091  0.00000903  0.0007974 0.0000
  5   -440.8288786869  -0.000004019841 0.00065220  0.00000715  0.0001315 0.0000
  6   -440.8288789607  -0.000000273814 0.00015130  0.00000157  0.0000992 0.0000
  7   -440.8288789948  -0.000000034064 0.00006297  0.00000082  0.0000625 0.0000
  8   -440.8288790031  -0.000000008357 0.00005605  0.00000044  0.0000278 0.0000
  9   -440.8288790055  -0.000000002312 0.00001369  0.00000017  0.0000063 0.0000
 10   -440.8288790059  -0.000000000454 0.00000432  0.00000008  0.0000034 0.0000
                            ***DIIS convergence achieved***

               *****************************************************
               *                     SUCCESS                       *
               *           SCF CONVERGED AFTER  11 CYCLES          *
               *****************************************************

Total Energy       :         -440.82887901 Eh          -11995.56364 eV
  Last Energy change         ...   -1.3017e-10  Tolerance :   1.0000e-08
  Last MAX-Density change    ...    4.0456e-06  Tolerance :   1.0000e-07
             **** THE GBW FILE WAS UPDATED (Ag03N0_D3H.gbw) ****
             **** DENSITY FILE WAS UPDATED (Ag03N0_D3H.scfp) ****
             **** ENERGY FILE WAS UPDATED (Ag03N0_D3H.en.tmp) ****
----------------------
UHF SPIN CONTAMINATION
----------------------

Warning: in a DFT calculation there is little theoretical justification to 
         calculate <S**2> as in Hartree-Fock theory. We will do it anyways
         but you should keep in mind that the values have only limited relevance

Expectation value of <S**2>     :     0.756462
Ideal value S*(S+1) for S=0.5   :     0.750000
Deviation                       :     0.006462

             **** THE GBW FILE WAS UPDATED (Ag03N0_D3H.gbw) ****
             **** DENSITY FILE WAS UPDATED (Ag03N0_D3H.scfp) ****
Total SCF time: 0 days 0 hours 0 min 4 sec 


-------------------------------------------------------------------------------
                          DFT DISPERSION CORRECTION                            
                                                                               
                              DFTD3 V3.1  Rev 1                                
                          USING Becke-Johnson damping                          
-------------------------------------------------------------------------------
-------------------------   ----------------
Dispersion correction           -0.005481258
-------------------------   ----------------


-------------------------   --------------------
[...]
      dxz     :     1.995875
      dyz     :     1.987315
      dx2y2   :     1.989578
      dxy     :     1.959603
      f0      :     0.000114  f :     0.001521
      f+1     :     0.000087
      f-1     :     0.000284
      f+2     :     0.000072
      f-2     :     0.000147
      f+3     :     0.000553
      f-3     :     0.000264
      g0      :     0.000001  g :     0.000015
      g+1     :     0.000001
      g-1     :     0.000002
      g+2     :     0.000001
      g-2     :     0.000002
      g+3     :     0.000002
      g-3     :     0.000000
      g+4     :     0.000003
      g-4     :     0.000005
  1 Ags       :     2.667344  s :     2.667344
      pz      :     2.016683  p :     6.336638
      px      :     2.097324
      py      :     2.222630
      dz2     :     1.999124  d :     9.956381
      dxz     :     1.989664
      dyz     :     1.995372
      dx2y2   :     1.983440
      dxy     :     1.988781
      f0      :     0.000221  f :     0.002715
      f+1     :     0.000359
      f-1     :     0.000176
      f+2     :     0.000318
      f-2     :     0.000131
      f+3     :     0.000977
      f-3     :     0.000533
      g0      :     0.000002  g :     0.000028
      g+1     :     0.000003
      g-1     :     0.000001
      g+2     :     0.000004
      g-2     :     0.000001
      g+3     :     0.000003
      g-3     :     0.000001
      g+4     :     0.000007
      g-4     :     0.000006
  2 Ags       :     2.667341  s :     2.667341
      pz      :     2.016683  p :     6.336638
      px      :     2.097324
      py      :     2.222631
      dz2     :     1.999124  d :     9.956382
      dxz     :     1.989664
      dyz     :     1.995372
      dx2y2   :     1.983440
      dxy     :     1.988781
      f0      :     0.000221  f :     0.002715
      f+1     :     0.000359
      f-1     :     0.000176
      f+2     :     0.000318
      f-2     :     0.000131
      f+3     :     0.000977
      f-3     :     0.000533
      g0      :     0.000002  g :     0.000028
      g+1     :     0.000003
      g-1     :     0.000001
      g+2     :     0.000004
      g-2     :     0.000001
      g+3     :     0.000003
      g-3     :     0.000001
      g+4     :     0.000007
      g-4     :     0.000006

SPIN
  0 Ags       :     0.357223  s :     0.357223
      pz      :     0.000376  p :     0.132275
      px      :     0.000545
      py      :     0.131353
      dz2     :     0.001561  d :     0.008464
      dxz     :    -0.000090
      dyz     :     0.000250
      dx2y2   :     0.003381
      dxy     :     0.003363
      f0      :     0.000001  f :     0.000055
      f+1     :    -0.000000
      f-1     :     0.000046
      f+2     :     0.000003
      f-2     :     0.000002
      f+3     :    -0.000003
      f-3     :     0.000007
      g0      :     0.000000  g :     0.000000
      g+1     :     0.000000
      g-1     :     0.000000
      g+2     :     0.000000
      g-2     :     0.000000
      g+3     :     0.000000
      g-3     :     0.000000
      g+4     :     0.000000
      g-4     :     0.000000
  1 Ags       :     0.061264  s :     0.061264
      pz      :     0.000214  p :     0.176092
      px      :     0.001702
      py      :     0.174176
      dz2     :     0.001156  d :     0.013492
      dxz     :    -0.000293
      dyz     :    -0.000199
      dx2y2   :     0.006600
      dxy     :     0.006228
      f0      :     0.000003  f :     0.000145
      f+1     :     0.000000
      f-1     :     0.000036
      f+2     :     0.000002
      f-2     :     0.000003
      f+3     :     0.000096
      f-3     :     0.000005
      g0      :     0.000000  g :     0.000001
      g+1     :     0.000000
      g-1     :     0.000000
      g+2     :     0.000000
      g-2     :     0.000000
      g+3     :     0.000000
      g-3     :    -0.000000
      g+4     :     0.000000
      g-4     :     0.000000
  2 Ags       :     0.061259  s :     0.061259
      pz      :     0.000214  p :     0.176093
      px      :     0.001702
      py      :     0.174177
      dz2     :     0.001156  d :     0.013492
      dxz     :    -0.000293
      dyz     :    -0.000199
      dx2y2   :     0.006601
      dxy     :     0.006228
      f0      :     0.000003  f :     0.000145
      f+1     :     0.000000
      f-1     :     0.000036
      f+2     :     0.000002
      f-2     :     0.000003
      f+3     :     0.000096
      f-3     :     0.000005
      g0      :     0.000000  g :     0.000001
      g+1     :     0.000000
      g-1     :     0.000000
      g+2     :     0.000000
      g-2     :     0.000000
      g+3     :     0.000000
      g-3     :    -0.000000
      g+4     :     0.000000
      g-4     :     0.000000


                      *****************************
                      * MAYER POPULATION ANALYSIS *
                      *****************************

  NA   - Mulliken gross atomic population
  ZA   - Total nuclear charge
  QA   - Mulliken gross atomic charge
  VA   - Mayer's total valence
  BVA  - Mayer's bonded valence
  FA   - Mayer's free valence

  ATOM       NA         ZA         QA         VA         BVA        FA
  0 Ag    19.1098    19.0000    -0.1098     1.4259     1.0604     0.3655
  1 Ag    18.9451    19.0000     0.0549     1.3744     1.3141     0.0603
  2 Ag    18.9451    19.0000     0.0549     1.3744     1.3141     0.0603

  Mayer bond orders larger than 0.100000
B(  0-Ag,  1-Ag) :   0.5302 B(  0-Ag,  2-Ag) :   0.5302 B(  1-Ag,  2-Ag) :   0.7839 


-------
TIMINGS
-------

Total SCF time: 0 days 0 hours 0 min 2 sec 

Total time                  ....       2.869 sec
Sum of individual times     ....       2.583 sec  ( 90.0%)

Fock matrix formation       ....       2.174 sec  ( 75.8%)
  XC integration            ....       0.297 sec  ( 13.6% of F)
    Basis function eval.    ....       0.025 sec  (  8.6% of XC)
    Density eval.           ....       0.061 sec  ( 20.6% of XC)
    XC-Functional eval.     ....       0.020 sec  (  6.6% of XC)
    XC-Potential eval.      ....       0.089 sec  ( 30.1% of XC)
Diagonalization             ....       0.056 sec  (  1.9%)
Density matrix formation    ....       0.010 sec  (  0.3%)
Population analysis         ....       0.010 sec  (  0.3%)
Initial guess               ....       0.019 sec  (  0.6%)
Orbital Transformation      ....       0.000 sec  (  0.0%)
Orbital Orthonormalization  ....       0.012 sec  (  0.4%)
DIIS solution               ....       0.016 sec  (  0.6%)
Grid generation             ....       0.299 sec  ( 10.4%)


-------------------------------------------------------------------------------
                          DFT DISPERSION CORRECTION                            
                                                                               
                              DFTD3 V3.1  Rev 1                                
                          USING Becke-Johnson damping                          
-------------------------------------------------------------------------------
The TPSSH functional is recognized
Active option DFTDOPT                   ...         4   

molecular C6(AA) [au] = 2417.577493 


            DFT-D V3
 parameters
 s6 scaling factor         :     1.0000 
 a1 scaling factor         :     0.4529 
 s8 scaling factor         :     2.2382 
 a2 scaling factor         :     4.6550 
 ad hoc parameters k1-k3   :    16.0000     1.3333    -4.0000 

 Edisp/kcal,au: -3.436438540548  -0.005476312814 
 E6   /kcal   :  -0.966287525 
 E8   /kcal   :  -2.470151016 
 % E8         :  71.881134687 

-------------------------   ----------------
Dispersion correction           -0.005476313
-------------------------   ----------------


-------------------------   --------------------
FINAL SINGLE POINT ENERGY      -440.834444270427
-------------------------   --------------------

                                *** OPTIMIZATION RUN DONE ***

                            ***************************************
                            *     ORCA property calculations      *
                            ***************************************

                                    ---------------------
                                    Active property flags
                                    ---------------------
   (+) Dipole Moment


------------------------------------------------------------------------------
                       ORCA ELECTRIC PROPERTIES CALCULATION
------------------------------------------------------------------------------

Dipole Moment Calculation                       ... on
Quadrupole Moment Calculation                   ... off
Polarizability Calculation                      ... off
GBWName                                         ... Ag03N0_D3H.gbw
Electron density file                           ... Ag03N0_D3H.scfp
The origin for moment calculation is the CENTER OF MASS  = (-0.000000, -0.000001  0.000000)

-------------
DIPOLE MOMENT
-------------
                                X             Y             Z
Electronic contribution:     -0.00001      -0.48052      -0.00000
Nuclear contribution   :     -0.00000       0.00000       0.00000
                        -----------------------------------------
Total Dipole Moment    :     -0.00001      -0.48052      -0.00000
                        -----------------------------------------
Magnitude (a.u.)       :      0.48052
Magnitude (Debye)      :      1.22139



--------------------
Rotational spectrum 
--------------------
 
Rotational constants in cm-1:     0.047005     0.039072     0.021337 
Rotational constants in MHz :  1409.160818  1171.363358   639.652735 

 Dipole components along the rotational axes: 
x,y,z [a.u.] :     0.480521     0.000010    -0.000000 
x,y,z [Debye]:     1.221387     0.000026    -0.000000 

 

----------------------------------------------------------------------------
                           ORCA NUMERICAL FREQUENCIES
                              (24-process run)
----------------------------------------------------------------------------

Number of atoms                ... 3
Central differences            ... used
Number of displacements        ... 18
Numerical increment            ... 5.000e-03 bohr
IR-spectrum generation         ... on
Raman-spectrum generation      ... off
Surface Crossing Hessian       ... off

 WARNING: There are more processes than displacements to do
  ====> : Reducing number of processes to   9

The output will be reduced. Please look at the following files:
SCF program output             ... >Ag03N0_D3H.lastscf
Integral program output        ... >Ag03N0_D3H.lastint
Gradient program output        ... >Ag03N0_D3H.lastgrad
Dipole moment program output   ... >Ag03N0_D3H.lastmom
AutoCI program output          ... >Ag03N0_D3H.lastautoci


         <<< Energy and Gradient at the input geometry >>>

        <<< Energy and Gradient at displaced geometries >>>
             <<<Displacing   2/coordinate 1 (+)>>>
             <<<Displacing   1/coordinate 2 (+)>>>
             <<<Displacing   2/coordinate 2 (+)>>>
             <<<Displacing   3/coordinate 3 (+)>>>
             <<<Displacing   1/coordinate 3 (+)>>>
             <<<Displacing   3/coordinate 1 (+)>>>
             <<<Displacing   2/coordinate 3 (+)>>>
             <<<Displacing   1/coordinate 1 (+)>>>
             <<<Displacing   3/coordinate 2 (+)>>>
             <<<Displacing   3/coordinate 3 (-)>>>
             <<<Displacing   1/coordinate 3 (-)>>>
             <<<Displacing   2/coordinate 3 (-)>>>
             <<<Displacing   1/coordinate 2 (-)>>>
             <<<Displacing   1/coordinate 1 (-)>>>
             <<<Displacing   2/coordinate 1 (-)>>>
             <<<Displacing   3/coordinate 1 (-)>>>
             <<<Displacing   2/coordinate 2 (-)>>>
             <<<Displacing   3/coordinate 2 (-)>>>

-----------------------
VIBRATIONAL FREQUENCIES
-----------------------

Scaling factor for frequencies =  1.000000000 (already applied!)

   0:         0.00 cm**-1
   1:         0.00 cm**-1
   2:         0.00 cm**-1
   3:         0.00 cm**-1
   4:         0.00 cm**-1
   5:         0.00 cm**-1
   6:       -99.15 cm**-1 ***imaginary mode***
   7:       120.46 cm**-1
   8:       185.43 cm**-1


------------
NORMAL MODES
------------

These modes are the cartesian displacements weighted by the diagonal matrix
M(i,i)=1/sqrt(m[i]) where m[i] is the mass of the displaced atom
Thus, these vectors are normalized but *not* orthogonal

                  0          1          2          3          4          5    
      0       0.000000   0.000000   0.000000   0.000000   0.000000   0.000000
      1       0.000000   0.000000   0.000000   0.000000   0.000000   0.000000
      2       0.000000   0.000000   0.000000   0.000000   0.000000   0.000000
      3       0.000000   0.000000   0.000000   0.000000   0.000000   0.000000
      4       0.000000   0.000000   0.000000   0.000000   0.000000   0.000000
      5       0.000000   0.000000   0.000000   0.000000   0.000000   0.000000
      6       0.000000   0.000000   0.000000   0.000000   0.000000   0.000000
      7       0.000000   0.000000   0.000000   0.000000   0.000000   0.000000
      8       0.000000   0.000000   0.000000   0.000000   0.000000   0.000000
                   6          7          8    
      0       0.550106  -0.000005   0.000005
      1       0.000005   0.788326   0.212623
      2       0.000000   0.000000   0.000000
      3      -0.275061  -0.184135   0.682708
      4       0.522528  -0.394167  -0.106307
      5       0.000000   0.000000   0.000000
      6      -0.275045   0.184140  -0.682713
      7      -0.522532  -0.394159  -0.106316
      8       0.000000   0.000000   0.000000


-----------
IR SPECTRUM  
-----------

 Mode    freq (cm**-1)   T**2         TX         TY         TZ
-------------------------------------------------------------------
   7:       120.46    0.063413  (  0.000054  -0.251820   0.000025)
   8:       185.43    0.292857  ( -0.000078  -0.541163  -0.000010)

The first frequency considered to be a vibration is 7
The total number of vibrations considered is 2


--------------------------
THERMOCHEMISTRY AT 298.15K
--------------------------

Temperature         ... 298.15 K
Pressure            ... 1.00 atm
Total Mass          ... 323.61 AMU

Throughout the following assumptions are being made:
  (1) The electronic state is orbitally nondegenerate
      but the spin degeneracy is treated
  (2) There are no thermally accessible electronically excited states
  (3) Hindered rotations indicated by low frequency modes are not
      treated as such but are treated as vibrations and this may
      cause some error
  (4) All equations used are the standard statistical mechanics
      equations for an ideal gas
  (5) All vibrations are strictly harmonic

freq.     120.46  E(vib)   ...       0.44 
freq.     185.43  E(vib)   ...       0.37 

------------
INNER ENERGY
------------

The inner energy is: U= E(el) + E(ZPE) + E(vib) + E(rot) + E(trans)
    E(el)   - is the total energy from the electronic structure calculation
              = E(kin-el) + E(nuc-el) + E(el-el) + E(nuc-nuc)
    E(ZPE)  - the the zero temperature vibrational energy from the frequency calculation
    E(vib)  - the the finite temperature correction to E(ZPE) due to population
              of excited vibrational states
    E(rot)  - is the rotational thermal energy
    E(trans)- is the translational thermal energy

Summary of contributions to the inner energy U:
Electronic energy                ...   -440.83444427 Eh
Zero point energy                ...      0.00069685 Eh       0.44 kcal/mol
Thermal vibrational correction   ...      0.00128018 Eh       0.80 kcal/mol
Thermal rotational correction    ...      0.00141627 Eh       0.89 kcal/mol
Thermal translational correction ...      0.00141627 Eh       0.89 kcal/mol
-----------------------------------------------------------------------
Total thermal energy                   -440.82963470 Eh


Summary of corrections to the electronic energy:
(perhaps to be used in another calculation)
Total thermal correction                  0.00411272 Eh       2.58 kcal/mol
Non-thermal (ZPE) correction              0.00069685 Eh       0.44 kcal/mol
-----------------------------------------------------------------------
Total correction                          0.00480957 Eh       3.02 kcal/mol


--------
ENTHALPY
--------

The enthalpy is H = U + kB*T
                kB is Boltzmann's constant
Total free energy                 ...   -440.82963470 Eh 
Thermal Enthalpy correction       ...      0.00094421 Eh       0.59 kcal/mol
-----------------------------------------------------------------------
Total Enthalpy                    ...   -440.82869049 Eh


Note: Rotational entropy computed according to Herzberg 
Infrared and Raman Spectra, Chapter V,1, Van Nostrand Reinhold, 1945 
Point Group:  Cs, Symmetry Number:   1  
Rotational constants in cm-1:     0.047005     0.039072     0.021337 

Vibrational entropy computed according to the QRRHO of S. Grimme
Chem.Eur.J. 2012 18 9955


-------
ENTROPY
-------

The entropy contributions are T*S = T*(S(el)+S(vib)+S(rot)+S(trans))
     S(el)   - electronic entropy
     S(vib)  - vibrational entropy
     S(rot)  - rotational entropy
     S(trans)- translational entropy
The entropies will be listed as mutliplied by the temperature to get
units of energy

Electronic entropy                ...      0.00065446 Eh      0.41 kcal/mol
Vibrational entropy               ...      0.00248379 Eh      1.56 kcal/mol
Rotational entropy                ...      0.01430120 Eh      8.97 kcal/mol
Translational entropy             ...      0.02053447 Eh     12.89 kcal/mol
-----------------------------------------------------------------------
Final entropy term                ...      0.03797391 Eh     23.83 kcal/mol

In case the symmetry of your molecule has not been determined correctly
or in case you have a reason to use a different symmetry number we print 
out the resulting rotational entropy values for sn=1,12 :
 --------------------------------------------------------
|  sn= 1 | S(rot)=       0.01430120 Eh      8.97 kcal/mol|
|  sn= 2 | S(rot)=       0.01364674 Eh      8.56 kcal/mol|
|  sn= 3 | S(rot)=       0.01326391 Eh      8.32 kcal/mol|
|  sn= 4 | S(rot)=       0.01299229 Eh      8.15 kcal/mol|
|  sn= 5 | S(rot)=       0.01278160 Eh      8.02 kcal/mol|
|  sn= 6 | S(rot)=       0.01260945 Eh      7.91 kcal/mol|
|  sn= 7 | S(rot)=       0.01246391 Eh      7.82 kcal/mol|
|  sn= 8 | S(rot)=       0.01233783 Eh      7.74 kcal/mol|
|  sn= 9 | S(rot)=       0.01222662 Eh      7.67 kcal/mol|
|  sn=10 | S(rot)=       0.01212714 Eh      7.61 kcal/mol|
|  sn=11 | S(rot)=       0.01203715 Eh      7.55 kcal/mol|
|  sn=12 | S(rot)=       0.01195500 Eh      7.50 kcal/mol|
 --------------------------------------------------------


-------------------
GIBBS FREE ENERGY
-------------------

The Gibbs free energy is G = H - T*S

Total enthalpy                    ...   -440.82869049 Eh 
Total entropy correction          ...     -0.03797391 Eh    -23.83 kcal/mol
-----------------------------------------------------------------------
Final Gibbs free energy         ...   -440.86666441 Eh

For completeness - the Gibbs free energy minus the electronic energy
G-E(el)                           ...     -0.03222014 Eh    -20.22 kcal/mol


Total Time for Numerical Frequencies  :       167.010 sec

Timings for individual modules:

Sum of individual times         ...       83.031 sec (=   1.384 min)
GTO integral calculation        ...       10.168 sec (=   0.169 min)  12.2 %
SCF iterations                  ...       39.009 sec (=   0.650 min)  47.0 %
SCF Gradient evaluation         ...       33.391 sec (=   0.557 min)  40.2 %
Geometry relaxation             ...        0.463 sec (=   0.008 min)   0.6 %
                             ****ORCA TERMINATED NORMALLY****
TOTAL RUN TIME: 0 days 0 hours 4 minutes 5 seconds 289 msec
