
                                 *****************
                                 * O   R   C   A *
                                 *****************

           --- An Ab Initio, DFT and Semiempirical electronic structure package ---

                  #######################################################
                  #                        -***-                        #
                  #          Department of theory and spectroscopy      #
                  #               Directorship: Frank Neese             #
                  #        Max Planck Institute fuer Kohlenforschung    #
                  #                Kaiser Wilhelm Platz 1               #
                  #                 D-45470 Muelheim/Ruhr               #
                  #                      Germany                        #
                  #                                                     #
                  #                  All rights reserved                #
                  #                        -***-                        #
                  #######################################################


                         Program Version 4.2.0 -  RELEASE  -


 With contributions from (in alphabetic order):
   Daniel Aravena         : Magnetic Suceptibility
   Michael Atanasov       : Ab Initio Ligand Field Theory (pilot matlab implementation)
   Alexander A. Auer      : GIAO ZORA, VPT2
   Ute Becker             : Parallelization
   Giovanni Bistoni       : ED, misc. LED, open-shell LED, HFLED
   Martin Brehm           : Molecular dynamics
   Dmytro Bykov           : SCF Hessian
   Vijay G. Chilkuri      : MRCI spin determinant printing, contributions to CSF-ICE
   Dipayan Datta          : RHF DLPNO-CCSD density
   Achintya Kumar Dutta   : EOM-CC, STEOM-CC
   Dmitry Ganyushin       : Spin-Orbit,Spin-Spin,Magnetic field MRCI
   Miquel Garcia          : C-PCM Hessian, Gaussian charge scheme
   Yang Guo               : DLPNO-NEVPT2, CIM, IAO-localization
   Andreas Hansen         : Spin unrestricted coupled pair/coupled cluster methods
   Benjamin Helmich-Paris : CASSCF linear response (MC-RPA)
   Lee Huntington         : MR-EOM, pCC
   Robert Izsak           : Overlap fitted RIJCOSX, COSX-SCS-MP3, EOM
   Christian Kollmar      : KDIIS, OOCD, Brueckner-CCSD(T), CCSD density
   Simone Kossmann        : Meta GGA functionals, TD-DFT gradient, OOMP2, MP2 Hessian
   Martin Krupicka        : AUTO-CI
   Lucas Lang             : DCDCAS
   Dagmar Lenk            : GEPOL surface, SMD
   Dimitrios Liakos       : Extrapolation schemes; Compound Job, initial MDCI parallelization
   Dimitrios Manganas     : Further ROCIS development; embedding schemes
   Dimitrios Pantazis     : SARC Basis sets
   Taras Petrenko         : DFT Hessian,TD-DFT gradient, ASA, ECA, R-Raman, ABS, FL, XAS/XES, NRVS
   Peter Pinski           : DLPNO-MP2, DLPNO-MP2 Gradient
   Christoph Reimann      : Effective Core Potentials
   Marius Retegan         : Local ZFS, SOC
   Christoph Riplinger    : Optimizer, TS searches, QM/MM, DLPNO-CCSD(T), (RO)-DLPNO pert. Triples
   Tobias Risthaus        : Range-separated hybrids, TD-DFT gradient, RPA, STAB
   Michael Roemelt        : Original ROCIS implementation
   Masaaki Saitow         : Open-shell DLPNO-CCSD energy and density
   Barbara Sandhoefer     : DKH picture change effects
   Avijit Sen             : IP-ROCIS
   Kantharuban Sivalingam : CASSCF convergence, NEVPT2, FIC-MRCI
   Bernardo de Souza      : ESD, SOC TD-DFT
   Georgi Stoychev        : AutoAux, RI-MP2 NMR
   Willem Van den Heuvel  : Paramagnetic NMR
   Boris Wezisla          : Elementary symmetry handling
   Frank Wennmohs         : Technical directorship


 We gratefully acknowledge several colleagues who have allowed us to
 interface, adapt or use parts of their codes:
   Stefan Grimme, W. Hujo, H. Kruse,             : VdW corrections, initial TS optimization,
                  C. Bannwarth                     DFT functionals, gCP, sTDA/sTD-DF
   Ed Valeev, F. Pavosevic, A. Kumar             : LibInt (2-el integral package), F12 methods
   Garnet Chan, S. Sharma, J. Yang, R. Olivares  : DMRG
   Ulf Ekstrom                                   : XCFun DFT Library
   Mihaly Kallay                                 : mrcc  (arbitrary order and MRCC methods)
   Andreas Klamt, Michael Diedenhofen            : otool_cosmo (COSMO solvation model)
   Jiri Pittner, Ondrej Demel                    : Mk-CCSD
   Frank Weinhold                                : gennbo (NPA and NBO analysis)
   Christopher J. Cramer and Donald G. Truhlar   : smd solvation model
   Lars Goerigk                                  : TD-DFT with DH, B97 family of functionals
   V. Asgeirsson, H. Jonsson                     : NEB implementation
   FAccTs GmbH                                   : IRC, NEB, NEB-TS, Multilevel, MM, QM/MM, CI optimization
   S Lehtola, MJT Oliveira, MAL Marques          : LibXC Library


 Your calculation uses the libint2 library for the computation of 2-el integrals
 For citations please refer to: http://libint.valeyev.net

 Your ORCA version has been built with support for libXC version: 4.2.3
 For citations please refer to: https://tddft.org/programs/libxc/

 This ORCA versions uses:
   CBLAS   interface :  Fast vector & matrix operations
   LAPACKE interface :  Fast linear algebra routines
   SCALAPACK package :  Parallel linear algebra routines


Your calculation utilizes the atom-pairwise dispersion correction
with the Becke-Johnson damping scheme (D3BJ)
Cite in your paper:
S.Grimme, S.Ehrlich, L.Goerigk, J Comput Chem, (2011), 32, 1456–1465 
S.Grimme, J.Antony, S.Ehrlich and H.Krieg, J.Chem.Phys., 132, (2010), 154104 
   

----- Orbital basis set information -----
Your calculation utilizes the basis: def2-TZVPPD
   F. Weigend and R. Ahlrichs, Phys. Chem. Chem. Phys. 7, 3297 (2005).
   D. Rappoport and F. Furche, J. Chem. Phys. 133 134105 (2010).

----- AuxJK basis set information -----
Your calculation utilizes the auxiliary basis: def2/JK
   H-Ba, Hf-Rn: F. Weigend, J. Comput. Chem. 29, 167 (2008).

cite the ECPs for Au [Def2-ECP] as follows:
Ce-Yb(ecp-28): M. Dolg, H. Stoll, H.Preuss, J. Chem. Phys., 1989, 90, 1730-1734.
Y-Cd(ecp-28), Hf-Hg(ecp-46): D. Andrae,U. Haeussermann, M. Dolg, H. Stoll, H. Preuss, Theor. Chim. Acta, 1990, 77, 123-141.
In-Sb(ecp-28), Tl-Bi(ecp-46): B. Metz, H. Stoll, M. Dolg, J. Chem. Phys., 2000, 113, 2563-2569.
Te-Xe(ecp-28), Po-Rn(ecp-46): K. A. Peterson, D. Figgen, E. Goll, H. Stoll, M. Dolg, J. Chem. Phys., 2003, 119, 11113-11123.
Rb(ecp-28), Cs(ecp-46): T. Leininger, A. Nicklass, W. Kuechle, H. Stoll, M. Dolg, A. Bergner, Chem. Phys. Lett., 1996, 255, 274-280.
Sr(ecp-28), Ba(ecp-46): M. Kaupp, P. V. Schleyer, H. Stoll and H. Preuss, J. Chem. Phys., 1991, 94, 1360-1366.
La(ecp-46): M. Dolg, H. Stoll, A. Savin, H. Preuss, Theor. Chim. Acta, 1989, 75, 173-194.
Lu(ecp-28): X. Cao, M. Dolg, J. Chem. Phys., 2001, 115, 7348-7355.

ECP parameters for Au [Def2-ECP] have been obtained from:
TURBOMOLE (7.0.2)

================================================================================
                                        WARNINGS
                       Please study these warnings very carefully!
================================================================================


WARNING: Geometry Optimization
  ===> : Switching off AutoStart
         For restart on a previous wavefunction, please use MOREAD

INFO   : the flag for use of LIBINT has been found!

================================================================================
                                       INPUT FILE
================================================================================
NAME = Au01N0_H.in
|  1> #
|  2> # Au01N0_H TPSSh-D3BJ/Def2-TZVPPD
|  3> #
|  4> ! tpssh d3bj def2-tzvppd def2/jk grid4 nofinalgrid opt xyzfile numfreq
|  5> 
|  6> *xyz 0 1
|  7> Au       0.000000    0.000000    0.019034 
|  8> H        0.000000    0.000000   -1.503691 
|  9> *
| 10> 
| 11> %maxcore 5000
| 12> 
| 13> %pal
| 14> nprocs = 24
| 15> end
| 16> 
| 17> 
| 18>                          ****END OF INPUT****
================================================================================

                       *****************************
                       * Geometry Optimization Run *
                       *****************************

Geometry optimization settings:
Update method            Update   .... BFGS
Choice of coordinates    CoordSys .... Z-matrix Internals
Initial Hessian          InHess   .... Almoef's Model

Convergence Tolerances:
Energy Change            TolE     ....  5.0000e-06 Eh
Max. Gradient            TolMAXG  ....  3.0000e-04 Eh/bohr
RMS Gradient             TolRMSG  ....  1.0000e-04 Eh/bohr
Max. Displacement        TolMAXD  ....  4.0000e-03 bohr
RMS Displacement         TolRMSD  ....  2.0000e-03 bohr
Strict Convergence                ....  False
------------------------------------------------------------------------------
                        ORCA OPTIMIZATION COORDINATE SETUP
------------------------------------------------------------------------------

The optimization will be done in new redundant internal coordinates
Making redundant internal coordinates   ...  (new redundants) done
Evaluating the initial hessian          ...  (Almloef) done
Evaluating the coordinates              ...  done
Calculating the B-matrix                .... done
Calculating the G-matrix                .... done
Diagonalizing the G-matrix              .... done
The first mode is                       ....    0
The number of degrees of freedom        ....    1

    -----------------------------------------------------------------
                    Redundant Internal Coordinates


    -----------------------------------------------------------------
         Definition                    Initial Value    Approx d2E/dq
    -----------------------------------------------------------------
      1. B(H   1,Au  0)                  1.5227         0.102242   
    -----------------------------------------------------------------

Number of atoms                         .... 2
Number of degrees of freedom            .... 1

         *************************************************************
         *                GEOMETRY OPTIMIZATION CYCLE   1            *
         *************************************************************
---------------------------------
CARTESIAN COORDINATES (ANGSTROEM)
---------------------------------
  Au     0.000000    0.000000    0.019034
  H      0.000000    0.000000   -1.503691

----------------------------
CARTESIAN COORDINATES (A.U.)
----------------------------
  NO LB      ZA    FRAG     MASS         X           Y           Z
   0 Au   19.0000*   0   196.966    0.000000    0.000000    0.035969
   1 H     1.0000    0     1.008    0.000000    0.000000   -2.841564
* core charge reduced due to ECP

--------------------------------
INTERNAL COORDINATES (ANGSTROEM)
--------------------------------
 Au     0   0   0     0.000000000000     0.00000000     0.00000000
 H      1   0   0     1.522725000000     0.00000000     0.00000000

---------------------------
INTERNAL COORDINATES (A.U.)
---------------------------
 Au     0   0   0     0.000000000000     0.00000000     0.00000000
 H      1   0   0     2.877533227275     0.00000000     0.00000000

---------------------
BASIS SET INFORMATION
---------------------
There are 2 groups of distinct atoms

 Group   1 Type Au  : 8s8p6d2f1g contracted to 6s5p3d2f1g pattern {311111/41111/411/11/1}
 Group   2 Type H   : 5s3p1d contracted to 3s3p1d pattern {311/111/1}

Atom   0Au   basis set group =>   1
Atom   1H    basis set group =>   2
----------------------------------
AUXILIARY/JK BASIS SET INFORMATION
----------------------------------
There are 2 groups of distinct atoms

 Group   1 Type Au  : 13s12p11d9f5g3h2i contracted to 13s11p10d8f4g3h2i pattern {1111111111111/21111111111/2111111111/21111111/2111/111/11}
 Group   2 Type H   : 4s2p2d contracted to 2s2p2d pattern {31/11/11}

Atom   0Au   basis set group =>   1
Atom   1H    basis set group =>   2
-------------------------
ECP PARAMETER INFORMATION
-------------------------

 Group 1, Type Au ECP Def2-ECP (replacing 60 core electrons, lmax=3)

Atom   0Au   ECP group =>   1



           ************************************************************
           *        Program running with 24 parallel MPI-processes    *
           *              working on a common directory               *
           ************************************************************
------------------------------------------------------------------------------
                           ORCA GTO INTEGRAL CALCULATION
------------------------------------------------------------------------------

                         BASIS SET STATISTICS AND STARTUP INFO

 # of primitive gaussian shells          ...   34
 # of primitive gaussian functions       ...  104
 # of contracted shells                  ...   24
 # of contracted basis functions         ...   76
 Highest angular momentum                ...    4
 Maximum contraction depth               ...    4
 Integral package used                   ... LIBINT
 Integral threshhold            Thresh   ...  2.500e-11
 Primitive cut-off              TCut     ...  2.500e-12


------------------------------ INTEGRAL EVALUATION ----------------------------


 * One electron integrals 

   ECP integrals                         ... done
 Pre-screening matrix                    ... done
 Shell pair data                         ... done (   0.000 sec)



           ************************************************************
           *        Program running with 24 parallel MPI-processes    *
           *              working on a common directory               *
           ************************************************************
-------------------------------------------------------------------------------
                                 ORCA SCF
-------------------------------------------------------------------------------

------------
SCF SETTINGS
------------
Hamiltonian:
 Density Functional     Method          .... DFT(GTOs)
 Exchange Functional    Exchange        .... TPSS
 Correlation Functional Correlation     .... TPSS
 LDA part of GGA corr.  LDAOpt          .... PW91-LDA
 Gradients option       PostSCFGGA      .... off
 Hybrid DFT is turned on
   Fraction HF Exchange ScalHFX         ....  0.100000
   Scaling of DF-GGA-X  ScalDFX         ....  0.900000
   Scaling of DF-GGA-C  ScalDFC         ....  1.000000
   Scaling of DF-LDA-C  ScalLDAC        ....  1.000000
   Perturbative correction              ....  0.000000
   Density functional embedding theory  .... OFF
   NL short-range parameter             ....  5.200000


General Settings:
 Integral files         IntName         .... Au01N0_H
 Hartree-Fock type      HFTyp           .... RHF
 Total Charge           Charge          ....    0
 Multiplicity           Mult            ....    1
 Number of Electrons    NEL             ....   20
 Basis Dimension        Dim             ....   76
 Nuclear Repulsion      ENuc            ....      6.6028777079 Eh

Convergence Acceleration:
 DIIS                   CNVDIIS         .... on
   Start iteration      DIISMaxIt       ....    12
   Startup error        DIISStart       ....  0.200000
   # of expansion vecs  DIISMaxEq       ....     5
   Bias factor          DIISBfac        ....   1.050
   Max. coefficient     DIISMaxC        ....  10.000
 Newton-Raphson         CNVNR           .... off
 SOSCF                  CNVSOSCF        .... off
 Level Shifting         CNVShift        .... on
   Level shift para.    LevelShift      ....    0.2500
   Turn off err/grad.   ShiftErr        ....    0.0010
 Zerner damping         CNVZerner       .... off
 Static damping         CNVDamp         .... on
   Fraction old density DampFac         ....    0.7000
   Max. Damping (<1)    DampMax         ....    0.9800
   Min. Damping (>=0)   DampMin         ....    0.0000
   Turn off err/grad.   DampErr         ....    0.1000
 Fernandez-Rico         CNVRico         .... off

SCF Procedure:
 Maximum # iterations   MaxIter         ....   125
 SCF integral mode      SCFMode         .... Direct
   Integral package                     .... LIBINT
 Reset frequency        DirectResetFreq ....    20
 Integral Threshold     Thresh          ....  2.500e-11 Eh
 Primitive CutOff       TCut            ....  2.500e-12 Eh

Convergence Tolerance:
 Convergence Check Mode ConvCheckMode   .... Total+1el-Energy
 Convergence forced     ConvForced      .... 0
 Energy Change          TolE            ....  1.000e-08 Eh
 1-El. energy change                    ....  1.000e-05 Eh
 DIIS Error             TolErr          ....  5.000e-07


Diagonalization of the overlap matrix:
Smallest eigenvalue                        ... 2.371e-03
Time for diagonalization                   ...    0.024 sec
Threshold for overlap eigenvalues          ... 1.000e-08
Number of eigenvalues below threshold      ... 0
Time for construction of square roots      ...    0.001 sec
Total time needed                          ...    0.025 sec

-------------------
DFT GRID GENERATION
-------------------

General Integration Accuracy     IntAcc      ...  4.670
Radial Grid Type                 RadialGrid  ... Gauss-Chebyshev
Angular Grid (max. acc.)         AngularGrid ... Lebedev-302
Angular grid pruning method      GridPruning ... 3 (G Style)
Weight generation scheme         WeightScheme... Becke
Basis function cutoff            BFCut       ...    1.0000e-11
Integration weight cutoff        WCut        ...    1.0000e-14
Grids for H and He will be reduced by one unit

# of grid points (after initial pruning)     ...  15046 (   0.0 sec)
# of grid points (after weights+screening)   ...  15004 (   0.0 sec)
nearest neighbour list constructed           ...    0.0 sec
Grid point re-assignment to atoms done       ...    0.0 sec
Grid point division into batches done        ...    0.1 sec
Reduced shell lists constructed in    0.1 sec

Total number of grid points                  ...    15004
Total number of batches                      ...      235
Average number of points per batch           ...       63
Average number of grid points per atom       ...     7502
Average number of shells per batch           ...     2.09 ( 8.71%)
Average number of basis functions per batch  ...     4.45 ( 5.86%)
Average number of large shells per batch     ...     1.36 (65.22%)
Average number of large basis fcns per batch ...     3.73 (83.67%)
Maximum spatial batch extension              ...  41.49, 37.74, 22.16 au
Average spatial batch extension              ...   1.25,  1.14,  0.83 au

Time for grid setup =    0.125 sec

------------------------------
INITIAL GUESS: MODEL POTENTIAL
------------------------------
Loading Hartree-Fock densities                     ... done
  calling /sw/apps/orca/orca_4_2_0_linux_x86-64_openmpi314/orca Au01N0_H_atom79.inp > Au01N0_H_atom79.out in order to generate an atomic fitting density for atom 0 (Au with ECP) on-the-fly... 
    atom 0 (Au), assumed electronic state with S=2: 1s2 2s2 2p6 3s2 3p6 4s2 3d10 4p6 5s2 4d10 5p6 6s1 4f14 5d10           ... done
Calculating cut-offs                               ... done
Setting up the integral package                    ... done
Initializing the effective Hamiltonian             ... done
Starting the Coulomb interaction                   ... done (   0.0 sec)
Reading the grid                                   ... done
Mapping shells                                     ... done
Starting the XC term evaluation                    ... done (   0.0 sec)
  promolecular density results
     # of electrons  =     80.002904006
     EX              =   -366.087238892
     EC              =     -4.843832197
     EX+EC           =   -370.931071088
Transforming the Hamiltonian                       ... done (   0.0 sec)
Diagonalizing the Hamiltonian                      ... done (   0.0 sec)
Back transforming the eigenvectors                 ... done (   0.0 sec)
Now organizing SCF variables                       ... done
                      ------------------
                      INITIAL GUESS DONE (   1.6 sec)
                      ------------------
--------------
SCF ITERATIONS
--------------
ITER       Energy         Delta-E        Max-DP      RMS-DP      [F,P]     Damp
               ***  Starting incremental Fock matrix formation  ***
  0   -136.1887181902   0.000000000000 0.25607543  0.00504299  0.5668469 0.7000
  1   -136.2261761239  -0.037457933681 0.16810057  0.00331557  0.3888154 0.7000
  2   -136.2429620697  -0.016785945747 0.10310396  0.00198051  0.2667119 0.7000
                               ***Turning on DIIS***
  3   -136.2537281767  -0.010766107016 0.06782913  0.00128646  0.1849284 0.7000
  4   -136.2614598966  -0.007731719902 0.04801071  0.00089796  0.1291578 0.7000
  5   -136.2669359272  -0.005476030622 0.11883793  0.00220141  0.0906106 0.0000
  6   -136.2797398655  -0.012803938293 0.00353530  0.00009702  0.0017388 0.0000
  7   -136.2797541400  -0.000014274490 0.00262465  0.00005942  0.0011157 0.0000
  8   -136.2797600017  -0.000005861665 0.00337963  0.00009105  0.0005033 0.0000
  9   -136.2797635381  -0.000003536465 0.00035270  0.00001559  0.0003691 0.0000
 10   -136.2797639102  -0.000000372038 0.00022107  0.00000799  0.0001665 0.0000
 11   -136.2797639543  -0.000000044152 0.00016308  0.00000360  0.0000863 0.0000
 12   -136.2797639712  -0.000000016937 0.00000861  0.00000018  0.0000039 0.0000
                 **** Energy Check signals convergence ****

               *****************************************************
               *                     SUCCESS                       *
               *           SCF CONVERGED AFTER  13 CYCLES          *
               *****************************************************


----------------
TOTAL SCF ENERGY
----------------

Total Energy       :         -136.27976397 Eh           -3708.36091 eV

Components:
Nuclear Repulsion  :            6.60287771 Eh             179.67344 eV
Electronic Energy  :         -142.88264168 Eh           -3888.03434 eV
One Electron Energy:         -251.97947185 Eh           -6856.71002 eV
Two Electron Energy:          109.09683017 Eh            2968.67567 eV

Virial components:
Potential Energy   :         -182.57364989 Eh           -4968.08159 eV
Kinetic Energy     :           46.29388591 Eh            1259.72068 eV
Virial Ratio       :            3.94379617


DFT components:
N(Alpha)           :       10.000001221934 electrons
N(Beta)            :       10.000001221934 electrons
N(Total)           :       20.000002443867 electrons
E(X)               :      -11.057177824630 Eh       
E(C)               :       -0.831159612903 Eh       
E(XC)              :      -11.888337437533 Eh       
DFET-embed. en.    :        0.000000000000 Eh       

---------------
SCF CONVERGENCE
---------------

  Last Energy change         ...   -5.1131e-11  Tolerance :   1.0000e-08
  Last MAX-Density change    ...    8.8218e-07  Tolerance :   1.0000e-07
  Last RMS-Density change    ...    2.8988e-08  Tolerance :   5.0000e-09
  Last DIIS Error            ...    3.4394e-07  Tolerance :   5.0000e-07

             **** THE GBW FILE WAS UPDATED (Au01N0_H.gbw) ****
             **** DENSITY FILE WAS UPDATED (Au01N0_H.scfp) ****
             **** ENERGY FILE WAS UPDATED (Au01N0_H.en.tmp) ****
             **** THE GBW FILE WAS UPDATED (Au01N0_H.gbw) ****
             **** DENSITY FILE WAS UPDATED (Au01N0_H.scfp) ****
----------------
ORBITAL ENERGIES
----------------

  NO   OCC          E(Eh)            E(eV) 
   0   2.0000      -4.105916      -111.7277 
   1   2.0000      -2.310990       -62.8852 
   2   2.0000      -2.288247       -62.2664 
   3   2.0000      -2.288247       -62.2664 
   4   2.0000      -0.411132       -11.1875 
   5   2.0000      -0.306418        -8.3381 
   6   2.0000      -0.306418        -8.3381 
   7   2.0000      -0.285535        -7.7698 
   8   2.0000      -0.285534        -7.7698 
   9   2.0000      -0.250341        -6.8121 
  10   0.0000      -0.098400        -2.6776 
  11   0.0000      -0.011532        -0.3138 
  12   0.0000      -0.011532        -0.3138 
  13   0.0000       0.072970         1.9856 
  14   0.0000       0.094801         2.5797 
  15   0.0000       0.170865         4.6495 
  16   0.0000       0.170865         4.6495 
  17   0.0000       0.180884         4.9221 
  18   0.0000       0.207511         5.6467 
  19   0.0000       0.207511         5.6467 
  20   0.0000       0.304399         8.2831 
  21   0.0000       0.304400         8.2831 
  22   0.0000       0.370261        10.0753 
  23   0.0000       0.393578        10.7098 
  24   0.0000       0.393578        10.7098 
  25   0.0000       0.435269        11.8443 
  26   0.0000       0.449039        12.2190 
  27   0.0000       0.791270        21.5316 
  28   0.0000       0.791270        21.5316 
  29   0.0000       0.946443        25.7540 
  30   0.0000       1.047970        28.5167 
  31   0.0000       1.047970        28.5167 
  32   0.0000       1.095272        29.8039 
  33   0.0000       1.095279        29.8041 
  34   0.0000       1.114712        30.3329 
  35   0.0000       1.114712        30.3329 
  36   0.0000       1.184682        32.2368 
  37   0.0000       1.284906        34.9641 
  38   0.0000       1.284906        34.9641 
  39   0.0000       1.425884        38.8003 
  40   0.0000       1.463230        39.8165 
  41   0.0000       1.463237        39.8167 
  42   0.0000       1.587129        43.1880 
  43   0.0000       1.587129        43.1880 
  44   0.0000       1.956608        53.2420 
  45   0.0000       2.256851        61.4120 
  46   0.0000       2.615309        71.1662 
  47   0.0000       3.172530        86.3289 
  48   0.0000       3.172573        86.3301 
  49   0.0000       3.344751        91.0153 
  50   0.0000       3.344751        91.0153 
  51   0.0000       3.541380        96.3658 
  52   0.0000       3.551728        96.6474 
  53   0.0000       3.551728        96.6474 
  54   0.0000       3.608687        98.1974 
  55   0.0000       3.608699        98.1977 
  56   0.0000       3.640475        99.0624 
  57   0.0000       3.640475        99.0624 
  58   0.0000       3.780450       102.8713 
  59   0.0000       3.933995       107.0494 
  60   0.0000       3.933995       107.0494 
  61   0.0000       4.106418       111.7413 
  62   0.0000       4.106418       111.7413 
  63   0.0000       4.118123       112.0598 
  64   0.0000       4.118183       112.0615 
  65   0.0000       4.171446       113.5108 
  66   0.0000       4.171449       113.5109 
  67   0.0000       4.588887       124.8700 
  68   0.0000       4.806806       130.7998 
  69   0.0000       4.806806       130.7998 
  70   0.0000       5.526257       150.3771 
  71   0.0000      27.401601       745.6355 
  72   0.0000      27.401601       745.6355 
  73   0.0000      29.844110       812.0995 
  74   0.0000      44.303024      1205.5466 
  75   0.0000     205.234595      5584.7173 

                    ********************************
                    * MULLIKEN POPULATION ANALYSIS *
                    ********************************

-----------------------
MULLIKEN ATOMIC CHARGES
-----------------------
   0 Au:   -0.148631
   1 H :    0.148631
Sum of atomic charges:   -0.0000000

--------------------------------
MULLIKEN REDUCED ORBITAL CHARGES
--------------------------------
  0 Aus       :     3.402092  s :     3.402092
      pz      :     2.056964  p :     6.057111
      px      :     2.000073
      py      :     2.000073
      dz2     :     1.719316  d :     9.685264
      dxz     :     1.983233
      dyz     :     1.983233
      dx2y2   :     1.999741
      dxy     :     1.999741
      f0      :     0.003619  f :     0.003796
      f+1     :    -0.000008
      f-1     :    -0.000008
      f+2     :     0.000096
      f-2     :     0.000096
      f+3     :     0.000000
      f-3     :     0.000000
      g0      :     0.000249  g :     0.000368
      g+1     :     0.000048
      g-1     :     0.000048
      g+2     :     0.000011
      g-2     :     0.000011
      g+3     :     0.000000
      g-3     :     0.000000
      g+4     :     0.000000
      g-4     :     0.000000
  1 H s       :     0.827691  s :     0.827691
      pz      :    -0.011441  p :     0.018989
      px      :     0.015215
      py      :     0.015215
      dz2     :     0.001510  d :     0.004688
      dxz     :     0.001439
      dyz     :     0.001439
      dx2y2   :     0.000151
      dxy     :     0.000151


                     *******************************
                     * LOEWDIN POPULATION ANALYSIS *
                     *******************************

----------------------
LOEWDIN ATOMIC CHARGES
----------------------
   0 Au:    0.353650
   1 H :   -0.353650

-------------------------------
LOEWDIN REDUCED ORBITAL CHARGES
-------------------------------
  0 Aus       :     3.005433  s :     3.005433
      pz      :     2.019477  p :     6.013959
      px      :     1.997241
      py      :     1.997241
      dz2     :     1.735992  d :     9.618103
      dxz     :     1.941815
      dyz     :     1.941815
      dx2y2   :     1.999240
      dxy     :     1.999240
      f0      :     0.007441  f :     0.008573
      f+1     :     0.000459
      f-1     :     0.000459
      f+2     :     0.000106
      f-2     :     0.000106
      f+3     :     0.000000
      f-3     :     0.000000
      g0      :     0.000260  g :     0.000282
      g+1     :     0.000001
      g-1     :     0.000001
      g+2     :     0.000010
      g-2     :     0.000010
      g+3     :     0.000000
      g-3     :     0.000000
      g+4     :     0.000000
      g-4     :     0.000000
  1 H s       :     1.045823  s :     1.045823
      pz      :     0.166827  p :     0.266396
      px      :     0.049785
      py      :     0.049785
      dz2     :     0.018748  d :     0.041430
      dxz     :     0.010698
      dyz     :     0.010698
      dx2y2   :     0.000643
      dxy     :     0.000643


                      *****************************
                      * MAYER POPULATION ANALYSIS *
                      *****************************

  NA   - Mulliken gross atomic population
  ZA   - Total nuclear charge
  QA   - Mulliken gross atomic charge
  VA   - Mayer's total valence
  BVA  - Mayer's bonded valence
  FA   - Mayer's free valence

  ATOM       NA         ZA         QA         VA         BVA        FA
  0 Au    19.1486    19.0000    -0.1486     1.0392     1.0392    -0.0000
  1 H      0.8514     1.0000     0.1486     1.0392     1.0392     0.0000

  Mayer bond orders larger than 0.100000
B(  0-Au,  1-H ) :   1.0392 

-------
TIMINGS
-------

Total SCF time: 0 days 0 hours 0 min 3 sec 

Total time                  ....       3.688 sec
Sum of individual times     ....       3.482 sec  ( 94.4%)

Fock matrix formation       ....       1.877 sec  ( 50.9%)
  XC integration            ....       0.315 sec  ( 16.8% of F)
    Basis function eval.    ....       0.016 sec  (  5.0% of XC)
    Density eval.           ....       0.020 sec  (  6.5% of XC)
    XC-Functional eval.     ....       0.017 sec  (  5.4% of XC)
    XC-Potential eval.      ....       0.037 sec  ( 11.6% of XC)
Diagonalization             ....       0.012 sec  (  0.3%)
Density matrix formation    ....       0.004 sec  (  0.1%)
Population analysis         ....       0.002 sec  (  0.1%)
Initial guess               ....       1.454 sec  ( 39.4%)
Orbital Transformation      ....       0.000 sec  (  0.0%)
Orbital Orthonormalization  ....       0.000 sec  (  0.0%)
DIIS solution               ....       0.008 sec  (  0.2%)
Grid generation             ....       0.125 sec  (  3.4%)


-------------------------------------------------------------------------------
                          DFT DISPERSION CORRECTION                            
                                                                               
                              DFTD3 V3.1  Rev 1                                
                          USING Becke-Johnson damping                          
-------------------------------------------------------------------------------
The TPSSH functional is recognized
Active option DFTDOPT                   ...         4   

molecular C6(AA) [au] = 382.853542 


            DFT-D V3
 parameters
 s6 scaling factor         :     1.0000 
 a1 scaling factor         :     0.4529 
 s8 scaling factor         :     2.2382 
 a2 scaling factor         :     4.6550 
 ad hoc parameters k1-k3   :    16.0000     1.3333    -4.0000 

 Edisp/kcal,au: -0.311042821902  -0.000495678235 
 E6   /kcal   :  -0.127270904 
 E8   /kcal   :  -0.183771918 
 % E8         :  59.082513700 

-------------------------   ----------------
Dispersion correction           -0.000495678
-------------------------   ----------------


-------------------------   --------------------
FINAL SINGLE POINT ENERGY      -136.280259649536
-------------------------   --------------------



           ************************************************************
           *        Program running with 24 parallel MPI-processes    *
           *              working on a common directory               *
           ************************************************************
------------------------------------------------------------------------------
                         ORCA SCF GRADIENT CALCULATION
------------------------------------------------------------------------------

Gradient of the Kohn-Sham DFT energy:
Kohn-Sham wavefunction type      ... RKS
Hartree-Fock exchange scaling    ...    0.100
Number of operators              ...    1
Number of atoms                  ...    2
Basis set dimensions             ...   76
Integral neglect threshold       ... 2.5e-11
Integral primitive cutoff        ... 2.5e-12

Nuclear repulsion gradient       ... done
One Electron Gradient            
  ECP gradient                   ... done
Pre-screening matrix             ... done
Starting the two electron gradient:
Two electron gradient done
Exchange-correlation gradient    ... done
Dispersion correction            ... done

------------------
CARTESIAN GRADIENT
------------------

   1   Au  :    0.000000003   -0.000000000   -0.007520062
   2   H   :    0.000000001   -0.000000001    0.006491239

Difference to translation invariance:
           :    0.0000000040   -0.0000000006   -0.0010288225

Norm of the cartesian gradient     ...    0.0099341589
RMS gradient                       ...    0.0040556034
MAX gradient                       ...    0.0075200616

-------
TIMINGS
-------

Total SCF gradient time            ...        0.423 sec

One electron gradient       ....       0.090 sec  ( 21.3%)
Prescreening matrices       ....       0.004 sec  (  1.0%)
Two electron gradient       ....       0.142 sec  ( 33.6%)
XC gradient                 ....       0.009 sec  (  2.2%)
------------------------------------------------------------------------------
                         ORCA GEOMETRY RELAXATION STEP
------------------------------------------------------------------------------

Reading the OPT-File                    .... done
Getting information on internals        .... done
Copying old internal coords+grads       .... done
Making the new internal coordinates     .... (new redundants).... done
Validating the new internal coordinates .... (new redundants).... done
Calculating the B-matrix                .... done
Calculating the G,G- and P matrices     .... done
Transforming gradient to internals      .... done
Projecting the internal gradient        .... done
Number of atoms                         ....   2
Number of internal coordinates          ....   1
Current Energy                          ....  -136.280259650 Eh
Current gradient norm                   ....     0.009934159 Eh/bohr
Maximum allowed component of the step   ....  0.300
Current trust radius                    ....  0.300
Evaluating the initial hessian          ....  (Almloef) done
Projecting the Hessian                  .... done
Forming the augmented Hessian           .... done
Diagonalizing the augmented Hessian     .... done
Last element of RFO vector              ....  0.997682334
Lowest eigenvalues of augmented Hessian:
 -0.000477799
Length of the computed step             ....  0.068201885
The final length of the internal step   ....  0.068201885
Converting the step to cartesian space:
 Initial RMS(Int)=    0.0682018848
Transforming coordinates:
 Iter   0:  RMS(Cart)=    0.0196881883 RMS(Int)=    0.0682018848
 Iter   1:  RMS(Cart)=    0.0000000000 RMS(Int)=    0.0000000000
done
Storing new coordinates                 .... done

                                .--------------------.
          ----------------------|Geometry convergence|-------------------------
          Item                value                   Tolerance       Converged
          ---------------------------------------------------------------------
          RMS gradient        0.0070056504            0.0001000000      NO
          MAX gradient        0.0070056504            0.0003000000      NO
          RMS step            0.0682018848            0.0020000000      NO
          MAX step            0.0682018848            0.0040000000      NO
          ........................................................
          Max(Bonds)      0.0361      Max(Angles)    0.00
          Max(Dihed)        0.00      Max(Improp)    0.00
          ---------------------------------------------------------------------

The optimization has not yet converged - more geometry cycles are needed


    ---------------------------------------------------------------------------
                         Redundant Internal Coordinates
                            (Angstroem and degrees)

        Definition                    Value    dE/dq     Step     New-Value
    ----------------------------------------------------------------------------
     1. B(H   1,Au  0)                1.5227 -0.007006  0.0361    1.5588   
    ----------------------------------------------------------------------------

         *************************************************************
         *                GEOMETRY OPTIMIZATION CYCLE   2            *
         *************************************************************
---------------------------------
CARTESIAN COORDINATES (ANGSTROEM)
---------------------------------
  Au     0.000000    0.000000    0.037079
  H      0.000000    0.000000   -1.521736

----------------------------
CARTESIAN COORDINATES (A.U.)
----------------------------
  NO LB      ZA    FRAG     MASS         X           Y           Z
   0 Au   19.0000*   0   196.966    0.000000    0.000000    0.070070
   1 H     1.0000    0     1.008    0.000000    0.000000   -2.875665
* core charge reduced due to ECP

--------------------------------
INTERNAL COORDINATES (ANGSTROEM)
--------------------------------
 Au     0   0   0     0.000000000000     0.00000000     0.00000000
 H      1   0   0     1.558815883026     0.00000000     0.00000000

---------------------------
INTERNAL COORDINATES (A.U.)
---------------------------
 Au     0   0   0     0.000000000000     0.00000000     0.00000000
 H      1   0   0     2.945735112125     0.00000000     0.00000000



           ************************************************************
           *        Program running with 24 parallel MPI-processes    *
           *              working on a common directory               *
           ************************************************************


           ************************************************************
           *        Program running with 24 parallel MPI-processes    *
           *              working on a common directory               *
           ************************************************************

Diagonalization of the overlap matrix:
Smallest eigenvalue                        ... 2.706e-03
Time for diagonalization                   ...    0.002 sec
Threshold for overlap eigenvalues          ... 1.000e-08
Number of eigenvalues below threshold      ... 0
Time for construction of square roots      ...    0.001 sec
Total time needed                          ...    0.003 sec

-------------------
DFT GRID GENERATION
-------------------

General Integration Accuracy     IntAcc      ...  4.670
Radial Grid Type                 RadialGrid  ... Gauss-Chebyshev
Angular Grid (max. acc.)         AngularGrid ... Lebedev-302
Angular grid pruning method      GridPruning ... 3 (G Style)
Weight generation scheme         WeightScheme... Becke
Basis function cutoff            BFCut       ...    1.0000e-11
Integration weight cutoff        WCut        ...    1.0000e-14
Grids for H and He will be reduced by one unit

# of grid points (after initial pruning)     ...  15046 (   0.0 sec)
# of grid points (after weights+screening)   ...  15004 (   0.0 sec)
nearest neighbour list constructed           ...    0.0 sec
Grid point re-assignment to atoms done       ...    0.0 sec
Grid point division into batches done        ...    0.1 sec
Reduced shell lists constructed in    0.1 sec

Total number of grid points                  ...    15004
Total number of batches                      ...      235
Average number of points per batch           ...       63
Average number of grid points per atom       ...     7502
Average number of shells per batch           ...     2.09 ( 8.71%)
Average number of basis functions per batch  ...     4.45 ( 5.86%)
Average number of large shells per batch     ...     1.36 (65.22%)
Average number of large basis fcns per batch ...     3.73 (83.67%)
Maximum spatial batch extension              ...  41.49, 37.74, 22.16 au
Average spatial batch extension              ...   1.25,  1.14,  0.83 au

Time for grid setup =    0.143 sec

--------------
SCF ITERATIONS
--------------
ITER       Energy         Delta-E        Max-DP      RMS-DP      [F,P]     Damp
               ***  Starting incremental Fock matrix formation  ***
  0   -136.2795402603   0.000000000000 0.00423728  0.00009015  0.1016303 0.7000
  1   -136.2795949214  -0.000054661128 0.00474596  0.00009617  0.0712211 0.7000
                               ***Turning on DIIS***
  2   -136.2796366784  -0.000041757053 0.01375140  0.00027692  0.0498686 0.0000
  3   -136.2797417010  -0.000105022554 0.00385764  0.00011047  0.0005866 0.0000
  4   -136.2797454786  -0.000003777568 0.00033356  0.00001498  0.0004350 0.0000
  5   -136.2797460604  -0.000000581825 0.00028043  0.00000831  0.0001222 0.0000
  6   -136.2797461136  -0.000000053171 0.00006689  0.00000211  0.0000463 0.0000
  7   -136.2797461167  -0.000000003103 0.00005787  0.00000137  0.0000321 0.0000
  8   -136.2797461188  -0.000000002180 0.00001342  0.00000030  0.0000073 0.0000
                 **** Energy Check signals convergence ****

               *****************************************************
               *                     SUCCESS                       *
               *           SCF CONVERGED AFTER   9 CYCLES          *
               *****************************************************

Total Energy       :         -136.27974612 Eh           -3708.36042 eV
  Last Energy change         ...   -1.0562e-10  Tolerance :   1.0000e-08
  Last MAX-Density change    ...    1.5978e-06  Tolerance :   1.0000e-07
             **** THE GBW FILE WAS UPDATED (Au01N0_H.gbw) ****
             **** DENSITY FILE WAS UPDATED (Au01N0_H.scfp) ****
             **** ENERGY FILE WAS UPDATED (Au01N0_H.en.tmp) ****
             **** THE GBW FILE WAS UPDATED (Au01N0_H.gbw) ****
             **** DENSITY FILE WAS UPDATED (Au01N0_H.scfp) ****
Total SCF time: 0 days 0 hours 0 min 1 sec 


-------------------------------------------------------------------------------
                          DFT DISPERSION CORRECTION                            
                                                                               
                              DFTD3 V3.1  Rev 1                                
                          USING Becke-Johnson damping                          
-------------------------------------------------------------------------------
-------------------------   ----------------
Dispersion correction           -0.000495883
-------------------------   ----------------


-------------------------   --------------------
FINAL SINGLE POINT ENERGY      -136.280242001629
-------------------------   --------------------



           ************************************************************
           *        Program running with 24 parallel MPI-processes    *
           *              working on a common directory               *
           ************************************************************
------------------------------------------------------------------------------
                         ORCA SCF GRADIENT CALCULATION
------------------------------------------------------------------------------

Gradient of the Kohn-Sham DFT energy:
Kohn-Sham wavefunction type      ... RKS
Hartree-Fock exchange scaling    ...    0.100
Number of operators              ...    1
Number of atoms                  ...    2
Basis set dimensions             ...   76
Integral neglect threshold       ... 2.5e-11
Integral primitive cutoff        ... 2.5e-12

Nuclear repulsion gradient       ... done
One Electron Gradient            
  ECP gradient                   ... done
Pre-screening matrix             ... done
Starting the two electron gradient:
Two electron gradient done
Exchange-correlation gradient    ... done
Dispersion correction            ... done

------------------
CARTESIAN GRADIENT
------------------

   1   Au  :   -0.000000000   -0.000000001    0.005600005
   2   H   :   -0.000000001    0.000000001   -0.006590496

Difference to translation invariance:
           :   -0.0000000007    0.0000000005   -0.0009904914

Norm of the cartesian gradient     ...    0.0086483924
RMS gradient                       ...    0.0035306914
MAX gradient                       ...    0.0065904961

-------
TIMINGS
-------

Total SCF gradient time            ...        0.414 sec

One electron gradient       ....       0.081 sec  ( 19.7%)
Prescreening matrices       ....       0.004 sec  (  1.0%)
Two electron gradient       ....       0.141 sec  ( 34.1%)
XC gradient                 ....       0.009 sec  (  2.1%)
------------------------------------------------------------------------------
                         ORCA GEOMETRY RELAXATION STEP
------------------------------------------------------------------------------

Reading the OPT-File                    .... done
Getting information on internals        .... done
Copying old internal coords+grads       .... done
Making the new internal coordinates     .... (new redundants).... done
Validating the new internal coordinates .... (new redundants).... done
Calculating the B-matrix                .... done
Calculating the G,G- and P matrices     .... done
Transforming gradient to internals      .... done
Projecting the internal gradient        .... done
Number of atoms                         ....   2
Number of internal coordinates          ....   1
Current Energy                          ....  -136.280242002 Eh
Current gradient norm                   ....     0.008648392 Eh/bohr
Maximum allowed component of the step   ....  0.300
Current trust radius                    ....  0.300
Updating the Hessian (BFGS)             .... done
Forming the augmented Hessian           .... done
Diagonalizing the augmented Hessian     .... done
Last element of RFO vector              ....  0.999497954
Lowest eigenvalues of augmented Hessian:
 -0.000193215
Length of the computed step             ....  0.031699335
The final length of the internal step   ....  0.031699335
Converting the step to cartesian space:
 Initial RMS(Int)=    0.0316993351
Transforming coordinates:
 Iter   0:  RMS(Cart)=    0.0091508098 RMS(Int)=    0.0316993351
 Iter   1:  RMS(Cart)=    0.0000000000 RMS(Int)=    0.0000000000
done
Storing new coordinates                 .... done

                                .--------------------.
          ----------------------|Geometry convergence|-------------------------
          Item                value                   Tolerance       Converged
          ---------------------------------------------------------------------
          Energy change       0.0000176479            0.0000050000      NO
          RMS gradient        0.0060952504            0.0001000000      NO
          MAX gradient        0.0060952504            0.0003000000      NO
          RMS step            0.0316993351            0.0020000000      NO
          MAX step            0.0316993351            0.0040000000      NO
          ........................................................
          Max(Bonds)      0.0168      Max(Angles)    0.00
          Max(Dihed)        0.00      Max(Improp)    0.00
          ---------------------------------------------------------------------

The optimization has not yet converged - more geometry cycles are needed


    ---------------------------------------------------------------------------
                         Redundant Internal Coordinates
                            (Angstroem and degrees)

        Definition                    Value    dE/dq     Step     New-Value
    ----------------------------------------------------------------------------
     1. B(H   1,Au  0)                1.5588  0.006095 -0.0168    1.5420   
    ----------------------------------------------------------------------------

         *************************************************************
         *                GEOMETRY OPTIMIZATION CYCLE   3            *
         *************************************************************
---------------------------------
CARTESIAN COORDINATES (ANGSTROEM)
---------------------------------
  Au     0.000000    0.000000    0.028692
  H      0.000000    0.000000   -1.513349

----------------------------
CARTESIAN COORDINATES (A.U.)
----------------------------
  NO LB      ZA    FRAG     MASS         X           Y           Z
   0 Au   19.0000*   0   196.966    0.000000    0.000000    0.054220
   1 H     1.0000    0     1.008    0.000000    0.000000   -2.859815
* core charge reduced due to ECP

--------------------------------
INTERNAL COORDINATES (ANGSTROEM)
--------------------------------
 Au     0   0   0     0.000000000000     0.00000000     0.00000000
 H      1   0   0     1.542041317387     0.00000000     0.00000000

---------------------------
INTERNAL COORDINATES (A.U.)
---------------------------
 Au     0   0   0     0.000000000000     0.00000000     0.00000000
 H      1   0   0     2.914035777053     0.00000000     0.00000000



           ************************************************************
           *        Program running with 24 parallel MPI-processes    *
           *              working on a common directory               *
           ************************************************************


           ************************************************************
           *        Program running with 24 parallel MPI-processes    *
           *              working on a common directory               *
           ************************************************************

Diagonalization of the overlap matrix:
Smallest eigenvalue                        ... 2.548e-03
Time for diagonalization                   ...    0.003 sec
Threshold for overlap eigenvalues          ... 1.000e-08
Number of eigenvalues below threshold      ... 0
Time for construction of square roots      ...    0.001 sec
Total time needed                          ...    0.004 sec

-------------------
DFT GRID GENERATION
-------------------

General Integration Accuracy     IntAcc      ...  4.670
Radial Grid Type                 RadialGrid  ... Gauss-Chebyshev
Angular Grid (max. acc.)         AngularGrid ... Lebedev-302
Angular grid pruning method      GridPruning ... 3 (G Style)
Weight generation scheme         WeightScheme... Becke
Basis function cutoff            BFCut       ...    1.0000e-11
Integration weight cutoff        WCut        ...    1.0000e-14
Grids for H and He will be reduced by one unit

# of grid points (after initial pruning)     ...  15046 (   0.0 sec)
# of grid points (after weights+screening)   ...  15004 (   0.0 sec)
nearest neighbour list constructed           ...    0.0 sec
Grid point re-assignment to atoms done       ...    0.0 sec
Grid point division into batches done        ...    0.1 sec
Reduced shell lists constructed in    0.1 sec

Total number of grid points                  ...    15004
Total number of batches                      ...      236
Average number of points per batch           ...       63
Average number of grid points per atom       ...     7502
Average number of shells per batch           ...     2.09 ( 8.71%)
Average number of basis functions per batch  ...     4.45 ( 5.86%)
Average number of large shells per batch     ...     1.36 (65.22%)
Average number of large basis fcns per batch ...     3.73 (83.67%)
Maximum spatial batch extension              ...  41.49, 37.74, 22.16 au
Average spatial batch extension              ...   1.25,  1.14,  0.83 au

Time for grid setup =    0.139 sec

--------------
SCF ITERATIONS
--------------
ITER       Energy         Delta-E        Max-DP      RMS-DP      [F,P]     Damp
               ***  Starting incremental Fock matrix formation  ***
  0   -136.2798218339   0.000000000000 0.00199721  0.00004218  0.0468945 0.7000
  1   -136.2798333334  -0.000011499488 0.00222990  0.00004497  0.0328633 0.7000
                               ***Turning on DIIS***
  2   -136.2798420991  -0.000008765725 0.00646202  0.00012945  0.0230110 0.0000
  3   -136.2798641377  -0.000022038599 0.00183301  0.00005147  0.0002757 0.0000
  4   -136.2798649194  -0.000000781720 0.00015054  0.00000659  0.0002279 0.0000
  5   -136.2798650575  -0.000000138129 0.00014577  0.00000398  0.0000454 0.0000
  6   -136.2798650669  -0.000000009333 0.00003905  0.00000127  0.0000238 0.0000
  7   -136.2798650679  -0.000000001008 0.00003245  0.00000076  0.0000183 0.0000
  8   -136.2798650686  -0.000000000726 0.00000504  0.00000011  0.0000027 0.0000
                 **** Energy Check signals convergence ****

               *****************************************************
               *                     SUCCESS                       *
               *           SCF CONVERGED AFTER   9 CYCLES          *
               *****************************************************

Total Energy       :         -136.27986507 Eh           -3708.36366 eV
  Last Energy change         ...   -9.0381e-12  Tolerance :   1.0000e-08
  Last MAX-Density change    ...    5.0714e-07  Tolerance :   1.0000e-07
             **** THE GBW FILE WAS UPDATED (Au01N0_H.gbw) ****
             **** DENSITY FILE WAS UPDATED (Au01N0_H.scfp) ****
             **** ENERGY FILE WAS UPDATED (Au01N0_H.en.tmp) ****
             **** THE GBW FILE WAS UPDATED (Au01N0_H.gbw) ****
             **** DENSITY FILE WAS UPDATED (Au01N0_H.scfp) ****
Total SCF time: 0 days 0 hours 0 min 1 sec 


-------------------------------------------------------------------------------
                          DFT DISPERSION CORRECTION                            
                                                                               
                              DFTD3 V3.1  Rev 1                                
                          USING Becke-Johnson damping                          
-------------------------------------------------------------------------------
-------------------------   ----------------
Dispersion correction           -0.000495770
-------------------------   ----------------


-------------------------   --------------------
FINAL SINGLE POINT ENERGY      -136.280360838360
-------------------------   --------------------



           ************************************************************
           *        Program running with 24 parallel MPI-processes    *
           *              working on a common directory               *
           ************************************************************
------------------------------------------------------------------------------
                         ORCA SCF GRADIENT CALCULATION
------------------------------------------------------------------------------

Gradient of the Kohn-Sham DFT energy:
Kohn-Sham wavefunction type      ... RKS
Hartree-Fock exchange scaling    ...    0.100
Number of operators              ...    1
Number of atoms                  ...    2
Basis set dimensions             ...   76
Integral neglect threshold       ... 2.5e-11
Integral primitive cutoff        ... 2.5e-12

Nuclear repulsion gradient       ... done
One Electron Gradient            
  ECP gradient                   ... done
Pre-screening matrix             ... done
Starting the two electron gradient:
Two electron gradient done
Exchange-correlation gradient    ... done
Dispersion correction            ... done

------------------
CARTESIAN GRADIENT
------------------

   1   Au  :   -0.000000001    0.000000001   -0.000209232
   2   H   :    0.000000001   -0.000000000   -0.000798517

Difference to translation invariance:
           :   -0.0000000003    0.0000000002   -0.0010077497

Norm of the cartesian gradient     ...    0.0008254745
RMS gradient                       ...    0.0003369985
MAX gradient                       ...    0.0007985173

-------
TIMINGS
-------

Total SCF gradient time            ...        0.426 sec

One electron gradient       ....       0.090 sec  ( 21.2%)
Prescreening matrices       ....       0.004 sec  (  0.9%)
Two electron gradient       ....       0.143 sec  ( 33.5%)
XC gradient                 ....       0.008 sec  (  2.0%)
------------------------------------------------------------------------------
                         ORCA GEOMETRY RELAXATION STEP
------------------------------------------------------------------------------

Reading the OPT-File                    .... done
Getting information on internals        .... done
Copying old internal coords+grads       .... done
Making the new internal coordinates     .... (new redundants).... done
Validating the new internal coordinates .... (new redundants).... done
Calculating the B-matrix                .... done
Calculating the G,G- and P matrices     .... done
Transforming gradient to internals      .... done
Projecting the internal gradient        .... done
Number of atoms                         ....   2
Number of internal coordinates          ....   1
Current Energy                          ....  -136.280360838 Eh
Current gradient norm                   ....     0.000825474 Eh/bohr
Maximum allowed component of the step   ....  0.300
Current trust radius                    ....  0.300
Updating the Hessian (BFGS)             .... done
Forming the augmented Hessian           .... done
Diagonalizing the augmented Hessian     .... done
Last element of RFO vector              ....  0.999998704
Lowest eigenvalues of augmented Hessian:
 -0.000000474
Length of the computed step             ....  0.001610167
The final length of the internal step   ....  0.001610167
Converting the step to cartesian space:
 Initial RMS(Int)=    0.0016101669
Transforming coordinates:
 Iter   0:  RMS(Cart)=    0.0004648152 RMS(Int)=    0.0016101669
 Iter   1:  RMS(Cart)=    0.0000000000 RMS(Int)=    0.0000000000
done
Storing new coordinates                 .... done

                                .--------------------.
          ----------------------|Geometry convergence|-------------------------
          Item                value                   Tolerance       Converged
          ---------------------------------------------------------------------
          Energy change      -0.0001188367            0.0000050000      NO
          RMS gradient        0.0002946425            0.0001000000      NO
          MAX gradient        0.0002946425            0.0003000000      YES
          RMS step            0.0016101669            0.0020000000      YES
          MAX step            0.0016101669            0.0040000000      YES
          ........................................................
          Max(Bonds)      0.0009      Max(Angles)    0.00
          Max(Dihed)        0.00      Max(Improp)    0.00
          ---------------------------------------------------------------------

The optimization has not yet converged - more geometry cycles are needed


    ---------------------------------------------------------------------------
                         Redundant Internal Coordinates
                            (Angstroem and degrees)

        Definition                    Value    dE/dq     Step     New-Value
    ----------------------------------------------------------------------------
     1. B(H   1,Au  0)                1.5420  0.000295 -0.0009    1.5412   
    ----------------------------------------------------------------------------

         *************************************************************
         *                GEOMETRY OPTIMIZATION CYCLE   4            *
         *************************************************************
---------------------------------
CARTESIAN COORDINATES (ANGSTROEM)
---------------------------------
  Au     0.000000    0.000000    0.028266
  H      0.000000    0.000000   -1.512923

----------------------------
CARTESIAN COORDINATES (A.U.)
----------------------------
  NO LB      ZA    FRAG     MASS         X           Y           Z
   0 Au   19.0000*   0   196.966    0.000000    0.000000    0.053415
   1 H     1.0000    0     1.008    0.000000    0.000000   -2.859010
* core charge reduced due to ECP

--------------------------------
INTERNAL COORDINATES (ANGSTROEM)
--------------------------------
 Au     0   0   0     0.000000000000     0.00000000     0.00000000
 H      1   0   0     1.541189253752     0.00000000     0.00000000

---------------------------
INTERNAL COORDINATES (A.U.)
---------------------------
 Au     0   0   0     0.000000000000     0.00000000     0.00000000
 H      1   0   0     2.912425610133     0.00000000     0.00000000



           ************************************************************
           *        Program running with 24 parallel MPI-processes    *
           *              working on a common directory               *
           ************************************************************


           ************************************************************
           *        Program running with 24 parallel MPI-processes    *
           *              working on a common directory               *
           ************************************************************

Diagonalization of the overlap matrix:
Smallest eigenvalue                        ... 2.541e-03
Time for diagonalization                   ...    0.003 sec
Threshold for overlap eigenvalues          ... 1.000e-08
Number of eigenvalues below threshold      ... 0
Time for construction of square roots      ...    0.001 sec
Total time needed                          ...    0.004 sec

-------------------
DFT GRID GENERATION
-------------------

General Integration Accuracy     IntAcc      ...  4.670
Radial Grid Type                 RadialGrid  ... Gauss-Chebyshev
Angular Grid (max. acc.)         AngularGrid ... Lebedev-302
Angular grid pruning method      GridPruning ... 3 (G Style)
Weight generation scheme         WeightScheme... Becke
Basis function cutoff            BFCut       ...    1.0000e-11
Integration weight cutoff        WCut        ...    1.0000e-14
Grids for H and He will be reduced by one unit

# of grid points (after initial pruning)     ...  15046 (   0.0 sec)
# of grid points (after weights+screening)   ...  15004 (   0.0 sec)
nearest neighbour list constructed           ...    0.0 sec
Grid point re-assignment to atoms done       ...    0.0 sec
Grid point division into batches done        ...    0.1 sec
Reduced shell lists constructed in    0.1 sec

Total number of grid points                  ...    15004
Total number of batches                      ...      236
Average number of points per batch           ...       63
Average number of grid points per atom       ...     7502
Average number of shells per batch           ...     2.09 ( 8.71%)
Average number of basis functions per batch  ...     4.45 ( 5.86%)
Average number of large shells per batch     ...     1.36 (65.22%)
Average number of large basis fcns per batch ...     3.73 (83.67%)
Maximum spatial batch extension              ...  41.49, 37.74, 22.16 au
Average spatial batch extension              ...   1.25,  1.14,  0.83 au

Time for grid setup =    0.147 sec

--------------
SCF ITERATIONS
--------------
ITER       Energy         Delta-E        Max-DP      RMS-DP      [F,P]     Damp
               ***  Starting incremental Fock matrix formation  ***
  0   -136.2798660213   0.000000000000 0.00010035  0.00000213  0.0024177 0.7000
  1   -136.2798660518  -0.000000030512 0.00011258  0.00000228  0.0016943 0.7000
                               ***Turning on DIIS***
  2   -136.2798660750  -0.000000023255 0.00032673  0.00000657  0.0011863 0.0000
  3   -136.2798661334  -0.000000058412 0.00009241  0.00000262  0.0000139 0.0000
  4   -136.2798661355  -0.000000002070 0.00000768  0.00000034  0.0000110 0.0000
                 **** Energy Check signals convergence ****

               *****************************************************
               *                     SUCCESS                       *
               *           SCF CONVERGED AFTER   5 CYCLES          *
               *****************************************************

Total Energy       :         -136.27986614 Eh           -3708.36369 eV
  Last Energy change         ...   -3.0991e-10  Tolerance :   1.0000e-08
  Last MAX-Density change    ...    7.7498e-06  Tolerance :   1.0000e-07
             **** THE GBW FILE WAS UPDATED (Au01N0_H.gbw) ****
             **** DENSITY FILE WAS UPDATED (Au01N0_H.scfp) ****
             **** ENERGY FILE WAS UPDATED (Au01N0_H.en.tmp) ****
             **** THE GBW FILE WAS UPDATED (Au01N0_H.gbw) ****
             **** DENSITY FILE WAS UPDATED (Au01N0_H.scfp) ****
Total SCF time: 0 days 0 hours 0 min 1 sec 


-------------------------------------------------------------------------------
                          DFT DISPERSION CORRECTION                            
                                                                               
                              DFTD3 V3.1  Rev 1                                
                          USING Becke-Johnson damping                          
-------------------------------------------------------------------------------
-------------------------   ----------------
Dispersion correction           -0.000495765
-------------------------   ----------------


-------------------------   --------------------
FINAL SINGLE POINT ENERGY      -136.280361900736
-------------------------   --------------------



           ************************************************************
           *        Program running with 24 parallel MPI-processes    *
           *              working on a common directory               *
           ************************************************************
------------------------------------------------------------------------------
                         ORCA SCF GRADIENT CALCULATION
------------------------------------------------------------------------------

Gradient of the Kohn-Sham DFT energy:
Kohn-Sham wavefunction type      ... RKS
Hartree-Fock exchange scaling    ...    0.100
Number of operators              ...    1
Number of atoms                  ...    2
Basis set dimensions             ...   76
Integral neglect threshold       ... 2.5e-11
Integral primitive cutoff        ... 2.5e-12

Nuclear repulsion gradient       ... done
One Electron Gradient            
  ECP gradient                   ... done
Pre-screening matrix             ... done
Starting the two electron gradient:
Two electron gradient done
Exchange-correlation gradient    ... done
Dispersion correction            ... done

------------------
CARTESIAN GRADIENT
------------------

   1   Au  :    0.000000003    0.000000001   -0.000518225
   2   H   :   -0.000000000    0.000000000   -0.000490440

Difference to translation invariance:
           :    0.0000000028    0.0000000014   -0.0010086653

Norm of the cartesian gradient     ...    0.0007135046
RMS gradient                       ...    0.0002912870
MAX gradient                       ...    0.0005182250

-------
TIMINGS
-------

Total SCF gradient time            ...        0.417 sec

One electron gradient       ....       0.089 sec  ( 21.2%)
Prescreening matrices       ....       0.004 sec  (  0.9%)
Two electron gradient       ....       0.142 sec  ( 34.1%)
XC gradient                 ....       0.009 sec  (  2.2%)
------------------------------------------------------------------------------
                         ORCA GEOMETRY RELAXATION STEP
------------------------------------------------------------------------------

Reading the OPT-File                    .... done
Getting information on internals        .... done
Copying old internal coords+grads       .... done
Making the new internal coordinates     .... (new redundants).... done
Validating the new internal coordinates .... (new redundants).... done
Calculating the B-matrix                .... done
Calculating the G,G- and P matrices     .... done
Transforming gradient to internals      .... done
Projecting the internal gradient        .... done
Number of atoms                         ....   2
Number of internal coordinates          ....   1
Current Energy                          ....  -136.280361901 Eh
Current gradient norm                   ....     0.000713505 Eh/bohr
Maximum allowed component of the step   ....  0.300
Current trust radius                    ....  0.300
Updating the Hessian (BFGS)             .... done
Forming the augmented Hessian           .... done
Diagonalizing the augmented Hessian     .... done
Last element of RFO vector              ....  0.999999997
Lowest eigenvalues of augmented Hessian:
 -0.000000001
Length of the computed step             ....  0.000072501
The final length of the internal step   ....  0.000072501
Converting the step to cartesian space:
 Initial RMS(Int)=    0.0000725006
Transforming coordinates:
 Iter   0:  RMS(Cart)=    0.0000209291 RMS(Int)=    0.0000725006
 Iter   1:  RMS(Cart)=    0.0000000000 RMS(Int)=    0.0000000000
done
Storing new coordinates                 .... done

                                .--------------------.
          ----------------------|Geometry convergence|-------------------------
          Item                value                   Tolerance       Converged
          ---------------------------------------------------------------------
          Energy change      -0.0000010624            0.0000050000      YES
          RMS gradient        0.0000138923            0.0001000000      YES
          MAX gradient        0.0000138923            0.0003000000      YES
          RMS step            0.0000725006            0.0020000000      YES
          MAX step            0.0000725006            0.0040000000      YES
          ........................................................
          Max(Bonds)      0.0000      Max(Angles)    0.00
          Max(Dihed)        0.00      Max(Improp)    0.00
          ---------------------------------------------------------------------

                    ***********************HURRAY********************
                    ***        THE OPTIMIZATION HAS CONVERGED     ***
                    *************************************************


    ---------------------------------------------------------------------------
                         Redundant Internal Coordinates

                          --- Optimized Parameters ---  
                            (Angstroem and degrees)

        Definition                    OldVal   dE/dq     Step     FinalVal
    ----------------------------------------------------------------------------
     1. B(H   1,Au  0)                1.5412 -0.000014  0.0000    1.5412   
    ----------------------------------------------------------------------------
                 *******************************************************
                 *** FINAL ENERGY EVALUATION AT THE STATIONARY POINT ***
                 ***               (AFTER    4 CYCLES)               ***
                 *******************************************************
---------------------------------
CARTESIAN COORDINATES (ANGSTROEM)
---------------------------------
  Au     0.000000    0.000000    0.028285
  H      0.000000    0.000000   -1.512942

----------------------------
CARTESIAN COORDINATES (A.U.)
----------------------------
  NO LB      ZA    FRAG     MASS         X           Y           Z
   0 Au   19.0000*   0   196.966    0.000000    0.000000    0.053451
   1 H     1.0000    0     1.008    0.000000    0.000000   -2.859047
* core charge reduced due to ECP

--------------------------------
INTERNAL COORDINATES (ANGSTROEM)
--------------------------------
 Au     0   0   0     0.000000000000     0.00000000     0.00000000
 H      1   0   0     1.541227619441     0.00000000     0.00000000

---------------------------
INTERNAL COORDINATES (A.U.)
---------------------------
 Au     0   0   0     0.000000000000     0.00000000     0.00000000
 H      1   0   0     2.912498110780     0.00000000     0.00000000

---------------------
BASIS SET INFORMATION
---------------------
There are 2 groups of distinct atoms

 Group   1 Type Au  : 8s8p6d2f1g contracted to 6s5p3d2f1g pattern {311111/41111/411/11/1}
 Group   2 Type H   : 5s3p1d contracted to 3s3p1d pattern {311/111/1}

Atom   0Au   basis set group =>   1
Atom   1H    basis set group =>   2
----------------------------------
AUXILIARY/JK BASIS SET INFORMATION
----------------------------------
There are 2 groups of distinct atoms

 Group   1 Type Au  : 13s12p11d9f5g3h2i contracted to 13s11p10d8f4g3h2i pattern {1111111111111/21111111111/2111111111/21111111/2111/111/11}
 Group   2 Type H   : 4s2p2d contracted to 2s2p2d pattern {31/11/11}

Atom   0Au   basis set group =>   1
Atom   1H    basis set group =>   2
-------------------------
ECP PARAMETER INFORMATION
-------------------------

 Group 1, Type Au ECP Def2-ECP (replacing 60 core electrons, lmax=3)

Atom   0Au   ECP group =>   1



           ************************************************************
           *        Program running with 24 parallel MPI-processes    *
           *              working on a common directory               *
           ************************************************************
------------------------------------------------------------------------------
                           ORCA GTO INTEGRAL CALCULATION
------------------------------------------------------------------------------

                         BASIS SET STATISTICS AND STARTUP INFO

 # of primitive gaussian shells          ...   34
 # of primitive gaussian functions       ...  104
 # of contracted shells                  ...   24
 # of contracted basis functions         ...   76
 Highest angular momentum                ...    4
 Maximum contraction depth               ...    4
 Integral package used                   ... LIBINT
 Integral threshhold            Thresh   ...  2.500e-11
 Primitive cut-off              TCut     ...  2.500e-12


------------------------------ INTEGRAL EVALUATION ----------------------------


 * One electron integrals 

   ECP integrals                         ... done
 Pre-screening matrix                    ... done
 Shell pair data                         ... done (   0.000 sec)



           ************************************************************
           *        Program running with 24 parallel MPI-processes    *
           *              working on a common directory               *
           ************************************************************
-------------------------------------------------------------------------------
                                 ORCA SCF
-------------------------------------------------------------------------------

------------
SCF SETTINGS
------------
Hamiltonian:
 Density Functional     Method          .... DFT(GTOs)
 Exchange Functional    Exchange        .... TPSS
 Correlation Functional Correlation     .... TPSS
 LDA part of GGA corr.  LDAOpt          .... PW91-LDA
 Gradients option       PostSCFGGA      .... off
 Hybrid DFT is turned on
   Fraction HF Exchange ScalHFX         ....  0.100000
   Scaling of DF-GGA-X  ScalDFX         ....  0.900000
   Scaling of DF-GGA-C  ScalDFC         ....  1.000000
   Scaling of DF-LDA-C  ScalLDAC        ....  1.000000
   Perturbative correction              ....  0.000000
   Density functional embedding theory  .... OFF
   NL short-range parameter             ....  5.200000


General Settings:
 Integral files         IntName         .... Au01N0_H
 Hartree-Fock type      HFTyp           .... RHF
 Total Charge           Charge          ....    0
 Multiplicity           Mult            ....    1
 Number of Electrons    NEL             ....   20
 Basis Dimension        Dim             ....   76
 Nuclear Repulsion      ENuc            ....      6.5236093818 Eh

Convergence Acceleration:
 DIIS                   CNVDIIS         .... on
   Start iteration      DIISMaxIt       ....    12
   Startup error        DIISStart       ....  0.200000
   # of expansion vecs  DIISMaxEq       ....     5
   Bias factor          DIISBfac        ....   1.050
   Max. coefficient     DIISMaxC        ....  10.000
 Newton-Raphson         CNVNR           .... off
 SOSCF                  CNVSOSCF        .... off
 Level Shifting         CNVShift        .... on
   Level shift para.    LevelShift      ....    0.2500
   Turn off err/grad.   ShiftErr        ....    0.0010
 Zerner damping         CNVZerner       .... off
 Static damping         CNVDamp         .... on
   Fraction old density DampFac         ....    0.7000
   Max. Damping (<1)    DampMax         ....    0.9800
   Min. Damping (>=0)   DampMin         ....    0.0000
   Turn off err/grad.   DampErr         ....    0.1000
 Fernandez-Rico         CNVRico         .... off

SCF Procedure:
 Maximum # iterations   MaxIter         ....   125
 SCF integral mode      SCFMode         .... Direct
   Integral package                     .... LIBINT
 Reset frequency        DirectResetFreq ....    20
 Integral Threshold     Thresh          ....  2.500e-11 Eh
 Primitive CutOff       TCut            ....  2.500e-12 Eh

Convergence Tolerance:
 Convergence Check Mode ConvCheckMode   .... Total+1el-Energy
 Convergence forced     ConvForced      .... 0
 Energy Change          TolE            ....  1.000e-08 Eh
 1-El. energy change                    ....  1.000e-05 Eh
 DIIS Error             TolErr          ....  5.000e-07


Diagonalization of the overlap matrix:
Smallest eigenvalue                        ... 2.541e-03
Time for diagonalization                   ...    0.003 sec
Threshold for overlap eigenvalues          ... 1.000e-08
Number of eigenvalues below threshold      ... 0
Time for construction of square roots      ...    0.001 sec
Total time needed                          ...    0.004 sec

---------------------
INITIAL GUESS: MOREAD
---------------------
Guess MOs are being read from file: Au01N0_H.gbw
Input Geometry matches current geometry (good)
[...]
  10   0.0000      -0.099819        -2.7162 
  11   0.0000      -0.011424        -0.3109 
  12   0.0000      -0.011424        -0.3109 
  13   0.0000       0.073405         1.9974 
  14   0.0000       0.093580         2.5464 
  15   0.0000       0.170897         4.6503 
  16   0.0000       0.170897         4.6503 
  17   0.0000       0.180096         4.9007 
  18   0.0000       0.206912         5.6304 
  19   0.0000       0.206912         5.6304 
  20   0.0000       0.304501         8.2859 
  21   0.0000       0.304502         8.2859 
  22   0.0000       0.368313        10.0223 
  23   0.0000       0.392915        10.6918 
  24   0.0000       0.392915        10.6918 
  25   0.0000       0.435453        11.8493 
  26   0.0000       0.447023        12.1641 
  27   0.0000       0.791055        21.5257 
  28   0.0000       0.791055        21.5257 
  29   0.0000       0.944380        25.6979 
  30   0.0000       1.047419        28.5017 
  31   0.0000       1.047419        28.5017 
  32   0.0000       1.095950        29.8223 
  33   0.0000       1.095958        29.8225 
  34   0.0000       1.114944        30.3392 
  35   0.0000       1.114944        30.3392 
  36   0.0000       1.183094        32.1936 
  37   0.0000       1.281027        34.8585 
  38   0.0000       1.281027        34.8585 
  39   0.0000       1.421142        38.6712 
  40   0.0000       1.463574        39.8259 
  41   0.0000       1.463581        39.8261 
  42   0.0000       1.582981        43.0751 
  43   0.0000       1.582981        43.0751 
  44   0.0000       1.944851        52.9221 
  45   0.0000       2.260413        61.5090 
  46   0.0000       2.622583        71.3641 
  47   0.0000       3.175858        86.4195 
  48   0.0000       3.175907        86.4208 
  49   0.0000       3.340247        90.8928 
  50   0.0000       3.340247        90.8928 
  51   0.0000       3.547565        96.5341 
  52   0.0000       3.552201        96.6603 
  53   0.0000       3.552201        96.6603 
  54   0.0000       3.609292        98.2138 
  55   0.0000       3.609316        98.2145 
  56   0.0000       3.645354        99.1951 
  57   0.0000       3.645354        99.1951 
  58   0.0000       3.771781       102.6354 
  59   0.0000       3.932067       106.9970 
  60   0.0000       3.932067       106.9970 
  61   0.0000       4.107008       111.7574 
  62   0.0000       4.107008       111.7574 
  63   0.0000       4.118480       112.0695 
  64   0.0000       4.118552       112.0715 
  65   0.0000       4.163368       113.2910 
  66   0.0000       4.163369       113.2910 
  67   0.0000       4.558749       124.0499 
  68   0.0000       4.770136       129.8020 
  69   0.0000       4.770136       129.8020 
  70   0.0000       5.514746       150.0639 
  71   0.0000      27.397949       745.5361 
  72   0.0000      27.397949       745.5361 
  73   0.0000      29.825639       811.5969 
  74   0.0000      44.279479      1204.9059 
  75   0.0000     205.225312      5584.4646 

                    ********************************
                    * MULLIKEN POPULATION ANALYSIS *
                    ********************************

-----------------------
MULLIKEN ATOMIC CHARGES
-----------------------
   0 Au:   -0.144261
   1 H :    0.144261
Sum of atomic charges:    0.0000000

--------------------------------
MULLIKEN REDUCED ORBITAL CHARGES
--------------------------------
  0 Aus       :     3.388107  s :     3.388107
      pz      :     2.058266  p :     6.058463
      px      :     2.000099
      py      :     2.000099
      dz2     :     1.726182  d :     9.693627
      dxz     :     1.983970
      dyz     :     1.983970
      dx2y2   :     1.999753
      dxy     :     1.999753
      f0      :     0.003520  f :     0.003717
      f+1     :    -0.000001
      f-1     :    -0.000001
      f+2     :     0.000099
      f-2     :     0.000099
      f+3     :     0.000000
      f-3     :     0.000000
      g0      :     0.000234  g :     0.000346
      g+1     :     0.000045
      g-1     :     0.000045
      g+2     :     0.000011
      g-2     :     0.000011
      g+3     :     0.000000
      g-3     :     0.000000
      g+4     :     0.000000
      g-4     :     0.000000
  1 H s       :     0.833424  s :     0.833424
      pz      :    -0.011209  p :     0.017890
      px      :     0.014550
      py      :     0.014550
      dz2     :     0.001476  d :     0.004424
      dxz     :     0.001337
      dyz     :     0.001337
      dx2y2   :     0.000137
      dxy     :     0.000137


                     *******************************
                     * LOEWDIN POPULATION ANALYSIS *
                     *******************************

----------------------
LOEWDIN ATOMIC CHARGES
----------------------
   0 Au:    0.338325
   1 H :   -0.338325

-------------------------------
LOEWDIN REDUCED ORBITAL CHARGES
-------------------------------
  0 Aus       :     3.003407  s :     3.003407
      pz      :     2.023245  p :     6.018302
      px      :     1.997528
      py      :     1.997528
      dz2     :     1.742954  d :     9.631459
      dxz     :     1.944942
      dyz     :     1.944942
      dx2y2   :     1.999311
      dxy     :     1.999311
      f0      :     0.007164  f :     0.008243
      f+1     :     0.000431
      f-1     :     0.000431
      f+2     :     0.000108
      f-2     :     0.000108
      f+3     :     0.000000
      f-3     :     0.000000
      g0      :     0.000240  g :     0.000263
      g+1     :     0.000002
      g-1     :     0.000002
      g+2     :     0.000009
      g-2     :     0.000009
      g+3     :     0.000000
      g-3     :     0.000000
      g+4     :     0.000000
      g-4     :     0.000000
  1 H s       :     1.043256  s :     1.043256
      pz      :     0.162735  p :     0.257560
      px      :     0.047412
      py      :     0.047412
      dz2     :     0.016999  d :     0.037510
      dxz     :     0.009684
      dyz     :     0.009684
      dx2y2   :     0.000572
      dxy     :     0.000572


                      *****************************
                      * MAYER POPULATION ANALYSIS *
                      *****************************

  NA   - Mulliken gross atomic population
  ZA   - Total nuclear charge
  QA   - Mulliken gross atomic charge
  VA   - Mayer's total valence
  BVA  - Mayer's bonded valence
  FA   - Mayer's free valence

  ATOM       NA         ZA         QA         VA         BVA        FA
  0 Au    19.1443    19.0000    -0.1443     1.0396     1.0396     0.0000
  1 H      0.8557     1.0000     0.1443     1.0396     1.0396     0.0000

  Mayer bond orders larger than 0.100000
B(  0-Au,  1-H ) :   1.0396 

-------
TIMINGS
-------

Total SCF time: 0 days 0 hours 0 min 0 sec 

Total time                  ....       0.637 sec
Sum of individual times     ....       0.441 sec  ( 69.2%)

Fock matrix formation       ....       0.286 sec  ( 44.9%)
  XC integration            ....       0.019 sec  (  6.8% of F)
    Basis function eval.    ....       0.002 sec  ( 10.7% of XC)
    Density eval.           ....       0.003 sec  ( 13.8% of XC)
    XC-Functional eval.     ....       0.002 sec  ( 11.2% of XC)
    XC-Potential eval.      ....       0.004 sec  ( 22.2% of XC)
Diagonalization             ....       0.002 sec  (  0.3%)
Density matrix formation    ....       0.001 sec  (  0.1%)
Population analysis         ....       0.002 sec  (  0.4%)
Initial guess               ....       0.004 sec  (  0.6%)
Orbital Transformation      ....       0.000 sec  (  0.0%)
Orbital Orthonormalization  ....       0.001 sec  (  0.2%)
DIIS solution               ....       0.000 sec  (  0.0%)
Grid generation             ....       0.146 sec  ( 23.0%)


-------------------------------------------------------------------------------
                          DFT DISPERSION CORRECTION                            
                                                                               
                              DFTD3 V3.1  Rev 1                                
                          USING Becke-Johnson damping                          
-------------------------------------------------------------------------------
The TPSSH functional is recognized
Active option DFTDOPT                   ...         4   

molecular C6(AA) [au] = 382.888893 


            DFT-D V3
 parameters
 s6 scaling factor         :     1.0000 
 a1 scaling factor         :     0.4529 
 s8 scaling factor         :     2.2382 
 a2 scaling factor         :     4.6550 
 ad hoc parameters k1-k3   :    16.0000     1.3333    -4.0000 

 Edisp/kcal,au: -0.311097345999  -0.000495765125 
 E6   /kcal   :  -0.127276660 
 E8   /kcal   :  -0.183820686 
 % E8         :  59.087834694 

-------------------------   ----------------
Dispersion correction           -0.000495765
-------------------------   ----------------


-------------------------   --------------------
FINAL SINGLE POINT ENERGY      -136.280361861598
-------------------------   --------------------

                                *** OPTIMIZATION RUN DONE ***

                            ***************************************
                            *     ORCA property calculations      *
                            ***************************************

                                    ---------------------
                                    Active property flags
                                    ---------------------
   (+) Dipole Moment


------------------------------------------------------------------------------
                       ORCA ELECTRIC PROPERTIES CALCULATION
------------------------------------------------------------------------------

Dipole Moment Calculation                       ... on
Quadrupole Moment Calculation                   ... off
Polarizability Calculation                      ... off
GBWName                                         ... Au01N0_H.gbw
Electron density file                           ... Au01N0_H.scfp
The origin for moment calculation is the CENTER OF MASS  = ( 0.000000,  0.000000  0.038622)

-------------
DIPOLE MOMENT
-------------
                                X             Y             Z
Electronic contribution:      0.00000       0.00000       3.17050
Nuclear contribution   :      0.00000       0.00000      -2.61591
                        -----------------------------------------
Total Dipole Moment    :      0.00000       0.00000       0.55458
                        -----------------------------------------
Magnitude (a.u.)       :      0.55458
Magnitude (Debye)      :      1.40964



--------------------
Rotational spectrum 
--------------------
 
Rotational constants in cm-1:     0.000000     7.076519     7.076519 
Rotational constants in MHz :     0.000000 212148.708652 212148.708652 

 Dipole components along the rotational axes: 
x,y,z [a.u.] :     0.554585     0.000000     0.000000 
x,y,z [Debye]:     1.409643     0.000000     0.000000 

 

----------------------------------------------------------------------------
                           ORCA NUMERICAL FREQUENCIES
                              (24-process run)
----------------------------------------------------------------------------

Number of atoms                ... 2
Central differences            ... used
Number of displacements        ... 12
Numerical increment            ... 5.000e-03 bohr
IR-spectrum generation         ... on
Raman-spectrum generation      ... off
Surface Crossing Hessian       ... off

 WARNING: There are more processes than displacements to do
  ====> : Reducing number of processes to   6

The output will be reduced. Please look at the following files:
SCF program output             ... >Au01N0_H.lastscf
Integral program output        ... >Au01N0_H.lastint
Gradient program output        ... >Au01N0_H.lastgrad
Dipole moment program output   ... >Au01N0_H.lastmom
AutoCI program output          ... >Au01N0_H.lastautoci


         <<< Energy and Gradient at the input geometry >>>

        <<< Energy and Gradient at displaced geometries >>>
             <<<Displacing   2/coordinate 2 (+)>>>
             <<<Displacing   1/coordinate 2 (+)>>>
             <<<Displacing   2/coordinate 3 (+)>>>
             <<<Displacing   1/coordinate 3 (+)>>>
             <<<Displacing   1/coordinate 1 (+)>>>
             <<<Displacing   2/coordinate 1 (+)>>>
             <<<Displacing   2/coordinate 2 (-)>>>
             <<<Displacing   2/coordinate 1 (-)>>>
             <<<Displacing   1/coordinate 2 (-)>>>
             <<<Displacing   1/coordinate 1 (-)>>>
             <<<Displacing   1/coordinate 3 (-)>>>
             <<<Displacing   2/coordinate 3 (-)>>>
Warning: T+R mode no 5 is zero 

-----------------------
VIBRATIONAL FREQUENCIES
-----------------------

Scaling factor for frequencies =  1.000000000 (already applied!)

   0:         0.00 cm**-1
   1:         0.00 cm**-1
   2:         0.00 cm**-1
   3:         0.00 cm**-1
   4:         0.00 cm**-1
   5:      2244.20 cm**-1


------------
NORMAL MODES
------------

These modes are the cartesian displacements weighted by the diagonal matrix
M(i,i)=1/sqrt(m[i]) where m[i] is the mass of the displaced atom
Thus, these vectors are normalized but *not* orthogonal

                  0          1          2          3          4          5    
      0       0.000000   0.000000   0.000000   0.000000   0.000000   0.000000
      1       0.000000   0.000000   0.000000   0.000000   0.000000   0.000000
      2       0.000000   0.000000   0.000000   0.000000   0.000000   0.005118
      3       0.000000   0.000000   0.000000   0.000000   0.000000   0.000000
      4       0.000000   0.000000   0.000000   0.000000   0.000000   0.000000
      5       0.000000   0.000000   0.000000   0.000000   0.000000  -0.999987


-----------
IR SPECTRUM  
-----------

 Mode    freq (cm**-1)   T**2         TX         TY         TZ
-------------------------------------------------------------------
   5:      2244.20   14.483750  (  0.000008  -0.000092   3.805752)

The first frequency considered to be a vibration is 5
The total number of vibrations considered is 1


--------------------------
THERMOCHEMISTRY AT 298.15K
--------------------------

Temperature         ... 298.15 K
Pressure            ... 1.00 atm
Total Mass          ... 197.97 AMU
The molecule is recognized as being linear

Throughout the following assumptions are being made:
  (1) The electronic state is orbitally nondegenerate
  (2) There are no thermally accessible electronically excited states
  (3) Hindered rotations indicated by low frequency modes are not
      treated as such but are treated as vibrations and this may
      cause some error
  (4) All equations used are the standard statistical mechanics
      equations for an ideal gas
  (5) All vibrations are strictly harmonic

freq.    2244.20  E(vib)   ...       0.00 

------------
INNER ENERGY
------------

The inner energy is: U= E(el) + E(ZPE) + E(vib) + E(rot) + E(trans)
    E(el)   - is the total energy from the electronic structure calculation
              = E(kin-el) + E(nuc-el) + E(el-el) + E(nuc-nuc)
    E(ZPE)  - the the zero temperature vibrational energy from the frequency calculation
    E(vib)  - the the finite temperature correction to E(ZPE) due to population
              of excited vibrational states
    E(rot)  - is the rotational thermal energy
    E(trans)- is the translational thermal energy

Summary of contributions to the inner energy U:
Electronic energy                ...   -136.28036186 Eh
Zero point energy                ...      0.00511266 Eh       3.21 kcal/mol
Thermal vibrational correction   ...      0.00000020 Eh       0.00 kcal/mol
Thermal rotational correction    ...      0.00094418 Eh       0.59 kcal/mol
Thermal translational correction ...      0.00141627 Eh       0.89 kcal/mol
-----------------------------------------------------------------------
Total thermal energy                   -136.27288854 Eh


Summary of corrections to the electronic energy:
(perhaps to be used in another calculation)
Total thermal correction                  0.00236065 Eh       1.48 kcal/mol
Non-thermal (ZPE) correction              0.00511266 Eh       3.21 kcal/mol
-----------------------------------------------------------------------
Total correction                          0.00747332 Eh       4.69 kcal/mol


--------
ENTHALPY
--------

The enthalpy is H = U + kB*T
                kB is Boltzmann's constant
Total free energy                 ...   -136.27288854 Eh 
Thermal Enthalpy correction       ...      0.00094421 Eh       0.59 kcal/mol
-----------------------------------------------------------------------
Total Enthalpy                    ...   -136.27194434 Eh


Note: Rotational entropy computed according to Herzberg 
Infrared and Raman Spectra, Chapter V,1, Van Nostrand Reinhold, 1945 
Point Group:  Cinfv, Symmetry Number:   1  
Rotational constants in cm-1:     0.000000     7.076519     7.076519 

Vibrational entropy computed according to the QRRHO of S. Grimme
Chem.Eur.J. 2012 18 9955


-------
ENTROPY
-------

The entropy contributions are T*S = T*(S(el)+S(vib)+S(rot)+S(trans))
     S(el)   - electronic entropy
     S(vib)  - vibrational entropy
     S(rot)  - rotational entropy
     S(trans)- translational entropy
The entropies will be listed as mutliplied by the temperature to get
units of energy

Electronic entropy                ...      0.00000000 Eh      0.00 kcal/mol
Vibrational entropy               ...      0.00000022 Eh      0.00 kcal/mol
Rotational entropy                ...      0.00413271 Eh      2.59 kcal/mol
Translational entropy             ...      0.01983851 Eh     12.45 kcal/mol
-----------------------------------------------------------------------
Final entropy term                ...      0.02397144 Eh     15.04 kcal/mol

In case the symmetry of your molecule has not been determined correctly
or in case you have a reason to use a different symmetry number we print 
out the resulting rotational entropy values for sn=1,12 :
 --------------------------------------------------------
|  sn= 1 | S(rot)=             -inf Eh      -inf kcal/mol|
|  sn= 2 | S(rot)=             -inf Eh      -inf kcal/mol|
|  sn= 3 | S(rot)=             -inf Eh      -inf kcal/mol|
|  sn= 4 | S(rot)=             -inf Eh      -inf kcal/mol|
|  sn= 5 | S(rot)=             -inf Eh      -inf kcal/mol|
|  sn= 6 | S(rot)=             -inf Eh      -inf kcal/mol|
|  sn= 7 | S(rot)=             -inf Eh      -inf kcal/mol|
|  sn= 8 | S(rot)=             -inf Eh      -inf kcal/mol|
|  sn= 9 | S(rot)=             -inf Eh      -inf kcal/mol|
|  sn=10 | S(rot)=             -inf Eh      -inf kcal/mol|
|  sn=11 | S(rot)=             -inf Eh      -inf kcal/mol|
|  sn=12 | S(rot)=             -inf Eh      -inf kcal/mol|
 --------------------------------------------------------


-------------------
GIBBS FREE ENERGY
-------------------

The Gibbs free energy is G = H - T*S

Total enthalpy                    ...   -136.27194434 Eh 
Total entropy correction          ...     -0.02397144 Eh    -15.04 kcal/mol
-----------------------------------------------------------------------
Final Gibbs free energy         ...   -136.29591577 Eh

For completeness - the Gibbs free energy minus the electronic energy
G-E(el)                           ...     -0.01555391 Eh     -9.76 kcal/mol


Total Time for Numerical Frequencies  :        15.710 sec

Timings for individual modules:

Sum of individual times         ...       20.775 sec (=   0.346 min)
GTO integral calculation        ...        4.371 sec (=   0.073 min)  21.0 %
SCF iterations                  ...       11.940 sec (=   0.199 min)  57.5 %
SCF Gradient evaluation         ...        4.168 sec (=   0.069 min)  20.1 %
Geometry relaxation             ...        0.296 sec (=   0.005 min)   1.4 %
                             ****ORCA TERMINATED NORMALLY****
TOTAL RUN TIME: 0 days 0 hours 0 minutes 34 seconds 926 msec
