
                                 *****************
                                 * O   R   C   A *
                                 *****************

           --- An Ab Initio, DFT and Semiempirical electronic structure package ---

                  #######################################################
                  #                        -***-                        #
                  #          Department of theory and spectroscopy      #
                  #               Directorship: Frank Neese             #
                  #        Max Planck Institute fuer Kohlenforschung    #
                  #                Kaiser Wilhelm Platz 1               #
                  #                 D-45470 Muelheim/Ruhr               #
                  #                      Germany                        #
                  #                                                     #
                  #                  All rights reserved                #
                  #                        -***-                        #
                  #######################################################


                         Program Version 4.2.0 -  RELEASE  -


 With contributions from (in alphabetic order):
   Daniel Aravena         : Magnetic Suceptibility
   Michael Atanasov       : Ab Initio Ligand Field Theory (pilot matlab implementation)
   Alexander A. Auer      : GIAO ZORA, VPT2
   Ute Becker             : Parallelization
   Giovanni Bistoni       : ED, misc. LED, open-shell LED, HFLED
   Martin Brehm           : Molecular dynamics
   Dmytro Bykov           : SCF Hessian
   Vijay G. Chilkuri      : MRCI spin determinant printing, contributions to CSF-ICE
   Dipayan Datta          : RHF DLPNO-CCSD density
   Achintya Kumar Dutta   : EOM-CC, STEOM-CC
   Dmitry Ganyushin       : Spin-Orbit,Spin-Spin,Magnetic field MRCI
   Miquel Garcia          : C-PCM Hessian, Gaussian charge scheme
   Yang Guo               : DLPNO-NEVPT2, CIM, IAO-localization
   Andreas Hansen         : Spin unrestricted coupled pair/coupled cluster methods
   Benjamin Helmich-Paris : CASSCF linear response (MC-RPA)
   Lee Huntington         : MR-EOM, pCC
   Robert Izsak           : Overlap fitted RIJCOSX, COSX-SCS-MP3, EOM
   Christian Kollmar      : KDIIS, OOCD, Brueckner-CCSD(T), CCSD density
   Simone Kossmann        : Meta GGA functionals, TD-DFT gradient, OOMP2, MP2 Hessian
   Martin Krupicka        : AUTO-CI
   Lucas Lang             : DCDCAS
   Dagmar Lenk            : GEPOL surface, SMD
   Dimitrios Liakos       : Extrapolation schemes; Compound Job, initial MDCI parallelization
   Dimitrios Manganas     : Further ROCIS development; embedding schemes
   Dimitrios Pantazis     : SARC Basis sets
   Taras Petrenko         : DFT Hessian,TD-DFT gradient, ASA, ECA, R-Raman, ABS, FL, XAS/XES, NRVS
   Peter Pinski           : DLPNO-MP2, DLPNO-MP2 Gradient
   Christoph Reimann      : Effective Core Potentials
   Marius Retegan         : Local ZFS, SOC
   Christoph Riplinger    : Optimizer, TS searches, QM/MM, DLPNO-CCSD(T), (RO)-DLPNO pert. Triples
   Tobias Risthaus        : Range-separated hybrids, TD-DFT gradient, RPA, STAB
   Michael Roemelt        : Original ROCIS implementation
   Masaaki Saitow         : Open-shell DLPNO-CCSD energy and density
   Barbara Sandhoefer     : DKH picture change effects
   Avijit Sen             : IP-ROCIS
   Kantharuban Sivalingam : CASSCF convergence, NEVPT2, FIC-MRCI
   Bernardo de Souza      : ESD, SOC TD-DFT
   Georgi Stoychev        : AutoAux, RI-MP2 NMR
   Willem Van den Heuvel  : Paramagnetic NMR
   Boris Wezisla          : Elementary symmetry handling
   Frank Wennmohs         : Technical directorship


 We gratefully acknowledge several colleagues who have allowed us to
 interface, adapt or use parts of their codes:
   Stefan Grimme, W. Hujo, H. Kruse,             : VdW corrections, initial TS optimization,
                  C. Bannwarth                     DFT functionals, gCP, sTDA/sTD-DF
   Ed Valeev, F. Pavosevic, A. Kumar             : LibInt (2-el integral package), F12 methods
   Garnet Chan, S. Sharma, J. Yang, R. Olivares  : DMRG
   Ulf Ekstrom                                   : XCFun DFT Library
   Mihaly Kallay                                 : mrcc  (arbitrary order and MRCC methods)
   Andreas Klamt, Michael Diedenhofen            : otool_cosmo (COSMO solvation model)
   Jiri Pittner, Ondrej Demel                    : Mk-CCSD
   Frank Weinhold                                : gennbo (NPA and NBO analysis)
   Christopher J. Cramer and Donald G. Truhlar   : smd solvation model
   Lars Goerigk                                  : TD-DFT with DH, B97 family of functionals
   V. Asgeirsson, H. Jonsson                     : NEB implementation
   FAccTs GmbH                                   : IRC, NEB, NEB-TS, Multilevel, MM, QM/MM, CI optimization
   S Lehtola, MJT Oliveira, MAL Marques          : LibXC Library


 Your calculation uses the libint2 library for the computation of 2-el integrals
 For citations please refer to: http://libint.valeyev.net

 Your ORCA version has been built with support for libXC version: 4.2.3
 For citations please refer to: https://tddft.org/programs/libxc/

 This ORCA versions uses:
   CBLAS   interface :  Fast vector & matrix operations
   LAPACKE interface :  Fast linear algebra routines
   SCALAPACK package :  Parallel linear algebra routines


Your calculation utilizes the atom-pairwise dispersion correction
with the Becke-Johnson damping scheme (D3BJ)
Cite in your paper:
S.Grimme, S.Ehrlich, L.Goerigk, J Comput Chem, (2011), 32, 1456–1465 
S.Grimme, J.Antony, S.Ehrlich and H.Krieg, J.Chem.Phys., 132, (2010), 154104 
   

----- Orbital basis set information -----
Your calculation utilizes the basis: def2-TZVPPD
   F. Weigend and R. Ahlrichs, Phys. Chem. Chem. Phys. 7, 3297 (2005).
   D. Rappoport and F. Furche, J. Chem. Phys. 133 134105 (2010).

----- AuxJK basis set information -----
Your calculation utilizes the auxiliary basis: def2/JK
   H-Ba, Hf-Rn: F. Weigend, J. Comput. Chem. 29, 167 (2008).

cite the ECPs for Au [Def2-ECP] as follows:
Ce-Yb(ecp-28): M. Dolg, H. Stoll, H.Preuss, J. Chem. Phys., 1989, 90, 1730-1734.
Y-Cd(ecp-28), Hf-Hg(ecp-46): D. Andrae,U. Haeussermann, M. Dolg, H. Stoll, H. Preuss, Theor. Chim. Acta, 1990, 77, 123-141.
In-Sb(ecp-28), Tl-Bi(ecp-46): B. Metz, H. Stoll, M. Dolg, J. Chem. Phys., 2000, 113, 2563-2569.
Te-Xe(ecp-28), Po-Rn(ecp-46): K. A. Peterson, D. Figgen, E. Goll, H. Stoll, M. Dolg, J. Chem. Phys., 2003, 119, 11113-11123.
Rb(ecp-28), Cs(ecp-46): T. Leininger, A. Nicklass, W. Kuechle, H. Stoll, M. Dolg, A. Bergner, Chem. Phys. Lett., 1996, 255, 274-280.
Sr(ecp-28), Ba(ecp-46): M. Kaupp, P. V. Schleyer, H. Stoll and H. Preuss, J. Chem. Phys., 1991, 94, 1360-1366.
La(ecp-46): M. Dolg, H. Stoll, A. Savin, H. Preuss, Theor. Chim. Acta, 1989, 75, 173-194.
Lu(ecp-28): X. Cao, M. Dolg, J. Chem. Phys., 2001, 115, 7348-7355.

ECP parameters for Au [Def2-ECP] have been obtained from:
TURBOMOLE (7.0.2)

================================================================================
                                        WARNINGS
                       Please study these warnings very carefully!
================================================================================


WARNING: your system is open-shell and RHF/RKS was chosen
  ===> : WILL SWITCH to UHF/UKS


WARNING: Geometry Optimization
  ===> : Switching off AutoStart
         For restart on a previous wavefunction, please use MOREAD

INFO   : the flag for use of LIBINT has been found!

================================================================================
                                       INPUT FILE
================================================================================
NAME = Au03N0_LIN.in
|  1> #
|  2> # Au03N0_LIN TPSSh-D3BJ/Def2-TZVPPD
|  3> #
|  4> ! tpssh d3bj def2-tzvppd def2/jk grid4 nofinalgrid opt xyzfile numfreq
|  5> 
|  6> *xyz 0 2
|  7> Au       0.000000    0.000000    0.000000 
|  8> Au       0.000000    0.000000    2.547414 
|  9> Au       0.000000    0.000000   -2.547414 
| 10> *
| 11> 
| 12> %maxcore 5000
| 13> 
| 14> %pal
| 15> nprocs = 24
| 16> end
| 17> 
| 18> 
| 19>                          ****END OF INPUT****
================================================================================

                       *****************************
                       * Geometry Optimization Run *
                       *****************************

Geometry optimization settings:
Update method            Update   .... BFGS
Choice of coordinates    CoordSys .... Z-matrix Internals
Initial Hessian          InHess   .... Almoef's Model

Convergence Tolerances:
Energy Change            TolE     ....  5.0000e-06 Eh
Max. Gradient            TolMAXG  ....  3.0000e-04 Eh/bohr
RMS Gradient             TolRMSG  ....  1.0000e-04 Eh/bohr
Max. Displacement        TolMAXD  ....  4.0000e-03 bohr
RMS Displacement         TolRMSD  ....  2.0000e-03 bohr
Strict Convergence                ....  False
------------------------------------------------------------------------------
                        ORCA OPTIMIZATION COORDINATE SETUP
------------------------------------------------------------------------------

The optimization will be done in new redundant internal coordinates
Making redundant internal coordinates   ...  (new redundants) done
Evaluating the initial hessian          ...  (Almloef) done
Evaluating the coordinates              ...  done
Calculating the B-matrix                .... done
Calculating the G-matrix                .... done
Diagonalizing the G-matrix              .... done
The first mode is                       ....    0
The number of degrees of freedom        ....    4

    -----------------------------------------------------------------
                    Redundant Internal Coordinates


    -----------------------------------------------------------------
         Definition                    Initial Value    Approx d2E/dq
    -----------------------------------------------------------------
      1. B(Au  1,Au  0)                  2.5474         0.017232   
      2. B(Au  2,Au  0)                  2.5474         0.017232   
      3. L(Au  1,Au  0,Au  2, 2)       180.0000         0.163790   
      4. L(Au  1,Au  0,Au  2, 1)       180.0000         0.163790   
    -----------------------------------------------------------------

Number of atoms                         .... 3
Number of degrees of freedom            .... 4

         *************************************************************
         *                GEOMETRY OPTIMIZATION CYCLE   1            *
         *************************************************************
---------------------------------
CARTESIAN COORDINATES (ANGSTROEM)
---------------------------------
  Au     0.000000    0.000000    0.000000
  Au     0.000000    0.000000    2.547414
  Au     0.000000    0.000000   -2.547414

----------------------------
CARTESIAN COORDINATES (A.U.)
----------------------------
  NO LB      ZA    FRAG     MASS         X           Y           Z
   0 Au   19.0000*   0   196.966    0.000000    0.000000    0.000000
   1 Au   19.0000*   0   196.966    0.000000    0.000000    4.813915
   2 Au   19.0000*   0   196.966    0.000000    0.000000   -4.813915
* core charge reduced due to ECP

--------------------------------
INTERNAL COORDINATES (ANGSTROEM)
--------------------------------
 Au     0   0   0     0.000000000000     0.00000000     0.00000000
 Au     1   0   0     2.547414000000     0.00000000     0.00000000
 Au     1   2   0     2.547414000000   179.99999915     0.00000000

---------------------------
INTERNAL COORDINATES (A.U.)
---------------------------
 Au     0   0   0     0.000000000000     0.00000000     0.00000000
 Au     1   0   0     4.813914809717     0.00000000     0.00000000
 Au     1   2   0     4.813914809717   179.99999915     0.00000000

---------------------
BASIS SET INFORMATION
---------------------
There are 1 groups of distinct atoms

 Group   1 Type Au  : 8s8p6d2f1g contracted to 6s5p3d2f1g pattern {311111/41111/411/11/1}

Atom   0Au   basis set group =>   1
Atom   1Au   basis set group =>   1
Atom   2Au   basis set group =>   1
----------------------------------
AUXILIARY/JK BASIS SET INFORMATION
----------------------------------
There are 1 groups of distinct atoms

 Group   1 Type Au  : 13s12p11d9f5g3h2i contracted to 13s11p10d8f4g3h2i pattern {1111111111111/21111111111/2111111111/21111111/2111/111/11}

Atom   0Au   basis set group =>   1
Atom   1Au   basis set group =>   1
Atom   2Au   basis set group =>   1
-------------------------
ECP PARAMETER INFORMATION
-------------------------

 Group 1, Type Au ECP Def2-ECP (replacing 60 core electrons, lmax=3)

Atom   0Au   ECP group =>   1
Atom   1Au   ECP group =>   1
Atom   2Au   ECP group =>   1



           ************************************************************
           *        Program running with 24 parallel MPI-processes    *
           *              working on a common directory               *
           ************************************************************
------------------------------------------------------------------------------
                           ORCA GTO INTEGRAL CALCULATION
------------------------------------------------------------------------------

                         BASIS SET STATISTICS AND STARTUP INFO

 # of primitive gaussian shells          ...   75
 # of primitive gaussian functions       ...  255
 # of contracted shells                  ...   51
 # of contracted basis functions         ...  177
 Highest angular momentum                ...    4
 Maximum contraction depth               ...    4
 Integral package used                   ... LIBINT
 Integral threshhold            Thresh   ...  2.500e-11
 Primitive cut-off              TCut     ...  2.500e-12


------------------------------ INTEGRAL EVALUATION ----------------------------


 * One electron integrals 

   ECP integrals                         ... done
 Pre-screening matrix                    ... done
 Shell pair data                         ... done (   0.000 sec)



           ************************************************************
           *        Program running with 24 parallel MPI-processes    *
           *              working on a common directory               *
           ************************************************************
-------------------------------------------------------------------------------
                                 ORCA SCF
-------------------------------------------------------------------------------

------------
SCF SETTINGS
------------
Hamiltonian:
 Density Functional     Method          .... DFT(GTOs)
 Exchange Functional    Exchange        .... TPSS
 Correlation Functional Correlation     .... TPSS
 LDA part of GGA corr.  LDAOpt          .... PW91-LDA
 Gradients option       PostSCFGGA      .... off
 Hybrid DFT is turned on
   Fraction HF Exchange ScalHFX         ....  0.100000
   Scaling of DF-GGA-X  ScalDFX         ....  0.900000
   Scaling of DF-GGA-C  ScalDFC         ....  1.000000
   Scaling of DF-LDA-C  ScalLDAC        ....  1.000000
   Perturbative correction              ....  0.000000
   Density functional embedding theory  .... OFF
   NL short-range parameter             ....  5.200000


General Settings:
 Integral files         IntName         .... Au03N0_LIN
 Hartree-Fock type      HFTyp           .... UHF
 Total Charge           Charge          ....    0
 Multiplicity           Mult            ....    2
 Number of Electrons    NEL             ....   57
 Basis Dimension        Dim             ....  177
 Nuclear Repulsion      ENuc            ....    187.4773517342 Eh

Convergence Acceleration:
 DIIS                   CNVDIIS         .... on
   Start iteration      DIISMaxIt       ....    12
   Startup error        DIISStart       ....  0.200000
   # of expansion vecs  DIISMaxEq       ....     5
   Bias factor          DIISBfac        ....   1.050
   Max. coefficient     DIISMaxC        ....  10.000
 Newton-Raphson         CNVNR           .... off
 SOSCF                  CNVSOSCF        .... off
 Level Shifting         CNVShift        .... on
   Level shift para.    LevelShift      ....    0.2500
   Turn off err/grad.   ShiftErr        ....    0.0010
 Zerner damping         CNVZerner       .... off
 Static damping         CNVDamp         .... on
   Fraction old density DampFac         ....    0.7000
   Max. Damping (<1)    DampMax         ....    0.9800
   Min. Damping (>=0)   DampMin         ....    0.0000
   Turn off err/grad.   DampErr         ....    0.1000
 Fernandez-Rico         CNVRico         .... off

SCF Procedure:
 Maximum # iterations   MaxIter         ....   125
 SCF integral mode      SCFMode         .... Direct
   Integral package                     .... LIBINT
 Reset frequency        DirectResetFreq ....    20
 Integral Threshold     Thresh          ....  2.500e-11 Eh
 Primitive CutOff       TCut            ....  2.500e-12 Eh

Convergence Tolerance:
 Convergence Check Mode ConvCheckMode   .... Total+1el-Energy
 Convergence forced     ConvForced      .... 0
 Energy Change          TolE            ....  1.000e-08 Eh
 1-El. energy change                    ....  1.000e-05 Eh
 DIIS Error             TolErr          ....  5.000e-07


Diagonalization of the overlap matrix:
Smallest eigenvalue                        ... 7.322e-04
Time for diagonalization                   ...    0.007 sec
Threshold for overlap eigenvalues          ... 1.000e-08
Number of eigenvalues below threshold      ... 0
Time for construction of square roots      ...    0.003 sec
Total time needed                          ...    0.011 sec

-------------------
DFT GRID GENERATION
-------------------

General Integration Accuracy     IntAcc      ...  4.670
Radial Grid Type                 RadialGrid  ... Gauss-Chebyshev
Angular Grid (max. acc.)         AngularGrid ... Lebedev-302
Angular grid pruning method      GridPruning ... 3 (G Style)
Weight generation scheme         WeightScheme... Becke
Basis function cutoff            BFCut       ...    1.0000e-11
Integration weight cutoff        WCut        ...    1.0000e-14
Grids for H and He will be reduced by one unit

# of grid points (after initial pruning)     ...  34956 (   0.0 sec)
# of grid points (after weights+screening)   ...  34728 (   0.0 sec)
nearest neighbour list constructed           ...    0.0 sec
Grid point re-assignment to atoms done       ...    0.0 sec
Grid point division into batches done        ...    0.3 sec
Reduced shell lists constructed in    0.3 sec

Total number of grid points                  ...    34728
Total number of batches                      ...      544
Average number of points per batch           ...       63
Average number of grid points per atom       ...    11576
Average number of shells per batch           ...    14.96 (29.33%)
Average number of basis functions per batch  ...    47.62 (26.91%)
Average number of large shells per batch     ...    10.42 (69.64%)
Average number of large basis fcns per batch ...    28.58 (60.02%)
Maximum spatial batch extension              ...  37.74, 37.74,  4.80 au
Average spatial batch extension              ...   0.53,  0.53,  0.19 au

Time for grid setup =    0.368 sec

------------------------------
INITIAL GUESS: MODEL POTENTIAL
------------------------------
Loading Hartree-Fock densities                     ... done
  calling /sw/apps/orca/orca_4_2_0_linux_x86-64_openmpi314/orca Au03N0_LIN_atom79.inp > Au03N0_LIN_atom79.out in order to generate an atomic fitting density for atom 0 (Au with ECP) on-the-fly... 
    atom 0 (Au), assumed electronic state with S=2: 1s2 2s2 2p6 3s2 3p6 4s2 3d10 4p6 5s2 4d10 5p6 6s1 4f14 5d10           ... done
Calculating cut-offs                               ... done
Setting up the integral package                    ... done
Initializing the effective Hamiltonian             ... done
Starting the Coulomb interaction                   ... done (   0.0 sec)
Reading the grid                                   ... done
Mapping shells                                     ... done
Starting the XC term evaluation                    ... done (   0.0 sec)
  promolecular density results
     # of electrons  =    237.007936022
     EX              =  -1097.391673668
     EC              =    -14.469987343
     EX+EC           =  -1111.861661012
Transforming the Hamiltonian                       ... done (   0.0 sec)
Diagonalizing the Hamiltonian                      ... done (   0.0 sec)
Back transforming the eigenvectors                 ... done (   0.0 sec)
Now organizing SCF variables                       ... done
                      ------------------
                      INITIAL GUESS DONE (   1.4 sec)
                      ------------------
--------------
SCF ITERATIONS
--------------
ITER       Energy         Delta-E        Max-DP      RMS-DP      [F,P]     Damp
               ***  Starting incremental Fock matrix formation  ***
  0   -406.7900200985   0.000000000000 0.14232133  0.00198774  0.5830057 0.7000
  1   -406.9287355383  -0.138715439753 0.09083288  0.00131782  0.3999213 0.7000
  2   -406.9822618266  -0.053526288308 0.05292211  0.00074313  0.2739337 0.7000
                               ***Turning on DIIS***
  3   -407.0180654772  -0.035803650580 0.03415042  0.00045990  0.1893999 0.7000
  4   -407.0448545180  -0.026789040838 0.02685170  0.00032234  0.1319345 0.7000
  5   -407.0637393039  -0.018884785926 0.06274190  0.00080006  0.0927721 0.0000
  6   -407.1079235879  -0.044184283912 0.00367044  0.00006164  0.0018572 0.0000
  7   -407.1080238301  -0.000100242273 0.00226728  0.00004024  0.0015096 0.0000
  8   -407.1080775202  -0.000053690099 0.00202786  0.00003325  0.0011141 0.0000
  9   -407.1081121802  -0.000034659985 0.00511595  0.00007853  0.0009322 0.0000
 10   -407.1081540768  -0.000041896605 0.00063028  0.00000969  0.0003870 0.0000
 11   -407.1081555984  -0.000001521631 0.00039191  0.00000535  0.0001211 0.0000
 12   -407.1081558194  -0.000000220928 0.00009647  0.00000158  0.0000843 0.0000
 13   -407.1081558418  -0.000000022455 0.00003249  0.00000061  0.0000401 0.0000
 14   -407.1081558521  -0.000000010279 0.00002838  0.00000035  0.0000133 0.0000
 15   -407.1081558539  -0.000000001830 0.00000669  0.00000013  0.0000024 0.0000
                 **** Energy Check signals convergence ****

               *****************************************************
               *                     SUCCESS                       *
               *           SCF CONVERGED AFTER  16 CYCLES          *
               *****************************************************


----------------
TOTAL SCF ENERGY
----------------

Total Energy       :         -407.10815585 Eh          -11077.97611 eV

Components:
Nuclear Repulsion  :          187.47735173 Eh            5101.51810 eV
Electronic Energy  :         -594.58550759 Eh          -16179.49421 eV
One Electron Energy:        -1090.54202301 Eh          -29675.15710 eV
Two Electron Energy:          495.95651542 Eh           13495.66289 eV

Virial components:
Potential Energy   :         -544.71073605 Eh          -14822.33268 eV
Kinetic Energy     :          137.60258019 Eh            3744.35657 eV
Virial Ratio       :            3.95857938


DFT components:
N(Alpha)           :       28.999995878418 electrons
N(Beta)            :       27.999995762747 electrons
N(Total)           :       56.999991641165 electrons
E(X)               :      -32.384221350553 Eh       
E(C)               :       -2.428678585518 Eh       
E(XC)              :      -34.812899936071 Eh       
DFET-embed. en.    :        0.000000000000 Eh       

---------------
SCF CONVERGENCE
---------------

  Last Energy change         ...    6.0550e-10  Tolerance :   1.0000e-08
  Last MAX-Density change    ...    1.7993e-06  Tolerance :   1.0000e-07
  Last RMS-Density change    ...    2.5889e-08  Tolerance :   5.0000e-09
  Last DIIS Error            ...    1.2047e-06  Tolerance :   5.0000e-07

             **** THE GBW FILE WAS UPDATED (Au03N0_LIN.gbw) ****
             **** DENSITY FILE WAS UPDATED (Au03N0_LIN.scfp) ****
             **** ENERGY FILE WAS UPDATED (Au03N0_LIN.en.tmp) ****
----------------------
UHF SPIN CONTAMINATION
----------------------

Warning: in a DFT calculation there is little theoretical justification to 
         calculate <S**2> as in Hartree-Fock theory. We will do it anyways
         but you should keep in mind that the values have only limited relevance

Expectation value of <S**2>     :     0.756584
Ideal value S*(S+1) for S=0.5   :     0.750000
Deviation                       :     0.006584

             **** THE GBW FILE WAS UPDATED (Au03N0_LIN.gbw) ****
             **** DENSITY FILE WAS UPDATED (Au03N0_LIN.scfp) ****
----------------
ORBITAL ENERGIES
----------------
                 SPIN UP ORBITALS
  NO   OCC          E(Eh)            E(eV) 
   0   1.0000      -4.091247      -111.3285 
   1   1.0000      -4.091238      -111.3283 
   2   1.0000      -4.078354      -110.9777 
   3   1.0000      -2.291038       -62.3423 
   4   1.0000      -2.287863       -62.2559 
   5   1.0000      -2.279657       -62.0326 
   6   1.0000      -2.279657       -62.0326 
   7   1.0000      -2.279635       -62.0320 
   8   1.0000      -2.279635       -62.0320 
   9   1.0000      -2.274326       -61.8876 
  10   1.0000      -2.263963       -61.6056 
  11   1.0000      -2.263963       -61.6056 
  12   1.0000      -0.378194       -10.2912 
  13   1.0000      -0.327597        -8.9144 
  14   1.0000      -0.327597        -8.9144 
  15   1.0000      -0.303060        -8.2467 
  16   1.0000      -0.297619        -8.0986 
  17   1.0000      -0.297619        -8.0986 
  18   1.0000      -0.290302        -7.8995 
  19   1.0000      -0.290290        -7.8992 
  20   1.0000      -0.287755        -7.8302 
  21   1.0000      -0.287743        -7.8299 
  22   1.0000      -0.265341        -7.2203 
  23   1.0000      -0.262758        -7.1500 
  24   1.0000      -0.262742        -7.1496 
  25   1.0000      -0.245818        -6.6891 
  26   1.0000      -0.245818        -6.6891 
  27   1.0000      -0.239982        -6.5302 
  28   1.0000      -0.236205        -6.4275 
  29   0.0000      -0.110856        -3.0165 
  30   0.0000      -0.041868        -1.1393 
  31   0.0000      -0.041868        -1.1393 
  32   0.0000      -0.020165        -0.5487 
  33   0.0000      -0.002259        -0.0615 
  34   0.0000      -0.002259        -0.0615 
  35   0.0000       0.068592         1.8665 
  36   0.0000       0.068592         1.8665 
  37   0.0000       0.074087         2.0160 
  38   0.0000       0.095006         2.5852 
  39   0.0000       0.128624         3.5000 
  40   0.0000       0.161204         4.3866 
  41   0.0000       0.161204         4.3866 
  42   0.0000       0.167584         4.5602 
  43   0.0000       0.194068         5.2809 
  44   0.0000       0.194068         5.2809 
  45   0.0000       0.212986         5.7956 
  46   0.0000       0.248439         6.7604 
  47   0.0000       0.248439         6.7604 
  48   0.0000       0.266061         7.2399 
  49   0.0000       0.266063         7.2399 
  50   0.0000       0.277300         7.5457 
  51   0.0000       0.297272         8.0892 
  52   0.0000       0.297275         8.0893 
  53   0.0000       0.314635         8.5616 
  54   0.0000       0.325108         8.8466 
  55   0.0000       0.325108         8.8466 
  56   0.0000       0.385518        10.4905 
  57   0.0000       0.385524        10.4906 
  58   0.0000       0.394499        10.7349 
  59   0.0000       0.420042        11.4299 
  60   0.0000       0.420042        11.4299 
  61   0.0000       0.505869        13.7654 
  62   0.0000       0.551069        14.9954 
  63   0.0000       0.551069        14.9954 
  64   0.0000       0.584390        15.9020 
  65   0.0000       0.625079        17.0093 
  66   0.0000       0.814133        22.1537 
  67   0.0000       0.914825        24.8937 
  68   0.0000       0.914825        24.8937 
  69   0.0000       1.017981        27.7007 
  70   0.0000       1.025465        27.9043 
  71   0.0000       1.025467        27.9044 
  72   0.0000       1.030841        28.0506 
  73   0.0000       1.030841        28.0506 
  74   0.0000       1.052830        28.6490 
  75   0.0000       1.052830        28.6490 
  76   0.0000       1.095586        29.8124 
  77   0.0000       1.095586        29.8124 
  78   0.0000       1.098880        29.9020 
  79   0.0000       1.098880        29.9020 
  80   0.0000       1.102810        30.0090 
  81   0.0000       1.102810        30.0090 
  82   0.0000       1.113466        30.2990 
  83   0.0000       1.113469        30.2990 
  84   0.0000       1.135888        30.9091 
  85   0.0000       1.135888        30.9091 
  86   0.0000       1.157077        31.4857 
  87   0.0000       1.208593        32.8875 
  88   0.0000       1.208594        32.8875 
  89   0.0000       1.229694        33.4617 
  90   0.0000       1.229694        33.4617 
  91   0.0000       1.254754        34.1436 
  92   0.0000       1.376938        37.4684 
  93   0.0000       1.376938        37.4684 
  94   0.0000       1.413646        38.4673 
  95   0.0000       1.413646        38.4673 
  96   0.0000       1.419011        38.6132 
  97   0.0000       1.440015        39.1848 
  98   0.0000       1.443564        39.2814 
  99   0.0000       1.443578        39.2818 
 100   0.0000       1.460792        39.7502 
 101   0.0000       1.460803        39.7505 
 102   0.0000       1.501687        40.8630 
 103   0.0000       1.524194        41.4754 
 104   0.0000       1.524213        41.4759 
 105   0.0000       1.622957        44.1629 
 106   0.0000       1.622957        44.1629 
 107   0.0000       1.708598        46.4933 
 108   0.0000       1.708598        46.4933 
 109   0.0000       1.882079        51.2140 
 110   0.0000       2.027836        55.1802 
 111   0.0000       2.105430        57.2917 
 112   0.0000       2.386491        64.9397 
 113   0.0000       2.751496        74.8720 
 114   0.0000       3.454246        93.9948 
 115   0.0000       3.454246        93.9948 
 116   0.0000       3.483788        94.7987 
 117   0.0000       3.483993        94.8043 
 118   0.0000       3.548112        96.5490 
 119   0.0000       3.548112        96.5490 
 120   0.0000       3.552576        96.6705 
 121   0.0000       3.552576        96.6705 
 122   0.0000       3.556796        96.7853 
 123   0.0000       3.556972        96.7901 
 124   0.0000       3.577109        97.3381 
 125   0.0000       3.577109        97.3381 
 126   0.0000       3.620772        98.5262 
 127   0.0000       3.620772        98.5262 
 128   0.0000       3.651846        99.3718 
 129   0.0000       3.652091        99.3784 
 130   0.0000       3.701044       100.7105 
 131   0.0000       3.767881       102.5292 
 132   0.0000       3.857398       104.9651 
 133   0.0000       3.857398       104.9651 
 134   0.0000       3.957267       107.6827 
 135   0.0000       4.096650       111.4755 
 136   0.0000       4.097925       111.5102 
 137   0.0000       4.097925       111.5102 
 138   0.0000       4.103185       111.6534 
 139   0.0000       4.103303       111.6565 
 140   0.0000       4.108805       111.8063 
 141   0.0000       4.108805       111.8063 
 142   0.0000       4.108907       111.8090 
 143   0.0000       4.108907       111.8090 
 144   0.0000       4.109359       111.8213 
 145   0.0000       4.109459       111.8241 
 146   0.0000       4.111822       111.8884 
 147   0.0000       4.111822       111.8884 
 148   0.0000       4.112402       111.9042 
 149   0.0000       4.112402       111.9042 
 150   0.0000       4.129099       112.3585 
 151   0.0000       4.129262       112.3629 
 152   0.0000       4.129347       112.3652 
 153   0.0000       4.129347       112.3652 
 154   0.0000       4.136656       112.5641 
 155   0.0000       4.137484       112.5867 
 156   0.0000       4.187175       113.9388 
 157   0.0000       4.187175       113.9388 
 158   0.0000       4.201128       114.3185 
 159   0.0000       4.201128       114.3185 
 160   0.0000       4.420786       120.2957 
 161   0.0000       4.430557       120.5616 
 162   0.0000      27.170423       739.3448 
 163   0.0000      27.170423       739.3448 
 164   0.0000      27.498121       748.2619 
 165   0.0000      27.498121       748.2619 
 166   0.0000      27.737834       754.7848 
 167   0.0000      27.737834       754.7848 
 168   0.0000      28.069186       763.8014 
 169   0.0000      28.457166       774.3589 
 170   0.0000      31.351107       853.1070 
 171   0.0000      43.887476      1194.2389 
 172   0.0000      44.184226      1202.3139 
 173   0.0000      44.586255      1213.2537 
 174   0.0000     205.070509      5580.2522 
 175   0.0000     205.197134      5583.6979 
 176   0.0000     205.375300      5588.5460 

                 SPIN DOWN ORBITALS
  NO   OCC          E(Eh)            E(eV) 
   0   1.0000      -4.090363      -111.3044 
   1   1.0000      -4.090353      -111.3042 
   2   1.0000      -4.078626      -110.9851 
   3   1.0000      -2.290211       -62.3198 
   4   1.0000      -2.286779       -62.2264 
   5   1.0000      -2.279276       -62.0222 
   6   1.0000      -2.279276       -62.0222 
   7   1.0000      -2.279245       -62.0214 
   8   1.0000      -2.279245       -62.0214 
   9   1.0000      -2.274382       -61.8891 
  10   1.0000      -2.264433       -61.6184 
  11   1.0000      -2.264433       -61.6184 
  12   1.0000      -0.374795       -10.1987 
  13   1.0000      -0.324004        -8.8166 
  14   1.0000      -0.324004        -8.8166 
  15   1.0000      -0.299604        -8.1526 
  16   1.0000      -0.292496        -7.9592 
  17   1.0000      -0.292496        -7.9592 
  18   1.0000      -0.283622        -7.7177 
  19   1.0000      -0.283609        -7.7174 
  20   1.0000      -0.280192        -7.6244 
  21   1.0000      -0.280181        -7.6241 
  22   1.0000      -0.262211        -7.1351 
  23   1.0000      -0.262195        -7.1347 
  24   1.0000      -0.246837        -6.7168 
  25   1.0000      -0.244097        -6.6422 
  26   1.0000      -0.244097        -6.6422 
  27   1.0000      -0.238914        -6.5012 
  28   0.0000      -0.198915        -5.4128 
  29   0.0000      -0.100132        -2.7247 
  30   0.0000      -0.033023        -0.8986 
  31   0.0000      -0.033023        -0.8986 
  32   0.0000      -0.009725        -0.2646 
  33   0.0000       0.009937         0.2704 
  34   0.0000       0.009937         0.2704 
  35   0.0000       0.073241         1.9930 
  36   0.0000       0.073241         1.9930 
  37   0.0000       0.082188         2.2365 
  38   0.0000       0.104883         2.8540 
  39   0.0000       0.131642         3.5822 
  40   0.0000       0.170174         4.6307 
  41   0.0000       0.170174         4.6307 
  42   0.0000       0.173879         4.7315 
  43   0.0000       0.208243         5.6666 
  44   0.0000       0.208243         5.6666 
  45   0.0000       0.219432         5.9710 
  46   0.0000       0.255716         6.9584 
  47   0.0000       0.255716         6.9584 
  48   0.0000       0.271380         7.3846 
  49   0.0000       0.271383         7.3847 
  50   0.0000       0.286186         7.7875 
  51   0.0000       0.306126         8.3301 
  52   0.0000       0.306128         8.3302 
  53   0.0000       0.320096         8.7103 
  54   0.0000       0.332350         9.0437 
  55   0.0000       0.332350         9.0437 
  56   0.0000       0.389778        10.6064 
  57   0.0000       0.389783        10.6065 
  58   0.0000       0.400275        10.8920 
  59   0.0000       0.427754        11.6398 
  60   0.0000       0.427754        11.6398 
  61   0.0000       0.515090        14.0163 
  62   0.0000       0.557299        15.1649 
  63   0.0000       0.557299        15.1649 
  64   0.0000       0.591711        16.1013 
  65   0.0000       0.626463        17.0469 
  66   0.0000       0.821361        22.3504 
  67   0.0000       0.920233        25.0408 
  68   0.0000       0.920233        25.0408 
  69   0.0000       1.022733        27.8300 
  70   0.0000       1.032491        28.0955 
  71   0.0000       1.032491        28.0955 
  72   0.0000       1.038578        28.2612 
  73   0.0000       1.038579        28.2612 
  74   0.0000       1.061567        28.8867 
  75   0.0000       1.061567        28.8867 
  76   0.0000       1.097014        29.8513 
  77   0.0000       1.097014        29.8513 
  78   0.0000       1.110541        30.2194 
  79   0.0000       1.110541        30.2194 
  80   0.0000       1.116675        30.3863 
  81   0.0000       1.116675        30.3863 
  82   0.0000       1.124020        30.5861 
  83   0.0000       1.124021        30.5862 
  84   0.0000       1.137752        30.9598 
  85   0.0000       1.137752        30.9598 
  86   0.0000       1.160924        31.5904 
  87   0.0000       1.212970        33.0066 
  88   0.0000       1.212971        33.0066 
  89   0.0000       1.237045        33.6617 
  90   0.0000       1.237045        33.6617 
  91   0.0000       1.262404        34.3518 
  92   0.0000       1.381144        37.5828 
  93   0.0000       1.381144        37.5828 
  94   0.0000       1.419640        38.6304 
  95   0.0000       1.419640        38.6304 
  96   0.0000       1.422350        38.7041 
  97   0.0000       1.445914        39.3453 
  98   0.0000       1.449450        39.4415 
  99   0.0000       1.449472        39.4421 
 100   0.0000       1.470459        40.0132 
 101   0.0000       1.470484        40.0139 
 102   0.0000       1.507165        41.0120 
 103   0.0000       1.527554        41.5669 
 104   0.0000       1.527576        41.5674 
 105   0.0000       1.629248        44.3341 
 106   0.0000       1.629248        44.3341 
 107   0.0000       1.712163        46.5903 
 108   0.0000       1.712163        46.5903 
 109   0.0000       1.887478        51.3609 
 110   0.0000       2.033848        55.3438 
 111   0.0000       2.108012        57.3619 
 112   0.0000       2.392317        65.0983 
 113   0.0000       2.753727        74.9327 
 114   0.0000       3.455929        94.0406 
 115   0.0000       3.455929        94.0406 
 116   0.0000       3.485415        94.8430 
 117   0.0000       3.485626        94.8487 
 118   0.0000       3.550987        96.6273 
 119   0.0000       3.550987        96.6273 
 120   0.0000       3.556179        96.7686 
 121   0.0000       3.556179        96.7686 
 122   0.0000       3.559745        96.8656 
 123   0.0000       3.559933        96.8707 
 124   0.0000       3.577423        97.3466 
 125   0.0000       3.577423        97.3466 
 126   0.0000       3.623232        98.5932 
 127   0.0000       3.623232        98.5932 
 128   0.0000       3.653237        99.4096 
 129   0.0000       3.653488        99.4165 
 130   0.0000       3.703093       100.7663 
 131   0.0000       3.770123       102.5903 
 132   0.0000       3.859595       105.0249 
 133   0.0000       3.859595       105.0249 
 134   0.0000       3.959641       107.7473 
 135   0.0000       4.098338       111.5214 
 136   0.0000       4.100030       111.5675 
 137   0.0000       4.100030       111.5675 
 138   0.0000       4.105839       111.7256 
 139   0.0000       4.105970       111.7291 
 140   0.0000       4.112322       111.9020 
 141   0.0000       4.112433       111.9050 
 142   0.0000       4.112640       111.9106 
 143   0.0000       4.112640       111.9106 
 144   0.0000       4.112747       111.9135 
 145   0.0000       4.112747       111.9135 
 146   0.0000       4.117082       112.0315 
 147   0.0000       4.117082       112.0315 
 148   0.0000       4.117674       112.0476 
 149   0.0000       4.117674       112.0476 
 150   0.0000       4.128954       112.3545 
 151   0.0000       4.128954       112.3545 
 152   0.0000       4.129043       112.3570 
 153   0.0000       4.129206       112.3614 
 154   0.0000       4.136417       112.5576 
 155   0.0000       4.137246       112.5802 
 156   0.0000       4.189243       113.9951 
 157   0.0000       4.189243       113.9951 
 158   0.0000       4.201405       114.3261 
 159   0.0000       4.201405       114.3261 
 160   0.0000       4.421659       120.3195 
 161   0.0000       4.432081       120.6031 
 162   0.0000      27.172479       739.4008 
 163   0.0000      27.172479       739.4008 
 164   0.0000      27.501311       748.3487 
 165   0.0000      27.501311       748.3487 
 166   0.0000      27.738963       754.8156 
 167   0.0000      27.738963       754.8156 
 168   0.0000      28.071014       763.8511 
 169   0.0000      28.459563       774.4241 
 170   0.0000      31.352577       853.1470 
 171   0.0000      43.887981      1194.2527 
 172   0.0000      44.184900      1202.3322 
 173   0.0000      44.586381      1213.2571 
 174   0.0000     205.070840      5580.2613 
 175   0.0000     205.197620      5583.7111 
 176   0.0000     205.375335      5588.5470 

                    ********************************
                    * MULLIKEN POPULATION ANALYSIS *
                    ********************************

--------------------------------------------
MULLIKEN ATOMIC CHARGES AND SPIN POPULATIONS
--------------------------------------------
   0 Au:   -0.149641    0.001630
   1 Au:    0.074819    0.499184
   2 Au:    0.074822    0.499185
Sum of atomic charges         :    0.0000000
Sum of atomic spin populations:    1.0000000

-----------------------------------------------------
MULLIKEN REDUCED ORBITAL CHARGES AND SPIN POPULATIONS
-----------------------------------------------------
CHARGE
  0 Aus       :     3.179180  s :     3.179180
      pz      :     2.114808  p :     6.155099
      px      :     2.020146
      py      :     2.020146
      dz2     :     1.860771  d :     9.800956
      dxz     :     1.970852
      dyz     :     1.970852
      dx2y2   :     1.999241
      dxy     :     1.999240
      f0      :     0.005584  f :     0.014150
      f+1     :     0.003916
      f-1     :     0.003916
      f+2     :     0.000367
      f-2     :     0.000367
      f+3     :     0.000000
      f-3     :     0.000000
      g0      :     0.000103  g :     0.000257
      g+1     :     0.000066
      g-1     :     0.000066
      g+2     :     0.000011
      g-2     :     0.000011
      g+3     :     0.000000
      g-3     :     0.000000
      g+4     :     0.000000
      g-4     :     0.000000
  1 Aus       :     3.007878  s :     3.007878
      pz      :     2.011395  p :     6.039130
      px      :     2.013868
      py      :     2.013868
      dz2     :     1.897996  d :     9.870917
      dxz     :     1.986506
      dyz     :     1.986506
      dx2y2   :     1.999954
      dxy     :     1.999954
      f0      :     0.002464  f :     0.007135
      f+1     :     0.002104
      f-1     :     0.002104
      f+2     :     0.000232
      f-2     :     0.000232
      f+3     :     0.000000
      f-3     :     0.000000
      g0      :     0.000047  g :     0.000122
      g+1     :     0.000032
      g-1     :     0.000032
      g+2     :     0.000005
      g-2     :     0.000005
      g+3     :     0.000000
      g-3     :     0.000000
      g+4     :     0.000000
      g-4     :     0.000000
  2 Aus       :     3.007875  s :     3.007875
      pz      :     2.011394  p :     6.039129
      px      :     2.013868
      py      :     2.013868
      dz2     :     1.897995  d :     9.870917
      dxz     :     1.986506
      dyz     :     1.986506
      dx2y2   :     1.999954
      dxy     :     1.999954
      f0      :     0.002464  f :     0.007135
      f+1     :     0.002104
      f-1     :     0.002104
      f+2     :     0.000232
      f-2     :     0.000232
      f+3     :     0.000000
      f-3     :     0.000000
      g0      :     0.000047  g :     0.000122
      g+1     :     0.000032
      g-1     :     0.000032
      g+2     :     0.000005
      g-2     :     0.000005
      g+3     :     0.000000
      g-3     :     0.000000
      g+4     :     0.000000
      g-4     :     0.000000

SPIN
  0 Aus       :    -0.053470  s :    -0.053470
      pz      :     0.069973  p :     0.069144
      px      :    -0.000415
      py      :    -0.000415
      dz2     :    -0.006481  d :    -0.014105
      dxz     :    -0.003664
      dyz     :    -0.003664
      dx2y2   :    -0.000148
      dxy     :    -0.000148
      f0      :     0.000069  f :     0.000062
      f+1     :    -0.000005
      f-1     :    -0.000005
      f+2     :     0.000001
      f-2     :     0.000001
      f+3     :    -0.000000
      f-3     :    -0.000000
      g0      :    -0.000001  g :    -0.000001
      g+1     :    -0.000000
      g-1     :    -0.000000
      g+2     :    -0.000000
      g-2     :    -0.000000
      g+3     :    -0.000000
      g-3     :    -0.000000
      g+4     :    -0.000000
      g-4     :     0.000000
  1 Aus       :     0.488242  s :     0.488242
      pz      :    -0.000140  p :     0.003043
      px      :     0.001591
      py      :     0.001591
      dz2     :     0.006850  d :     0.007816
      dxz     :     0.000418
      dyz     :     0.000418
      dx2y2   :     0.000065
      dxy     :     0.000065
      f0      :     0.000005  f :     0.000089
      f+1     :     0.000033
      f-1     :     0.000033
      f+2     :     0.000009
      f-2     :     0.000009
      f+3     :    -0.000000
      f-3     :    -0.000000
      g0      :    -0.000002  g :    -0.000005
      g+1     :    -0.000001
      g-1     :    -0.000001
      g+2     :    -0.000000
      g-2     :    -0.000000
      g+3     :    -0.000000
      g-3     :    -0.000000
      g+4     :    -0.000000
      g-4     :    -0.000000
  2 Aus       :     0.488242  s :     0.488242
      pz      :    -0.000140  p :     0.003043
      px      :     0.001591
      py      :     0.001591
      dz2     :     0.006850  d :     0.007816
      dxz     :     0.000418
      dyz     :     0.000418
      dx2y2   :     0.000065
      dxy     :     0.000065
      f0      :     0.000005  f :     0.000089
      f+1     :     0.000033
      f-1     :     0.000033
      f+2     :     0.000009
      f-2     :     0.000009
      f+3     :    -0.000000
      f-3     :    -0.000000
      g0      :    -0.000002  g :    -0.000005
      g+1     :    -0.000001
      g-1     :    -0.000001
      g+2     :    -0.000000
      g-2     :    -0.000000
      g+3     :    -0.000000
      g-3     :    -0.000000
      g+4     :    -0.000000
      g-4     :    -0.000000


                     *******************************
                     * LOEWDIN POPULATION ANALYSIS *
                     *******************************

-------------------------------------------
LOEWDIN ATOMIC CHARGES AND SPIN POPULATIONS
-------------------------------------------
   0 Au:   -0.185398    0.277780
   1 Au:    0.092699    0.361110
   2 Au:    0.092699    0.361110

----------------------------------------------------
LOEWDIN REDUCED ORBITAL CHARGES AND SPIN POPULATIONS
----------------------------------------------------
CHARGE
  0 Aus       :     2.845540  s :     2.845540
      pz      :     2.379077  p :     6.427812
      px      :     2.024367
      py      :     2.024367
      dz2     :     1.968058  d :     9.885001
      dxz     :     1.959344
      dyz     :     1.959344
      dx2y2   :     1.999128
      dxy     :     1.999128
      f0      :     0.013740  f :     0.026688
      f+1     :     0.005997
      f-1     :     0.005997
      f+2     :     0.000478
      f-2     :     0.000478
      f+3     :     0.000000
      f-3     :     0.000000
      g0      :     0.000147  g :     0.000357
      g+1     :     0.000093
      g-1     :     0.000093
      g+2     :     0.000012
      g-2     :     0.000012
      g+3     :     0.000000
      g-3     :     0.000000
      g+4     :     0.000000
      g-4     :     0.000000
  1 Aus       :     2.850964  s :     2.850964
      pz      :     2.096671  p :     6.135080
      px      :     2.019205
      py      :     2.019205
      dz2     :     1.944386  d :     9.909053
      dxz     :     1.982440
      dyz     :     1.982440
      dx2y2   :     1.999894
      dxy     :     1.999894
      f0      :     0.004626  f :     0.012028
      f+1     :     0.003410
      f-1     :     0.003410
      f+2     :     0.000292
      f-2     :     0.000292
      f+3     :     0.000000
      f-3     :     0.000000
      g0      :     0.000073  g :     0.000176
      g+1     :     0.000046
      g-1     :     0.000046
      g+2     :     0.000006
      g-2     :     0.000006
      g+3     :     0.000000
      g-3     :     0.000000
      g+4     :     0.000000
      g-4     :     0.000000
  2 Aus       :     2.850963  s :     2.850963
      pz      :     2.096671  p :     6.135080
      px      :     2.019205
      py      :     2.019205
      dz2     :     1.944386  d :     9.909053
      dxz     :     1.982440
      dyz     :     1.982440
      dx2y2   :     1.999894
      dxy     :     1.999894
      f0      :     0.004626  f :     0.012028
      f+1     :     0.003410
      f-1     :     0.003410
      f+2     :     0.000292
      f-2     :     0.000292
      f+3     :     0.000000
      f-3     :     0.000000
      g0      :     0.000073  g :     0.000176
      g+1     :     0.000046
      g-1     :     0.000046
      g+2     :     0.000006
      g-2     :     0.000006
      g+3     :     0.000000
      g-3     :     0.000000
      g+4     :     0.000000
      g-4     :     0.000000

SPIN
  0 Aus       :    -0.023050  s :    -0.023050
      pz      :     0.302538  p :     0.302900
      px      :     0.000181
      py      :     0.000181
      dz2     :     0.001713  d :    -0.003444
      dxz     :    -0.002563
      dyz     :    -0.002563
      dx2y2   :    -0.000016
      dxy     :    -0.000016
      f0      :     0.001202  f :     0.001374
      f+1     :     0.000076
      f-1     :     0.000076
      f+2     :     0.000010
      f-2     :     0.000010
      f+3     :    -0.000000
      f-3     :    -0.000000
      g0      :    -0.000002  g :     0.000001
      g+1     :     0.000001
      g-1     :     0.000001
      g+2     :     0.000000
      g-2     :     0.000000
      g+3     :    -0.000000
      g-3     :    -0.000000
      g+4     :    -0.000000
      g-4     :     0.000000
  1 Aus       :     0.350827  s :     0.350827
      pz      :    -0.001117  p :     0.001787
      px      :     0.001452
      py      :     0.001452
      dz2     :     0.009225  d :     0.008585
      dxz     :    -0.000316
      dyz     :    -0.000316
      dx2y2   :    -0.000004
      dxy     :    -0.000004
      f0      :    -0.000133  f :    -0.000083
      f+1     :     0.000018
      f-1     :     0.000018
      f+2     :     0.000007
      f-2     :     0.000007
      f+3     :    -0.000000
      f-3     :    -0.000000
      g0      :    -0.000003  g :    -0.000006
      g+1     :    -0.000001
      g-1     :    -0.000001
      g+2     :    -0.000000
      g-2     :    -0.000000
      g+3     :    -0.000000
      g-3     :    -0.000000
      g+4     :    -0.000000
      g-4     :    -0.000000
  2 Aus       :     0.350827  s :     0.350827
      pz      :    -0.001117  p :     0.001787
      px      :     0.001452
      py      :     0.001452
      dz2     :     0.009225  d :     0.008585
      dxz     :    -0.000316
      dyz     :    -0.000316
      dx2y2   :    -0.000004
      dxy     :    -0.000004
      f0      :    -0.000133  f :    -0.000083
      f+1     :     0.000018
      f-1     :     0.000018
      f+2     :     0.000007
      f-2     :     0.000007
      f+3     :    -0.000000
      f-3     :    -0.000000
      g0      :    -0.000003  g :    -0.000006
      g+1     :    -0.000001
      g-1     :    -0.000001
      g+2     :    -0.000000
      g-2     :    -0.000000
      g+3     :    -0.000000
      g-3     :    -0.000000
      g+4     :    -0.000000
      g-4     :    -0.000000


                      *****************************
                      * MAYER POPULATION ANALYSIS *
                      *****************************

  NA   - Mulliken gross atomic population
  ZA   - Total nuclear charge
  QA   - Mulliken gross atomic charge
  VA   - Mayer's total valence
  BVA  - Mayer's bonded valence
  FA   - Mayer's free valence

  ATOM       NA         ZA         QA         VA         BVA        FA
  0 Au    19.1496    19.0000    -0.1496     1.4322     1.4242     0.0081
  1 Au    18.9252    19.0000     0.0748     1.2701     1.0134     0.2568
  2 Au    18.9252    19.0000     0.0748     1.2701     1.0134     0.2568

  Mayer bond orders larger than 0.100000
B(  0-Au,  1-Au) :   0.7121 B(  0-Au,  2-Au) :   0.7121 B(  1-Au,  2-Au) :   0.3013 


-------
TIMINGS
-------

Total SCF time: 0 days 0 hours 0 min 8 sec 

Total time                  ....       8.053 sec
Sum of individual times     ....       7.819 sec  ( 97.1%)

Fock matrix formation       ....       6.220 sec  ( 77.2%)
  XC integration            ....       1.124 sec  ( 18.1% of F)
    Basis function eval.    ....       0.062 sec  (  5.5% of XC)
    Density eval.           ....       0.163 sec  ( 14.5% of XC)
    XC-Functional eval.     ....       0.045 sec  (  4.0% of XC)
    XC-Potential eval.      ....       0.347 sec  ( 30.9% of XC)
Diagonalization             ....       0.140 sec  (  1.7%)
Density matrix formation    ....       0.023 sec  (  0.3%)
Population analysis         ....       0.010 sec  (  0.1%)
Initial guess               ....       1.013 sec  ( 12.6%)
Orbital Transformation      ....       0.000 sec  (  0.0%)
Orbital Orthonormalization  ....       0.000 sec  (  0.0%)
DIIS solution               ....       0.045 sec  (  0.6%)
Grid generation             ....       0.368 sec  (  4.6%)


-------------------------------------------------------------------------------
                          DFT DISPERSION CORRECTION                            
                                                                               
                              DFTD3 V3.1  Rev 1                                
                          USING Becke-Johnson damping                          
-------------------------------------------------------------------------------
The TPSSH functional is recognized
Active option DFTDOPT                   ...         4   

molecular C6(AA) [au] = 2858.189807 


            DFT-D V3
 parameters
 s6 scaling factor         :     1.0000 
 a1 scaling factor         :     0.4529 
 s8 scaling factor         :     2.2382 
 a2 scaling factor         :     4.6550 
 ad hoc parameters k1-k3   :    16.0000     1.3333    -4.0000 

 Edisp/kcal,au: -2.966013026467  -0.004726642119 
 E6   /kcal   :  -0.817672200 
 E8   /kcal   :  -2.148340827 
 % E8         :  72.431941718 

-------------------------   ----------------
Dispersion correction           -0.004726642
-------------------------   ----------------


-------------------------   --------------------
FINAL SINGLE POINT ENERGY      -407.112882495448
-------------------------   --------------------



           ************************************************************
           *        Program running with 24 parallel MPI-processes    *
           *              working on a common directory               *
           ************************************************************
------------------------------------------------------------------------------
                         ORCA SCF GRADIENT CALCULATION
------------------------------------------------------------------------------

Gradient of the Kohn-Sham DFT energy:
Kohn-Sham wavefunction type      ... UKS
Hartree-Fock exchange scaling    ...    0.100
Number of operators              ...    2
Number of atoms                  ...    3
Basis set dimensions             ...  177
Integral neglect threshold       ... 2.5e-11
Integral primitive cutoff        ... 2.5e-12

Nuclear repulsion gradient       ... done
One Electron Gradient            
  ECP gradient                   ... done
Pre-screening matrix             ... done
Starting the two electron gradient:
Two electron gradient done
Exchange-correlation gradient    ... done
Dispersion correction            ... done

------------------
CARTESIAN GRADIENT
------------------

   1   Au  :   -0.000000002   -0.000000004   -0.000000088
   2   Au  :    0.000000007    0.000000013   -0.004336403
   3   Au  :    0.000000012   -0.000000007    0.004336400

Difference to translation invariance:
           :    0.0000000173    0.0000000019   -0.0000000900

Norm of the cartesian gradient     ...    0.0061325976
RMS gradient                       ...    0.0020441992
MAX gradient                       ...    0.0043364026

-------
TIMINGS
-------

Total SCF gradient time            ...        3.454 sec

One electron gradient       ....       1.062 sec  ( 30.7%)
Prescreening matrices       ....       0.032 sec  (  0.9%)
Two electron gradient       ....       2.098 sec  ( 60.7%)
XC gradient                 ....       0.066 sec  (  1.9%)
------------------------------------------------------------------------------
                         ORCA GEOMETRY RELAXATION STEP
------------------------------------------------------------------------------

Reading the OPT-File                    .... done
Getting information on internals        .... done
Copying old internal coords+grads       .... done
Making the new internal coordinates     .... (new redundants).... done
Validating the new internal coordinates .... (new redundants).... done
Calculating the B-matrix                .... done
Calculating the G,G- and P matrices     .... done
Transforming gradient to internals      .... done
Projecting the internal gradient        .... done
Number of atoms                         ....   3
Number of internal coordinates          ....   4
Current Energy                          ....  -407.112882495 Eh
Current gradient norm                   ....     0.006132598 Eh/bohr
Maximum allowed component of the step   ....  0.300
Current trust radius                    ....  0.300
Evaluating the initial hessian          ....  (Almloef) done
Projecting the Hessian                  .... done
Forming the augmented Hessian           .... done
Diagonalizing the augmented Hessian     .... done
Last element of RFO vector              ....  0.952550009
Lowest eigenvalues of augmented Hessian:
 -0.001959638  0.017232047  0.019191685  0.163789689
Length of the computed step             ....  0.319544511
Warning: the length of the step is outside the trust region - taking restricted step instead
The input lambda is                     ....    -0.001960
   iter:   1  x=   -0.003098  g=   10.640931 f(x)=     0.012109
   iter:   2  x=   -0.003209  g=    8.952227 f(x)=     0.000998
   iter:   3  x=   -0.003210  g=    8.806599 f(x)=     0.000008
   iter:   4  x=   -0.003210  g=    8.805404 f(x)=     0.000000
   iter:   5  x=   -0.003210  g=    8.805404 f(x)=     0.000000
The output lambda is                    ....    -0.003210 (5 iterations)
The final length of the internal step   ....  0.300000000
Converting the step to cartesian space:
 Initial RMS(Int)=    0.1500000000
Transforming coordinates:
 Iter   0:  RMS(Cart)=    0.0942809042 RMS(Int)=    0.1414213562
 Iter   1:  RMS(Cart)=    0.0057190959 RMS(Int)=    0.0085786438
 Iter   2:  RMS(Cart)=    0.0000000024 RMS(Int)=    0.0000000000
done
Storing new coordinates                 .... done

                                .--------------------.
          ----------------------|Geometry convergence|-------------------------
          Item                value                   Tolerance       Converged
          ---------------------------------------------------------------------
          RMS gradient        0.0030662988            0.0001000000      NO
          MAX gradient        0.0043364302            0.0003000000      NO
          RMS step            0.1500000000            0.0020000000      NO
          MAX step            0.2121334435            0.0040000000      NO
          ........................................................
          Max(Bonds)      0.1123      Max(Angles)    0.00
          Max(Dihed)        0.00      Max(Improp)    0.00
          ---------------------------------------------------------------------

The optimization has not yet converged - more geometry cycles are needed


    ---------------------------------------------------------------------------
                         Redundant Internal Coordinates
                            (Angstroem and degrees)

        Definition                    Value    dE/dq     Step     New-Value
    ----------------------------------------------------------------------------
     1. B(Au  1,Au  0)                2.5474 -0.004336  0.1123    2.6597   
     2. B(Au  2,Au  0)                2.5474 -0.004336  0.1123    2.6597   
     3. L(Au  1,Au  0,Au  2, 2)       180.00  0.000000   -0.00    180.00   
     4. L(Au  1,Au  0,Au  2, 1)       180.00 -0.000000    0.00    180.00   
    ----------------------------------------------------------------------------

         *************************************************************
         *                GEOMETRY OPTIMIZATION CYCLE   2            *
         *************************************************************
---------------------------------
CARTESIAN COORDINATES (ANGSTROEM)
---------------------------------
  Au     0.000000    0.000000    0.000000
  Au    -0.000000   -0.000000    2.659669
  Au    -0.000000   -0.000000   -2.659670

----------------------------
CARTESIAN COORDINATES (A.U.)
----------------------------
  NO LB      ZA    FRAG     MASS         X           Y           Z
   0 Au   19.0000*   0   196.966    0.000000    0.000000    0.000001
   1 Au   19.0000*   0   196.966   -0.000000   -0.000000    5.026046
   2 Au   19.0000*   0   196.966   -0.000000   -0.000000   -5.026047
* core charge reduced due to ECP

--------------------------------
INTERNAL COORDINATES (ANGSTROEM)
--------------------------------
 Au     0   0   0     0.000000000000     0.00000000     0.00000000
 Au     1   0   0     2.659668692043     0.00000000     0.00000000
 Au     1   2   0     2.659670183415   179.99999829     0.00000000

---------------------------
INTERNAL COORDINATES (A.U.)
---------------------------
 Au     0   0   0     0.000000000000     0.00000000     0.00000000
 Au     1   0   0     5.026045434926     0.00000000     0.00000000
 Au     1   2   0     5.026048253211   179.99999829     0.00000000



           ************************************************************
           *        Program running with 24 parallel MPI-processes    *
           *              working on a common directory               *
           ************************************************************


           ************************************************************
           *        Program running with 24 parallel MPI-processes    *
           *              working on a common directory               *
           ************************************************************

Diagonalization of the overlap matrix:
Smallest eigenvalue                        ... 1.004e-03
Time for diagonalization                   ...    0.005 sec
Threshold for overlap eigenvalues          ... 1.000e-08
Number of eigenvalues below threshold      ... 0
Time for construction of square roots      ...    0.004 sec
Total time needed                          ...    0.009 sec

-------------------
DFT GRID GENERATION
-------------------

General Integration Accuracy     IntAcc      ...  4.670
Radial Grid Type                 RadialGrid  ... Gauss-Chebyshev
Angular Grid (max. acc.)         AngularGrid ... Lebedev-302
Angular grid pruning method      GridPruning ... 3 (G Style)
Weight generation scheme         WeightScheme... Becke
Basis function cutoff            BFCut       ...    1.0000e-11
Integration weight cutoff        WCut        ...    1.0000e-14
Grids for H and He will be reduced by one unit

# of grid points (after initial pruning)     ...  34956 (   0.0 sec)
# of grid points (after weights+screening)   ...  34728 (   0.0 sec)
nearest neighbour list constructed           ...    0.0 sec
Grid point re-assignment to atoms done       ...    0.0 sec
Grid point division into batches done        ...    0.3 sec
Reduced shell lists constructed in    0.3 sec

Total number of grid points                  ...    34728
Total number of batches                      ...      543
Average number of points per batch           ...       63
Average number of grid points per atom       ...    11576
Average number of shells per batch           ...    13.54 (26.55%)
Average number of basis functions per batch  ...    41.12 (23.23%)
Average number of large shells per batch     ...    10.33 (76.31%)
Average number of large basis fcns per batch ...    28.17 (68.49%)
Maximum spatial batch extension              ...  37.74, 37.74,  4.83 au
Average spatial batch extension              ...   0.55,  0.55,  0.19 au

Time for grid setup =    0.361 sec

--------------
SCF ITERATIONS
--------------
ITER       Energy         Delta-E        Max-DP      RMS-DP      [F,P]     Damp
               ***  Starting incremental Fock matrix formation  ***
  0   -407.1045114960   0.000000000000 0.00339465  0.00006901  0.1750467 0.7000
  1   -407.1049381530  -0.000426657023 0.00362727  0.00006923  0.1226569 0.7000
                               ***Turning on DIIS***
  2   -407.1052550771  -0.000316924085 0.01011342  0.00019285  0.0858759 0.0000
  3   -407.1060194824  -0.000764405274 0.00228068  0.00003454  0.0010205 0.0000
  4   -407.1060364768  -0.000016994362 0.00104754  0.00001662  0.0011267 0.0000
  5   -407.1060469033  -0.000010426574 0.00206099  0.00002812  0.0003477 0.0000
  6   -407.1060519685  -0.000005065166 0.00041576  0.00000592  0.0001784 0.0000
  7   -407.1060523644  -0.000000395934 0.00020351  0.00000201  0.0000780 0.0000
  8   -407.1060523736  -0.000000009172 0.00010018  0.00000101  0.0001028 0.0000
  9   -407.1060524007  -0.000000027117 0.00003015  0.00000036  0.0000105 0.0000
 10   -407.1060524014  -0.000000000669 0.00000956  0.00000014  0.0000065 0.0000
 11   -407.1060524022  -0.000000000773 0.00000596  0.00000008  0.0000024 0.0000
                            ***DIIS convergence achieved***

               *****************************************************
               *                     SUCCESS                       *
               *           SCF CONVERGED AFTER  12 CYCLES          *
               *****************************************************

Total Energy       :         -407.10605240 Eh          -11077.91888 eV
  Last Energy change         ...   -9.0267e-11  Tolerance :   1.0000e-08
  Last MAX-Density change    ...    3.7799e-06  Tolerance :   1.0000e-07
             **** THE GBW FILE WAS UPDATED (Au03N0_LIN.gbw) ****
             **** DENSITY FILE WAS UPDATED (Au03N0_LIN.scfp) ****
             **** ENERGY FILE WAS UPDATED (Au03N0_LIN.en.tmp) ****
----------------------
UHF SPIN CONTAMINATION
----------------------

Warning: in a DFT calculation there is little theoretical justification to 
         calculate <S**2> as in Hartree-Fock theory. We will do it anyways
         but you should keep in mind that the values have only limited relevance

Expectation value of <S**2>     :     0.758208
Ideal value S*(S+1) for S=0.5   :     0.750000
Deviation                       :     0.008208

             **** THE GBW FILE WAS UPDATED (Au03N0_LIN.gbw) ****
             **** DENSITY FILE WAS UPDATED (Au03N0_LIN.scfp) ****
Total SCF time: 0 days 0 hours 0 min 5 sec 


-------------------------------------------------------------------------------
                          DFT DISPERSION CORRECTION                            
                                                                               
                              DFTD3 V3.1  Rev 1                                
                          USING Becke-Johnson damping                          
-------------------------------------------------------------------------------
-------------------------   ----------------
Dispersion correction           -0.004568763
-------------------------   ----------------


-------------------------   --------------------
FINAL SINGLE POINT ENERGY      -407.110621165551
-------------------------   --------------------



           ************************************************************
           *        Program running with 24 parallel MPI-processes    *
           *              working on a common directory               *
           ************************************************************
------------------------------------------------------------------------------
                         ORCA SCF GRADIENT CALCULATION
------------------------------------------------------------------------------

Gradient of the Kohn-Sham DFT energy:
Kohn-Sham wavefunction type      ... UKS
Hartree-Fock exchange scaling    ...    0.100
Number of operators              ...    2
Number of atoms                  ...    3
Basis set dimensions             ...  177
Integral neglect threshold       ... 2.5e-11
Integral primitive cutoff        ... 2.5e-12

Nuclear repulsion gradient       ... done
One Electron Gradient            
  ECP gradient                   ... done
Pre-screening matrix             ... done
Starting the two electron gradient:
Two electron gradient done
Exchange-correlation gradient    ... done
Dispersion correction            ... done

------------------
CARTESIAN GRADIENT
------------------

   1   Au  :    0.000000014    0.000000007    0.000000145
   2   Au  :   -0.000000025   -0.000000006    0.012379310
   3   Au  :   -0.000000022   -0.000000002   -0.012379482

Difference to translation invariance:
           :   -0.0000000329   -0.0000000010   -0.0000000268

Norm of the cartesian gradient     ...    0.0175071098
RMS gradient                       ...    0.0058357033
MAX gradient                       ...    0.0123794821

-------
TIMINGS
-------

Total SCF gradient time            ...        3.327 sec

One electron gradient       ....       1.002 sec  ( 30.1%)
Prescreening matrices       ....       0.032 sec  (  1.0%)
Two electron gradient       ....       2.026 sec  ( 60.9%)
XC gradient                 ....       0.065 sec  (  2.0%)
------------------------------------------------------------------------------
                         ORCA GEOMETRY RELAXATION STEP
------------------------------------------------------------------------------

Reading the OPT-File                    .... done
Getting information on internals        .... done
Copying old internal coords+grads       .... done
Making the new internal coordinates     .... (new redundants).... done
Validating the new internal coordinates .... (new redundants).... done
Calculating the B-matrix                .... done
Calculating the G,G- and P matrices     .... done
Transforming gradient to internals      .... done
Projecting the internal gradient        .... done
Number of atoms                         ....   3
Number of internal coordinates          ....   4
Current Energy                          ....  -407.110621166 Eh
Current gradient norm                   ....     0.017507110 Eh/bohr
Maximum allowed component of the step   ....  0.300
Current trust radius                    ....  0.300
Updating the Hessian (BFGS)             .... done
Forming the augmented Hessian           .... done
Diagonalizing the augmented Hessian     .... done
Last element of RFO vector              ....  0.978223933
Lowest eigenvalues of augmented Hessian:
 -0.003714528  0.017232047  0.082513553  0.163789689
Length of the computed step             ....  0.212172537
The final length of the internal step   ....  0.212172537
Converting the step to cartesian space:
 Initial RMS(Int)=    0.1060862683
Transforming coordinates:
 Iter   0:  RMS(Cart)=    0.0707241789 RMS(Int)=    0.1060862683
 Iter   1:  RMS(Cart)=    0.0000000066 RMS(Int)=    0.0000000421
done
Storing new coordinates                 .... done

                                .--------------------.
          ----------------------|Geometry convergence|-------------------------
          Item                value                   Tolerance       Converged
          ---------------------------------------------------------------------
          Energy change       0.0022613299            0.0000050000      NO
          RMS gradient        0.0087535549            0.0001000000      NO
          MAX gradient        0.0123794732            0.0003000000      NO
          RMS step            0.1060862683            0.0020000000      NO
          MAX step            0.1500295650            0.0040000000      NO
          ........................................................
          Max(Bonds)      0.0794      Max(Angles)    0.00
          Max(Dihed)        0.00      Max(Improp)    0.00
          ---------------------------------------------------------------------

The optimization has not yet converged - more geometry cycles are needed


    ---------------------------------------------------------------------------
                         Redundant Internal Coordinates
                            (Angstroem and degrees)

        Definition                    Value    dE/dq     Step     New-Value
    ----------------------------------------------------------------------------
     1. B(Au  1,Au  0)                2.6597  0.012379 -0.0794    2.5803   
     2. B(Au  2,Au  0)                2.6597  0.012379 -0.0794    2.5803   
     3. L(Au  1,Au  0,Au  2, 2)       180.00 -0.000000    0.00    180.00   
     4. L(Au  1,Au  0,Au  2, 1)       180.00  0.000000   -0.00    180.00   
    ----------------------------------------------------------------------------

         *************************************************************
         *                GEOMETRY OPTIMIZATION CYCLE   3            *
         *************************************************************
---------------------------------
CARTESIAN COORDINATES (ANGSTROEM)
---------------------------------
  Au    -0.000000    0.000000    0.000000
  Au     0.000000   -0.000000    2.580278
  Au     0.000000   -0.000000   -2.580278

----------------------------
CARTESIAN COORDINATES (A.U.)
----------------------------
  NO LB      ZA    FRAG     MASS         X           Y           Z
   0 Au   19.0000*   0   196.966   -0.000000    0.000000    0.000000
   1 Au   19.0000*   0   196.966    0.000000   -0.000000    4.876018
   2 Au   19.0000*   0   196.966    0.000000   -0.000000   -4.876018
* core charge reduced due to ECP

--------------------------------
INTERNAL COORDINATES (ANGSTROEM)
--------------------------------
 Au     0   0   0     0.000000000000     0.00000000     0.00000000
 Au     1   0   0     2.580277445249     0.00000000     0.00000000
 Au     1   2   0     2.580277957022   179.99999829     0.00000000

---------------------------
INTERNAL COORDINATES (A.U.)
---------------------------
 Au     0   0   0     0.000000000000     0.00000000     0.00000000
 Au     1   0   0     4.876017721055     0.00000000     0.00000000
 Au     1   2   0     4.876018688165   179.99999829     0.00000000



           ************************************************************
           *        Program running with 24 parallel MPI-processes    *
           *              working on a common directory               *
           ************************************************************


           ************************************************************
           *        Program running with 24 parallel MPI-processes    *
           *              working on a common directory               *
           ************************************************************

Diagonalization of the overlap matrix:
Smallest eigenvalue                        ... 8.042e-04
Time for diagonalization                   ...    0.006 sec
Threshold for overlap eigenvalues          ... 1.000e-08
Number of eigenvalues below threshold      ... 0
Time for construction of square roots      ...    0.003 sec
Total time needed                          ...    0.009 sec

-------------------
DFT GRID GENERATION
-------------------

General Integration Accuracy     IntAcc      ...  4.670
Radial Grid Type                 RadialGrid  ... Gauss-Chebyshev
Angular Grid (max. acc.)         AngularGrid ... Lebedev-302
Angular grid pruning method      GridPruning ... 3 (G Style)
Weight generation scheme         WeightScheme... Becke
Basis function cutoff            BFCut       ...    1.0000e-11
Integration weight cutoff        WCut        ...    1.0000e-14
Grids for H and He will be reduced by one unit

# of grid points (after initial pruning)     ...  34956 (   0.0 sec)
# of grid points (after weights+screening)   ...  34728 (   0.0 sec)
nearest neighbour list constructed           ...    0.0 sec
Grid point re-assignment to atoms done       ...    0.0 sec
Grid point division into batches done        ...    0.3 sec
Reduced shell lists constructed in    0.3 sec

Total number of grid points                  ...    34728
Total number of batches                      ...      545
Average number of points per batch           ...       63
Average number of grid points per atom       ...    11576
Average number of shells per batch           ...    14.54 (28.51%)
Average number of basis functions per batch  ...    45.12 (25.49%)
Average number of large shells per batch     ...    10.46 (71.92%)
Average number of large basis fcns per batch ...    28.79 (63.80%)
Maximum spatial batch extension              ...  37.74, 37.74,  4.83 au
Average spatial batch extension              ...   0.54,  0.54,  0.19 au

Time for grid setup =    0.350 sec

--------------
SCF ITERATIONS
--------------
ITER       Energy         Delta-E        Max-DP      RMS-DP      [F,P]     Damp
               ***  Starting incremental Fock matrix formation  ***
  0   -407.1075568573   0.000000000000 0.00235957  0.00004800  0.1286238 0.7000
  1   -407.1077630816  -0.000206224224 0.00252139  0.00004809  0.0901285 0.7000
                               ***Turning on DIIS***
  2   -407.1079148126  -0.000151731046 0.00703518  0.00013367  0.0631024 0.0000
  3   -407.1082783247  -0.000363512133 0.00262855  0.00004355  0.0007969 0.0000
  4   -407.1082853032  -0.000006978475 0.00058742  0.00000903  0.0012608 0.0000
  5   -407.1082925009  -0.000007197676 0.00069418  0.00000881  0.0002394 0.0000
  6   -407.1082932773  -0.000000776392 0.00014881  0.00000275  0.0001671 0.0000
  7   -407.1082933897  -0.000000112376 0.00010028  0.00000102  0.0000778 0.0000
  8   -407.1082934031  -0.000000013403 0.00004795  0.00000046  0.0000324 0.0000
  9   -407.1082934071  -0.000000004034 0.00001922  0.00000025  0.0000045 0.0000
                 **** Energy Check signals convergence ****

               *****************************************************
               *                     SUCCESS                       *
               *           SCF CONVERGED AFTER  10 CYCLES          *
               *****************************************************

Total Energy       :         -407.10829341 Eh          -11077.97986 eV
  Last Energy change         ...   -1.8611e-10  Tolerance :   1.0000e-08
  Last MAX-Density change    ...    1.3326e-05  Tolerance :   1.0000e-07
             **** THE GBW FILE WAS UPDATED (Au03N0_LIN.gbw) ****
             **** DENSITY FILE WAS UPDATED (Au03N0_LIN.scfp) ****
             **** ENERGY FILE WAS UPDATED (Au03N0_LIN.en.tmp) ****
----------------------
UHF SPIN CONTAMINATION
----------------------

Warning: in a DFT calculation there is little theoretical justification to 
[...]
      dyz     :     1.961423
      dx2y2   :     1.999202
      dxy     :     1.999202
      f0      :     0.012757  f :     0.024427
      f+1     :     0.005412
      f-1     :     0.005412
      f+2     :     0.000423
      f-2     :     0.000423
      f+3     :     0.000000
      f-3     :     0.000000
      g0      :     0.000131  g :     0.000317
      g+1     :     0.000082
      g-1     :     0.000082
      g+2     :     0.000011
      g-2     :     0.000011
      g+3     :     0.000000
      g-3     :     0.000000
      g+4     :     0.000000
      g-4     :     0.000000
  1 Aus       :     2.853813  s :     2.853813
      pz      :     2.094771  p :     6.131320
      px      :     2.018275
      py      :     2.018275
      dz2     :     1.945503  d :     9.912193
      dxz     :     1.983431
      dyz     :     1.983431
      dx2y2   :     1.999914
      dxy     :     1.999914
      f0      :     0.004260  f :     0.010970
      f+1     :     0.003092
      f-1     :     0.003092
      f+2     :     0.000263
      f-2     :     0.000263
      f+3     :     0.000000
      f-3     :     0.000000
      g0      :     0.000065  g :     0.000156
      g+1     :     0.000040
      g-1     :     0.000040
      g+2     :     0.000005
      g-2     :     0.000005
      g+3     :     0.000000
      g-3     :     0.000000
      g+4     :     0.000000
      g-4     :     0.000000
  2 Aus       :     2.853869  s :     2.853869
      pz      :     2.094734  p :     6.131265
      px      :     2.018265
      py      :     2.018265
      dz2     :     1.945506  d :     9.912219
      dxz     :     1.983442
      dyz     :     1.983442
      dx2y2   :     1.999914
      dxy     :     1.999914
      f0      :     0.004254  f :     0.010954
      f+1     :     0.003087
      f-1     :     0.003087
      f+2     :     0.000262
      f-2     :     0.000263
      f+3     :     0.000000
      f-3     :     0.000000
      g0      :     0.000065  g :     0.000156
      g+1     :     0.000040
      g-1     :     0.000040
      g+2     :     0.000005
      g-2     :     0.000005
      g+3     :     0.000000
      g-3     :     0.000000
      g+4     :     0.000000
      g-4     :     0.000000

SPIN
  0 Aus       :    -0.024592  s :    -0.024592
      pz      :     0.298749  p :     0.299108
      px      :     0.000179
      py      :     0.000179
      dz2     :     0.001927  d :    -0.002999
      dxz     :    -0.002448
      dyz     :    -0.002448
      dx2y2   :    -0.000014
      dxy     :    -0.000014
      f0      :     0.001228  f :     0.001391
      f+1     :     0.000072
      f-1     :     0.000072
      f+2     :     0.000009
      f-2     :     0.000009
      f+3     :    -0.000000
      f-3     :    -0.000000
      g0      :    -0.000001  g :     0.000001
      g+1     :     0.000001
      g-1     :     0.000001
      g+2     :     0.000000
      g-2     :     0.000000
      g+3     :    -0.000000
      g-3     :    -0.000000
      g+4     :    -0.000000
      g-4     :     0.000000
  1 Aus       :     0.354292  s :     0.354292
      pz      :    -0.001682  p :     0.001079
      px      :     0.001380
      py      :     0.001380
      dz2     :     0.008842  d :     0.008237
      dxz     :    -0.000299
      dyz     :    -0.000299
      dx2y2   :    -0.000003
      dxy     :    -0.000003
      f0      :    -0.000131  f :    -0.000083
      f+1     :     0.000018
      f-1     :     0.000018
      f+2     :     0.000006
      f-2     :     0.000006
      f+3     :    -0.000000
      f-3     :    -0.000000
      g0      :    -0.000002  g :    -0.000006
      g+1     :    -0.000001
      g-1     :    -0.000001
      g+2     :    -0.000000
      g-2     :    -0.000000
      g+3     :    -0.000000
      g-3     :    -0.000000
      g+4     :    -0.000000
      g-4     :    -0.000000
  2 Aus       :     0.354354  s :     0.354354
      pz      :    -0.001683  p :     0.001076
      px      :     0.001380
      py      :     0.001380
      dz2     :     0.008835  d :     0.008230
      dxz     :    -0.000299
      dyz     :    -0.000299
      dx2y2   :    -0.000003
      dxy     :    -0.000003
      f0      :    -0.000131  f :    -0.000083
      f+1     :     0.000018
      f-1     :     0.000018
      f+2     :     0.000006
      f-2     :     0.000006
      f+3     :    -0.000000
      f-3     :    -0.000000
      g0      :    -0.000002  g :    -0.000006
      g+1     :    -0.000001
      g-1     :    -0.000001
      g+2     :    -0.000000
      g-2     :    -0.000000
      g+3     :    -0.000000
      g-3     :    -0.000000
      g+4     :    -0.000000
      g-4     :    -0.000000


                      *****************************
                      * MAYER POPULATION ANALYSIS *
                      *****************************

  NA   - Mulliken gross atomic population
  ZA   - Total nuclear charge
  QA   - Mulliken gross atomic charge
  VA   - Mayer's total valence
  BVA  - Mayer's bonded valence
  FA   - Mayer's free valence

  ATOM       NA         ZA         QA         VA         BVA        FA
  0 Au    19.1454    19.0000    -0.1454     1.4280     1.4195     0.0085
  1 Au    18.9273    19.0000     0.0727     1.2641     1.0071     0.2570
  2 Au    18.9273    19.0000     0.0727     1.2639     1.0069     0.2570

  Mayer bond orders larger than 0.100000
B(  0-Au,  1-Au) :   0.7098 B(  0-Au,  2-Au) :   0.7097 B(  1-Au,  2-Au) :   0.2972 


-------
TIMINGS
-------

Total SCF time: 0 days 0 hours 0 min 1 sec 

Total time                  ....       1.327 sec
Sum of individual times     ....       1.107 sec  ( 83.5%)

Fock matrix formation       ....       0.708 sec  ( 53.4%)
  XC integration            ....       0.097 sec  ( 13.7% of F)
    Basis function eval.    ....       0.007 sec  (  7.2% of XC)
    Density eval.           ....       0.021 sec  ( 21.2% of XC)
    XC-Functional eval.     ....       0.005 sec  (  5.4% of XC)
    XC-Potential eval.      ....       0.042 sec  ( 42.8% of XC)
Diagonalization             ....       0.017 sec  (  1.2%)
Density matrix formation    ....       0.004 sec  (  0.3%)
Population analysis         ....       0.010 sec  (  0.8%)
Initial guess               ....       0.018 sec  (  1.3%)
Orbital Transformation      ....       0.000 sec  (  0.0%)
Orbital Orthonormalization  ....       0.011 sec  (  0.8%)
DIIS solution               ....       0.003 sec  (  0.2%)
Grid generation             ....       0.349 sec  ( 26.3%)


-------------------------------------------------------------------------------
                          DFT DISPERSION CORRECTION                            
                                                                               
                              DFTD3 V3.1  Rev 1                                
                          USING Becke-Johnson damping                          
-------------------------------------------------------------------------------
The TPSSH functional is recognized
Active option DFTDOPT                   ...         4   

molecular C6(AA) [au] = 2858.465109 


            DFT-D V3
 parameters
 s6 scaling factor         :     1.0000 
 a1 scaling factor         :     0.4529 
 s8 scaling factor         :     2.2382 
 a2 scaling factor         :     4.6550 
 ad hoc parameters k1-k3   :    16.0000     1.3333    -4.0000 

 Edisp/kcal,au: -2.944332834088  -0.004692092537 
 E6   /kcal   :  -0.812341454 
 E8   /kcal   :  -2.131991380 
 % E8         :  72.409999147 

-------------------------   ----------------
Dispersion correction           -0.004692093
-------------------------   ----------------


-------------------------   --------------------
FINAL SINGLE POINT ENERGY      -407.113020071706
-------------------------   --------------------

                                *** OPTIMIZATION RUN DONE ***

                            ***************************************
                            *     ORCA property calculations      *
                            ***************************************

                                    ---------------------
                                    Active property flags
                                    ---------------------
   (+) Dipole Moment


------------------------------------------------------------------------------
                       ORCA ELECTRIC PROPERTIES CALCULATION
------------------------------------------------------------------------------

Dipole Moment Calculation                       ... on
Quadrupole Moment Calculation                   ... off
Polarizability Calculation                      ... off
GBWName                                         ... Au03N0_LIN.gbw
Electron density file                           ... Au03N0_LIN.scfp
The origin for moment calculation is the CENTER OF MASS  = ( 0.000000, -0.000000  0.000000)

-------------
DIPOLE MOMENT
-------------
                                X             Y             Z
Electronic contribution:     -0.00000      -0.00000       0.00006
Nuclear contribution   :      0.00000       0.00000       0.00000
                        -----------------------------------------
Total Dipole Moment    :     -0.00000      -0.00000       0.00006
                        -----------------------------------------
Magnitude (a.u.)       :      0.00006
Magnitude (Debye)      :      0.00015



--------------------
Rotational spectrum 
--------------------
 
Rotational constants in cm-1:     0.000000     0.006474     0.006474 
Rotational constants in MHz :     0.000000   194.097179   194.097179 

 Dipole components along the rotational axes: 
x,y,z [a.u.] :    -0.000061    -0.000000     0.000000 
x,y,z [Debye]:    -0.000154    -0.000000     0.000000 

 

----------------------------------------------------------------------------
                           ORCA NUMERICAL FREQUENCIES
                              (24-process run)
----------------------------------------------------------------------------

Number of atoms                ... 3
Central differences            ... used
Number of displacements        ... 18
Numerical increment            ... 5.000e-03 bohr
IR-spectrum generation         ... on
Raman-spectrum generation      ... off
Surface Crossing Hessian       ... off

 WARNING: There are more processes than displacements to do
  ====> : Reducing number of processes to   9

The output will be reduced. Please look at the following files:
SCF program output             ... >Au03N0_LIN.lastscf
Integral program output        ... >Au03N0_LIN.lastint
Gradient program output        ... >Au03N0_LIN.lastgrad
Dipole moment program output   ... >Au03N0_LIN.lastmom
AutoCI program output          ... >Au03N0_LIN.lastautoci


         <<< Energy and Gradient at the input geometry >>>

        <<< Energy and Gradient at displaced geometries >>>
             <<<Displacing   3/coordinate 1 (+)>>>
             <<<Displacing   1/coordinate 3 (+)>>>
             <<<Displacing   2/coordinate 2 (+)>>>
             <<<Displacing   2/coordinate 1 (+)>>>
             <<<Displacing   1/coordinate 1 (+)>>>
             <<<Displacing   3/coordinate 3 (+)>>>
             <<<Displacing   2/coordinate 3 (+)>>>
             <<<Displacing   3/coordinate 2 (+)>>>
             <<<Displacing   1/coordinate 2 (+)>>>
             <<<Displacing   3/coordinate 1 (-)>>>
             <<<Displacing   2/coordinate 2 (-)>>>
             <<<Displacing   2/coordinate 1 (-)>>>
             <<<Displacing   3/coordinate 2 (-)>>>
             <<<Displacing   1/coordinate 1 (-)>>>
             <<<Displacing   1/coordinate 2 (-)>>>
             <<<Displacing   1/coordinate 3 (-)>>>
             <<<Displacing   2/coordinate 3 (-)>>>
             <<<Displacing   3/coordinate 3 (-)>>>

-----------------------
VIBRATIONAL FREQUENCIES
-----------------------

Scaling factor for frequencies =  1.000000000 (already applied!)

   0:         0.00 cm**-1
   1:         0.00 cm**-1
   2:         0.00 cm**-1
   3:         0.00 cm**-1
   4:         0.00 cm**-1
   5:         0.00 cm**-1
   6:       -24.98 cm**-1 ***imaginary mode***
   7:       110.80 cm**-1
   8:       177.38 cm**-1


------------
NORMAL MODES
------------

These modes are the cartesian displacements weighted by the diagonal matrix
M(i,i)=1/sqrt(m[i]) where m[i] is the mass of the displaced atom
Thus, these vectors are normalized but *not* orthogonal

                  0          1          2          3          4          5    
      0       0.000000   0.000000   0.000000   0.000000   0.000000   0.000000
      1       0.000000   0.000000   0.000000   0.000000   0.000000   0.000000
      2       0.000000   0.000000   0.000000   0.000000   0.000000   0.000000
      3       0.000000   0.000000   0.000000   0.000000   0.000000   0.000000
      4       0.000000   0.000000   0.000000   0.000000   0.000000   0.000000
      5       0.000000   0.000000   0.000000   0.000000   0.000000   0.000000
      6       0.000000   0.000000   0.000000   0.000000   0.000000   0.000000
      7       0.000000   0.000000   0.000000   0.000000   0.000000   0.000000
      8       0.000000   0.000000   0.000000   0.000000   0.000000   0.000000
                   6          7          8    
      0       0.494854   0.000002  -0.000001
      1       0.649450   0.000003  -0.000002
      2       0.000002  -0.000695   0.816496
      3      -0.247447  -0.000001   0.000001
      4      -0.324751  -0.000002   0.000001
      5       0.000002  -0.706759  -0.408850
      6      -0.247408  -0.000001   0.000001
      7      -0.324700  -0.000002   0.000001
      8      -0.000004   0.707454  -0.407646


-----------
IR SPECTRUM  
-----------

 Mode    freq (cm**-1)   T**2         TX         TY         TZ
-------------------------------------------------------------------
   7:       110.80    0.000043  ( -0.000003  -0.000006   0.006526)
   8:       177.38    2.579843  ( -0.000000  -0.000001  -1.606189)

The first frequency considered to be a vibration is 7
The total number of vibrations considered is 2


--------------------------
THERMOCHEMISTRY AT 298.15K
--------------------------

Temperature         ... 298.15 K
Pressure            ... 1.00 atm
Total Mass          ... 590.90 AMU
The molecule is recognized as being linear

Throughout the following assumptions are being made:
  (1) The electronic state is orbitally nondegenerate
      but the spin degeneracy is treated
  (2) There are no thermally accessible electronically excited states
  (3) Hindered rotations indicated by low frequency modes are not
      treated as such but are treated as vibrations and this may
      cause some error
  (4) All equations used are the standard statistical mechanics
      equations for an ideal gas
  (5) All vibrations are strictly harmonic

freq.     110.80  E(vib)   ...       0.45 
freq.     177.38  E(vib)   ...       0.37 

------------
INNER ENERGY
------------

The inner energy is: U= E(el) + E(ZPE) + E(vib) + E(rot) + E(trans)
    E(el)   - is the total energy from the electronic structure calculation
              = E(kin-el) + E(nuc-el) + E(el-el) + E(nuc-nuc)
    E(ZPE)  - the the zero temperature vibrational energy from the frequency calculation
    E(vib)  - the the finite temperature correction to E(ZPE) due to population
              of excited vibrational states
    E(rot)  - is the rotational thermal energy
    E(trans)- is the translational thermal energy

Summary of contributions to the inner energy U:
Electronic energy                ...   -407.11302008 Eh
Zero point energy                ...      0.00065653 Eh       0.41 kcal/mol
Thermal vibrational correction   ...      0.00131123 Eh       0.82 kcal/mol
Thermal rotational correction    ...      0.00094418 Eh       0.59 kcal/mol
Thermal translational correction ...      0.00141627 Eh       0.89 kcal/mol
-----------------------------------------------------------------------
Total thermal energy                   -407.10869186 Eh


Summary of corrections to the electronic energy:
(perhaps to be used in another calculation)
Total thermal correction                  0.00367169 Eh       2.30 kcal/mol
Non-thermal (ZPE) correction              0.00065653 Eh       0.41 kcal/mol
-----------------------------------------------------------------------
Total correction                          0.00432822 Eh       2.72 kcal/mol


--------
ENTHALPY
--------

The enthalpy is H = U + kB*T
                kB is Boltzmann's constant
Total free energy                 ...   -407.10869186 Eh 
Thermal Enthalpy correction       ...      0.00094421 Eh       0.59 kcal/mol
-----------------------------------------------------------------------
Total Enthalpy                    ...   -407.10774765 Eh


Note: Rotational entropy computed according to Herzberg 
Infrared and Raman Spectra, Chapter V,1, Van Nostrand Reinhold, 1945 
Point Group:  Cinfv, Symmetry Number:   1  
Rotational constants in cm-1:     0.000000     0.006474     0.006474 

Vibrational entropy computed according to the QRRHO of S. Grimme
Chem.Eur.J. 2012 18 9955


-------
ENTROPY
-------

The entropy contributions are T*S = T*(S(el)+S(vib)+S(rot)+S(trans))
     S(el)   - electronic entropy
     S(vib)  - vibrational entropy
     S(rot)  - rotational entropy
     S(trans)- translational entropy
The entropies will be listed as mutliplied by the temperature to get
units of energy

Electronic entropy                ...      0.00065446 Eh      0.41 kcal/mol
Vibrational entropy               ...      0.00256771 Eh      1.61 kcal/mol
Rotational entropy                ...      0.01073884 Eh      6.74 kcal/mol
Translational entropy             ...      0.02138721 Eh     13.42 kcal/mol
-----------------------------------------------------------------------
Final entropy term                ...      0.03534822 Eh     22.18 kcal/mol

In case the symmetry of your molecule has not been determined correctly
or in case you have a reason to use a different symmetry number we print 
out the resulting rotational entropy values for sn=1,12 :
 --------------------------------------------------------
|  sn= 1 | S(rot)=      -0.00062110 Eh     -0.39 kcal/mol|
|  sn= 2 | S(rot)=      -0.00127555 Eh     -0.80 kcal/mol|
|  sn= 3 | S(rot)=      -0.00165838 Eh     -1.04 kcal/mol|
|  sn= 4 | S(rot)=      -0.00193001 Eh     -1.21 kcal/mol|
|  sn= 5 | S(rot)=      -0.00214070 Eh     -1.34 kcal/mol|
|  sn= 6 | S(rot)=      -0.00231284 Eh     -1.45 kcal/mol|
|  sn= 7 | S(rot)=      -0.00245839 Eh     -1.54 kcal/mol|
|  sn= 8 | S(rot)=      -0.00258446 Eh     -1.62 kcal/mol|
|  sn= 9 | S(rot)=      -0.00269567 Eh     -1.69 kcal/mol|
|  sn=10 | S(rot)=      -0.00279515 Eh     -1.75 kcal/mol|
|  sn=11 | S(rot)=      -0.00288514 Eh     -1.81 kcal/mol|
|  sn=12 | S(rot)=      -0.00296730 Eh     -1.86 kcal/mol|
 --------------------------------------------------------


-------------------
GIBBS FREE ENERGY
-------------------

The Gibbs free energy is G = H - T*S

Total enthalpy                    ...   -407.10774765 Eh 
Total entropy correction          ...     -0.03534822 Eh    -22.18 kcal/mol
-----------------------------------------------------------------------
Final Gibbs free energy         ...   -407.14309588 Eh

For completeness - the Gibbs free energy minus the electronic energy
G-E(el)                           ...     -0.03007580 Eh    -18.87 kcal/mol


Total Time for Numerical Frequencies  :       169.714 sec

Timings for individual modules:

Sum of individual times         ...       61.139 sec (=   1.019 min)
GTO integral calculation        ...        6.906 sec (=   0.115 min)  11.3 %
SCF iterations                  ...       31.377 sec (=   0.523 min)  51.3 %
SCF Gradient evaluation         ...       22.668 sec (=   0.378 min)  37.1 %
Geometry relaxation             ...        0.188 sec (=   0.003 min)   0.3 %
                             ****ORCA TERMINATED NORMALLY****
TOTAL RUN TIME: 0 days 0 hours 3 minutes 45 seconds 201 msec
