
                                 *****************
                                 * O   R   C   A *
                                 *****************

           --- An Ab Initio, DFT and Semiempirical electronic structure package ---

                  #######################################################
                  #                        -***-                        #
                  #          Department of theory and spectroscopy      #
                  #               Directorship: Frank Neese             #
                  #        Max Planck Institute fuer Kohlenforschung    #
                  #                Kaiser Wilhelm Platz 1               #
                  #                 D-45470 Muelheim/Ruhr               #
                  #                      Germany                        #
                  #                                                     #
                  #                  All rights reserved                #
                  #                        -***-                        #
                  #######################################################


                         Program Version 4.2.0 -  RELEASE  -


 With contributions from (in alphabetic order):
   Daniel Aravena         : Magnetic Suceptibility
   Michael Atanasov       : Ab Initio Ligand Field Theory (pilot matlab implementation)
   Alexander A. Auer      : GIAO ZORA, VPT2
   Ute Becker             : Parallelization
   Giovanni Bistoni       : ED, misc. LED, open-shell LED, HFLED
   Martin Brehm           : Molecular dynamics
   Dmytro Bykov           : SCF Hessian
   Vijay G. Chilkuri      : MRCI spin determinant printing, contributions to CSF-ICE
   Dipayan Datta          : RHF DLPNO-CCSD density
   Achintya Kumar Dutta   : EOM-CC, STEOM-CC
   Dmitry Ganyushin       : Spin-Orbit,Spin-Spin,Magnetic field MRCI
   Miquel Garcia          : C-PCM Hessian, Gaussian charge scheme
   Yang Guo               : DLPNO-NEVPT2, CIM, IAO-localization
   Andreas Hansen         : Spin unrestricted coupled pair/coupled cluster methods
   Benjamin Helmich-Paris : CASSCF linear response (MC-RPA)
   Lee Huntington         : MR-EOM, pCC
   Robert Izsak           : Overlap fitted RIJCOSX, COSX-SCS-MP3, EOM
   Christian Kollmar      : KDIIS, OOCD, Brueckner-CCSD(T), CCSD density
   Simone Kossmann        : Meta GGA functionals, TD-DFT gradient, OOMP2, MP2 Hessian
   Martin Krupicka        : AUTO-CI
   Lucas Lang             : DCDCAS
   Dagmar Lenk            : GEPOL surface, SMD
   Dimitrios Liakos       : Extrapolation schemes; Compound Job, initial MDCI parallelization
   Dimitrios Manganas     : Further ROCIS development; embedding schemes
   Dimitrios Pantazis     : SARC Basis sets
   Taras Petrenko         : DFT Hessian,TD-DFT gradient, ASA, ECA, R-Raman, ABS, FL, XAS/XES, NRVS
   Peter Pinski           : DLPNO-MP2, DLPNO-MP2 Gradient
   Christoph Reimann      : Effective Core Potentials
   Marius Retegan         : Local ZFS, SOC
   Christoph Riplinger    : Optimizer, TS searches, QM/MM, DLPNO-CCSD(T), (RO)-DLPNO pert. Triples
   Tobias Risthaus        : Range-separated hybrids, TD-DFT gradient, RPA, STAB
   Michael Roemelt        : Original ROCIS implementation
   Masaaki Saitow         : Open-shell DLPNO-CCSD energy and density
   Barbara Sandhoefer     : DKH picture change effects
   Avijit Sen             : IP-ROCIS
   Kantharuban Sivalingam : CASSCF convergence, NEVPT2, FIC-MRCI
   Bernardo de Souza      : ESD, SOC TD-DFT
   Georgi Stoychev        : AutoAux, RI-MP2 NMR
   Willem Van den Heuvel  : Paramagnetic NMR
   Boris Wezisla          : Elementary symmetry handling
   Frank Wennmohs         : Technical directorship


 We gratefully acknowledge several colleagues who have allowed us to
 interface, adapt or use parts of their codes:
   Stefan Grimme, W. Hujo, H. Kruse,             : VdW corrections, initial TS optimization,
                  C. Bannwarth                     DFT functionals, gCP, sTDA/sTD-DF
   Ed Valeev, F. Pavosevic, A. Kumar             : LibInt (2-el integral package), F12 methods
   Garnet Chan, S. Sharma, J. Yang, R. Olivares  : DMRG
   Ulf Ekstrom                                   : XCFun DFT Library
   Mihaly Kallay                                 : mrcc  (arbitrary order and MRCC methods)
   Andreas Klamt, Michael Diedenhofen            : otool_cosmo (COSMO solvation model)
   Jiri Pittner, Ondrej Demel                    : Mk-CCSD
   Frank Weinhold                                : gennbo (NPA and NBO analysis)
   Christopher J. Cramer and Donald G. Truhlar   : smd solvation model
   Lars Goerigk                                  : TD-DFT with DH, B97 family of functionals
   V. Asgeirsson, H. Jonsson                     : NEB implementation
   FAccTs GmbH                                   : IRC, NEB, NEB-TS, Multilevel, MM, QM/MM, CI optimization
   S Lehtola, MJT Oliveira, MAL Marques          : LibXC Library


 Your calculation uses the libint2 library for the computation of 2-el integrals
 For citations please refer to: http://libint.valeyev.net

 Your ORCA version has been built with support for libXC version: 4.2.3
 For citations please refer to: https://tddft.org/programs/libxc/

 This ORCA versions uses:
   CBLAS   interface :  Fast vector & matrix operations
   LAPACKE interface :  Fast linear algebra routines
   SCALAPACK package :  Parallel linear algebra routines


Your calculation utilizes the atom-pairwise dispersion correction
with the Becke-Johnson damping scheme (D3BJ)
Cite in your paper:
S.Grimme, S.Ehrlich, L.Goerigk, J Comput Chem, (2011), 32, 1456–1465 
S.Grimme, J.Antony, S.Ehrlich and H.Krieg, J.Chem.Phys., 132, (2010), 154104 
   

----- Orbital basis set information -----
Your calculation utilizes the basis: def2-TZVPPD
   F. Weigend and R. Ahlrichs, Phys. Chem. Chem. Phys. 7, 3297 (2005).
   D. Rappoport and F. Furche, J. Chem. Phys. 133 134105 (2010).

----- AuxJK basis set information -----
Your calculation utilizes the auxiliary basis: def2/JK
   H-Ba, Hf-Rn: F. Weigend, J. Comput. Chem. 29, 167 (2008).

cite the ECPs for Au [Def2-ECP] as follows:
Ce-Yb(ecp-28): M. Dolg, H. Stoll, H.Preuss, J. Chem. Phys., 1989, 90, 1730-1734.
Y-Cd(ecp-28), Hf-Hg(ecp-46): D. Andrae,U. Haeussermann, M. Dolg, H. Stoll, H. Preuss, Theor. Chim. Acta, 1990, 77, 123-141.
In-Sb(ecp-28), Tl-Bi(ecp-46): B. Metz, H. Stoll, M. Dolg, J. Chem. Phys., 2000, 113, 2563-2569.
Te-Xe(ecp-28), Po-Rn(ecp-46): K. A. Peterson, D. Figgen, E. Goll, H. Stoll, M. Dolg, J. Chem. Phys., 2003, 119, 11113-11123.
Rb(ecp-28), Cs(ecp-46): T. Leininger, A. Nicklass, W. Kuechle, H. Stoll, M. Dolg, A. Bergner, Chem. Phys. Lett., 1996, 255, 274-280.
Sr(ecp-28), Ba(ecp-46): M. Kaupp, P. V. Schleyer, H. Stoll and H. Preuss, J. Chem. Phys., 1991, 94, 1360-1366.
La(ecp-46): M. Dolg, H. Stoll, A. Savin, H. Preuss, Theor. Chim. Acta, 1989, 75, 173-194.
Lu(ecp-28): X. Cao, M. Dolg, J. Chem. Phys., 2001, 115, 7348-7355.

ECP parameters for Au [Def2-ECP] have been obtained from:
TURBOMOLE (7.0.2)

================================================================================
                                        WARNINGS
                       Please study these warnings very carefully!
================================================================================


WARNING: Geometry Optimization
  ===> : Switching off AutoStart
         For restart on a previous wavefunction, please use MOREAD

INFO   : the flag for use of LIBINT has been found!

================================================================================
                                       INPUT FILE
================================================================================
NAME = Au03C1_D3H.in
|  1> #
|  2> # Au03C1_D3H TPSSh-D3BJ/Def2-TZVPPD
|  3> #
|  4> ! tpssh d3bj def2-tzvppd def2/jk grid4 nofinalgrid opt xyzfile numfreq
|  5> 
|  6> *xyz 1 1
|  7> Au       0.000000    1.501400   -0.000000 
|  8> Au       1.300251   -0.750700   -0.000000 
|  9> Au      -1.300251   -0.750700   -0.000000 
| 10> *
| 11> 
| 12> %maxcore 5000
| 13> 
| 14> %pal
| 15> nprocs = 24
| 16> end
| 17> 
| 18> 
| 19>                          ****END OF INPUT****
================================================================================

                       *****************************
                       * Geometry Optimization Run *
                       *****************************

Geometry optimization settings:
Update method            Update   .... BFGS
Choice of coordinates    CoordSys .... Z-matrix Internals
Initial Hessian          InHess   .... Almoef's Model

Convergence Tolerances:
Energy Change            TolE     ....  5.0000e-06 Eh
Max. Gradient            TolMAXG  ....  3.0000e-04 Eh/bohr
RMS Gradient             TolRMSG  ....  1.0000e-04 Eh/bohr
Max. Displacement        TolMAXD  ....  4.0000e-03 bohr
RMS Displacement         TolRMSD  ....  2.0000e-03 bohr
Strict Convergence                ....  False
------------------------------------------------------------------------------
                        ORCA OPTIMIZATION COORDINATE SETUP
------------------------------------------------------------------------------

The optimization will be done in new redundant internal coordinates
Making redundant internal coordinates   ...  (new redundants) done
Evaluating the initial hessian          ...  (Almloef) done
Evaluating the coordinates              ...  done
Calculating the B-matrix                .... done
Calculating the G-matrix                .... done
Diagonalizing the G-matrix              .... done
The first mode is                       ....    3
The number of degrees of freedom        ....    3

    -----------------------------------------------------------------
                    Redundant Internal Coordinates


    -----------------------------------------------------------------
         Definition                    Initial Value    Approx d2E/dq
    -----------------------------------------------------------------
      1. B(Au  1,Au  0)                  2.6005         0.014179   
      2. B(Au  2,Au  1)                  2.6005         0.014179   
      3. B(Au  2,Au  0)                  2.6005         0.014179   
      4. A(Au  1,Au  0,Au  2)           60.0000         0.157470   
      5. A(Au  0,Au  1,Au  2)           60.0000         0.157470   
      6. A(Au  0,Au  2,Au  1)           60.0000         0.157470   
    -----------------------------------------------------------------

Number of atoms                         .... 3
Number of degrees of freedom            .... 6

         *************************************************************
         *                GEOMETRY OPTIMIZATION CYCLE   1            *
         *************************************************************
---------------------------------
CARTESIAN COORDINATES (ANGSTROEM)
---------------------------------
  Au     0.000000    1.501400   -0.000000
  Au     1.300251   -0.750700   -0.000000
  Au    -1.300251   -0.750700   -0.000000

----------------------------
CARTESIAN COORDINATES (A.U.)
----------------------------
  NO LB      ZA    FRAG     MASS         X           Y           Z
   0 Au   19.0000*   0   196.966    0.000000    2.837235   -0.000000
   1 Au   19.0000*   0   196.966    2.457118   -1.418617   -0.000000
   2 Au   19.0000*   0   196.966   -2.457118   -1.418617   -0.000000
* core charge reduced due to ECP

--------------------------------
INTERNAL COORDINATES (ANGSTROEM)
--------------------------------
 Au     0   0   0     0.000000000000     0.00000000     0.00000000
 Au     1   0   0     2.600501311863     0.00000000     0.00000000
 Au     1   2   0     2.600501311863    60.00001751     0.00000000

---------------------------
INTERNAL COORDINATES (A.U.)
---------------------------
 Au     0   0   0     0.000000000000     0.00000000     0.00000000
 Au     1   0   0     4.914235290324     0.00000000     0.00000000
 Au     1   2   0     4.914235290324    60.00001751     0.00000000

---------------------
BASIS SET INFORMATION
---------------------
There are 1 groups of distinct atoms

 Group   1 Type Au  : 8s8p6d2f1g contracted to 6s5p3d2f1g pattern {311111/41111/411/11/1}

Atom   0Au   basis set group =>   1
Atom   1Au   basis set group =>   1
Atom   2Au   basis set group =>   1
----------------------------------
AUXILIARY/JK BASIS SET INFORMATION
----------------------------------
There are 1 groups of distinct atoms

 Group   1 Type Au  : 13s12p11d9f5g3h2i contracted to 13s11p10d8f4g3h2i pattern {1111111111111/21111111111/2111111111/21111111/2111/111/11}

Atom   0Au   basis set group =>   1
Atom   1Au   basis set group =>   1
Atom   2Au   basis set group =>   1
-------------------------
ECP PARAMETER INFORMATION
-------------------------

 Group 1, Type Au ECP Def2-ECP (replacing 60 core electrons, lmax=3)

Atom   0Au   ECP group =>   1
Atom   1Au   ECP group =>   1
Atom   2Au   ECP group =>   1



           ************************************************************
           *        Program running with 24 parallel MPI-processes    *
           *              working on a common directory               *
           ************************************************************
------------------------------------------------------------------------------
                           ORCA GTO INTEGRAL CALCULATION
------------------------------------------------------------------------------

                         BASIS SET STATISTICS AND STARTUP INFO

 # of primitive gaussian shells          ...   75
 # of primitive gaussian functions       ...  255
 # of contracted shells                  ...   51
 # of contracted basis functions         ...  177
 Highest angular momentum                ...    4
 Maximum contraction depth               ...    4
 Integral package used                   ... LIBINT
 Integral threshhold            Thresh   ...  2.500e-11
 Primitive cut-off              TCut     ...  2.500e-12


------------------------------ INTEGRAL EVALUATION ----------------------------


 * One electron integrals 

   ECP integrals                         ... done
 Pre-screening matrix                    ... done
 Shell pair data                         ... done (   0.000 sec)



           ************************************************************
           *        Program running with 24 parallel MPI-processes    *
           *              working on a common directory               *
           ************************************************************
-------------------------------------------------------------------------------
                                 ORCA SCF
-------------------------------------------------------------------------------

------------
SCF SETTINGS
------------
Hamiltonian:
 Density Functional     Method          .... DFT(GTOs)
 Exchange Functional    Exchange        .... TPSS
 Correlation Functional Correlation     .... TPSS
 LDA part of GGA corr.  LDAOpt          .... PW91-LDA
 Gradients option       PostSCFGGA      .... off
 Hybrid DFT is turned on
   Fraction HF Exchange ScalHFX         ....  0.100000
   Scaling of DF-GGA-X  ScalDFX         ....  0.900000
   Scaling of DF-GGA-C  ScalDFC         ....  1.000000
   Scaling of DF-LDA-C  ScalLDAC        ....  1.000000
   Perturbative correction              ....  0.000000
   Density functional embedding theory  .... OFF
   NL short-range parameter             ....  5.200000


General Settings:
 Integral files         IntName         .... Au03C1_D3H
 Hartree-Fock type      HFTyp           .... RHF
 Total Charge           Charge          ....    1
 Multiplicity           Mult            ....    1
 Number of Electrons    NEL             ....   56
 Basis Dimension        Dim             ....  177
 Nuclear Repulsion      ENuc            ....    220.3801487905 Eh

Convergence Acceleration:
 DIIS                   CNVDIIS         .... on
   Start iteration      DIISMaxIt       ....    12
   Startup error        DIISStart       ....  0.200000
   # of expansion vecs  DIISMaxEq       ....     5
   Bias factor          DIISBfac        ....   1.050
   Max. coefficient     DIISMaxC        ....  10.000
 Newton-Raphson         CNVNR           .... off
 SOSCF                  CNVSOSCF        .... off
 Level Shifting         CNVShift        .... on
   Level shift para.    LevelShift      ....    0.2500
   Turn off err/grad.   ShiftErr        ....    0.0010
 Zerner damping         CNVZerner       .... off
 Static damping         CNVDamp         .... on
   Fraction old density DampFac         ....    0.7000
   Max. Damping (<1)    DampMax         ....    0.9800
   Min. Damping (>=0)   DampMin         ....    0.0000
   Turn off err/grad.   DampErr         ....    0.1000
 Fernandez-Rico         CNVRico         .... off

SCF Procedure:
 Maximum # iterations   MaxIter         ....   125
 SCF integral mode      SCFMode         .... Direct
   Integral package                     .... LIBINT
 Reset frequency        DirectResetFreq ....    20
 Integral Threshold     Thresh          ....  2.500e-11 Eh
 Primitive CutOff       TCut            ....  2.500e-12 Eh

Convergence Tolerance:
 Convergence Check Mode ConvCheckMode   .... Total+1el-Energy
 Convergence forced     ConvForced      .... 0
 Energy Change          TolE            ....  1.000e-08 Eh
 1-El. energy change                    ....  1.000e-05 Eh
 DIIS Error             TolErr          ....  5.000e-07


Diagonalization of the overlap matrix:
Smallest eigenvalue                        ... 1.610e-03
Time for diagonalization                   ...    0.007 sec
Threshold for overlap eigenvalues          ... 1.000e-08
Number of eigenvalues below threshold      ... 0
Time for construction of square roots      ...    0.003 sec
Total time needed                          ...    0.010 sec

-------------------
DFT GRID GENERATION
-------------------

General Integration Accuracy     IntAcc      ...  4.670
Radial Grid Type                 RadialGrid  ... Gauss-Chebyshev
Angular Grid (max. acc.)         AngularGrid ... Lebedev-302
Angular grid pruning method      GridPruning ... 3 (G Style)
Weight generation scheme         WeightScheme... Becke
Basis function cutoff            BFCut       ...    1.0000e-11
Integration weight cutoff        WCut        ...    1.0000e-14
Grids for H and He will be reduced by one unit

# of grid points (after initial pruning)     ...  34956 (   0.0 sec)
# of grid points (after weights+screening)   ...  34814 (   0.0 sec)
nearest neighbour list constructed           ...    0.0 sec
Grid point re-assignment to atoms done       ...    0.0 sec
Grid point division into batches done        ...    0.3 sec
Reduced shell lists constructed in    0.3 sec

Total number of grid points                  ...    34814
Total number of batches                      ...      545
Average number of points per batch           ...       63
Average number of grid points per atom       ...    11605
Average number of shells per batch           ...     5.00 ( 9.80%)
Average number of basis functions per batch  ...    13.17 ( 7.44%)
Average number of large shells per batch     ...     3.08 (61.67%)
Average number of large basis fcns per batch ...     7.25 (55.06%)
Maximum spatial batch extension              ...  27.50, 22.87, 24.85 au
Average spatial batch extension              ...   0.74,  0.63,  0.66 au

Time for grid setup =    0.371 sec

------------------------------
INITIAL GUESS: MODEL POTENTIAL
------------------------------
Loading Hartree-Fock densities                     ... done
  calling /sw/apps/orca/orca_4_2_0_linux_x86-64_openmpi314/orca Au03C1_D3H_atom79.inp > Au03C1_D3H_atom79.out in order to generate an atomic fitting density for atom 0 (Au with ECP) on-the-fly... 
    atom 0 (Au), assumed electronic state with S=2: 1s2 2s2 2p6 3s2 3p6 4s2 3d10 4p6 5s2 4d10 5p6 6s1 4f14 5d10           ... done
Calculating cut-offs                               ... done
Setting up the integral package                    ... done
Initializing the effective Hamiltonian             ... done
Starting the Coulomb interaction                   ... done (   0.0 sec)
Reading the grid                                   ... done
Mapping shells                                     ... done
Starting the XC term evaluation                    ... done (   0.0 sec)
  promolecular density results
     # of electrons  =    237.007576824
     EX              =  -1097.422794473
     EC              =    -14.482740175
     EX+EC           =  -1111.905534648
Transforming the Hamiltonian                       ... done (   0.0 sec)
Diagonalizing the Hamiltonian                      ... done (   0.0 sec)
Back transforming the eigenvectors                 ... done (   0.0 sec)
Now organizing SCF variables                       ... done
                      ------------------
                      INITIAL GUESS DONE (   1.4 sec)
                      ------------------
--------------
SCF ITERATIONS
--------------
ITER       Energy         Delta-E        Max-DP      RMS-DP      [F,P]     Damp
               ***  Starting incremental Fock matrix formation  ***
  0   -406.5720599451   0.000000000000 0.21787789  0.00327091  0.5848738 0.7000
  1   -406.6923252821  -0.120265337010 0.14850937  0.00215071  0.4023775 0.7000
  2   -406.7433036481  -0.050978365962 0.09648699  0.00131894  0.2766374 0.7000
                               ***Turning on DIIS***
  3   -406.7776335743  -0.034329926206 0.06549183  0.00088217  0.1918994 0.7000
  4   -406.8025868461  -0.024953271809 0.04551066  0.00061582  0.1339193 0.7000
  5   -406.8201391912  -0.017552345076 0.10979602  0.00149041  0.0938641 0.0000
  6   -406.8609779538  -0.040838762629 0.00662660  0.00012709  0.0008559 0.0000
  7   -406.8610108332  -0.000032879333 0.00051879  0.00001643  0.0009039 0.0000
  8   -406.8610137012  -0.000002868086 0.00041665  0.00001036  0.0003631 0.0000
  9   -406.8610144554  -0.000000754126 0.00005436  0.00000223  0.0000981 0.0000
 10   -406.8610145161  -0.000000060767 0.00002165  0.00000070  0.0000199 0.0000
 11   -406.8610145175  -0.000000001347 0.00000963  0.00000034  0.0000138 0.0000
                            ***DIIS convergence achieved***

               *****************************************************
               *                     SUCCESS                       *
               *           SCF CONVERGED AFTER  12 CYCLES          *
               *****************************************************


----------------
TOTAL SCF ENERGY
----------------

Total Energy       :         -406.86101452 Eh          -11071.25106 eV

Components:
Nuclear Repulsion  :          220.38014879 Eh            5996.84872 eV
Electronic Energy  :         -627.24116331 Eh          -17068.09978 eV
One Electron Energy:        -1144.54308730 Eh          -31144.60077 eV
Two Electron Energy:          517.30192399 Eh           14076.50099 eV

Virial components:
Potential Energy   :         -544.48006100 Eh          -14816.05569 eV
Kinetic Energy     :          137.61904649 Eh            3744.80464 eV
Virial Ratio       :            3.95642954


DFT components:
N(Alpha)           :       27.999992645066 electrons
N(Beta)            :       27.999992645066 electrons
N(Total)           :       55.999985290132 electrons
E(X)               :      -32.244396754739 Eh       
E(C)               :       -2.415292205642 Eh       
E(XC)              :      -34.659688960380 Eh       
DFET-embed. en.    :        0.000000000000 Eh       

---------------
SCF CONVERGENCE
---------------

  Last Energy change         ...   -1.0897e-09  Tolerance :   1.0000e-08
  Last MAX-Density change    ...    9.4959e-07  Tolerance :   1.0000e-07
  Last RMS-Density change    ...    2.5501e-08  Tolerance :   5.0000e-09
  Last DIIS Error            ...    5.6359e-07  Tolerance :   5.0000e-07

             **** THE GBW FILE WAS UPDATED (Au03C1_D3H.gbw) ****
             **** DENSITY FILE WAS UPDATED (Au03C1_D3H.scfp) ****
             **** ENERGY FILE WAS UPDATED (Au03C1_D3H.en.tmp) ****
             **** THE GBW FILE WAS UPDATED (Au03C1_D3H.gbw) ****
             **** DENSITY FILE WAS UPDATED (Au03C1_D3H.scfp) ****
----------------
ORBITAL ENERGIES
----------------

  NO   OCC          E(Eh)            E(eV) 
   0   2.0000      -4.294262      -116.8528 
   1   2.0000      -4.293698      -116.8375 
   2   2.0000      -4.293697      -116.8374 
   3   2.0000      -2.497316       -67.9554 
   4   2.0000      -2.490346       -67.7658 
   5   2.0000      -2.490340       -67.7656 
   6   2.0000      -2.484766       -67.6139 
   7   2.0000      -2.484751       -67.6135 
   8   2.0000      -2.482913       -67.5635 
   9   2.0000      -2.480263       -67.4914 
  10   2.0000      -2.479255       -67.4640 
  11   2.0000      -2.479251       -67.4639 
  12   2.0000      -0.584668       -15.9096 
  13   2.0000      -0.543818       -14.7980 
  14   2.0000      -0.543814       -14.7979 
  15   2.0000      -0.533755       -14.5242 
  16   2.0000      -0.513118       -13.9627 
  17   2.0000      -0.502332       -13.6691 
  18   2.0000      -0.502327       -13.6690 
  19   2.0000      -0.473149       -12.8750 
  20   2.0000      -0.473147       -12.8750 
  21   2.0000      -0.467785       -12.7291 
  22   2.0000      -0.466341       -12.6898 
  23   2.0000      -0.466330       -12.6895 
  24   2.0000      -0.464706       -12.6453 
  25   2.0000      -0.463866       -12.6224 
  26   2.0000      -0.463864       -12.6224 
  27   2.0000      -0.438541       -11.9333 
  28   0.0000      -0.323619        -8.8061 
  29   0.0000      -0.323618        -8.8061 
  30   0.0000      -0.212927        -5.7940 
  31   0.0000      -0.186154        -5.0655 
  32   0.0000      -0.171445        -4.6652 
  33   0.0000      -0.171443        -4.6652 
  34   0.0000      -0.115533        -3.1438 
  35   0.0000      -0.115532        -3.1438 
  36   0.0000      -0.060574        -1.6483 
  37   0.0000      -0.060573        -1.6483 
  38   0.0000      -0.043232        -1.1764 
  39   0.0000      -0.005533        -0.1506 
  40   0.0000       0.012002         0.3266 
  41   0.0000       0.017547         0.4775 
  42   0.0000       0.033335         0.9071 
  43   0.0000       0.033337         0.9071 
  44   0.0000       0.070999         1.9320 
  45   0.0000       0.070999         1.9320 
  46   0.0000       0.084433         2.2975 
  47   0.0000       0.084434         2.2976 
  48   0.0000       0.115602         3.1457 
  49   0.0000       0.138234         3.7615 
  50   0.0000       0.141610         3.8534 
  51   0.0000       0.141613         3.8535 
  52   0.0000       0.155778         4.2389 
  53   0.0000       0.155784         4.2391 
  54   0.0000       0.168404         4.5825 
  55   0.0000       0.216936         5.9031 
  56   0.0000       0.216937         5.9031 
  57   0.0000       0.249010         6.7759 
  58   0.0000       0.287780         7.8309 
  59   0.0000       0.287786         7.8310 
  60   0.0000       0.296787         8.0760 
  61   0.0000       0.296787         8.0760 
  62   0.0000       0.308459         8.3936 
  63   0.0000       0.382764        10.4155 
  64   0.0000       0.382774        10.4158 
  65   0.0000       0.397110        10.8059 
  66   0.0000       0.601996        16.3811 
  67   0.0000       0.699275        19.0282 
  68   0.0000       0.707596        19.2547 
  69   0.0000       0.707604        19.2549 
  70   0.0000       0.713088        19.4041 
  71   0.0000       0.786390        21.3988 
  72   0.0000       0.786394        21.3989 
  73   0.0000       0.852555        23.1992 
  74   0.0000       0.873759        23.7762 
  75   0.0000       0.873764        23.7763 
  76   0.0000       0.880054        23.9475 
  77   0.0000       0.881201        23.9787 
  78   0.0000       0.881209        23.9789 
  79   0.0000       0.905700        24.6453 
  80   0.0000       0.905700        24.6454 
  81   0.0000       0.940473        25.5916 
  82   0.0000       0.952851        25.9284 
  83   0.0000       0.952859        25.9286 
  84   0.0000       1.008394        27.4398 
  85   0.0000       1.025778        27.9128 
  86   0.0000       1.025787        27.9131 
  87   0.0000       1.115117        30.3439 
  88   0.0000       1.130060        30.7505 
  89   0.0000       1.130064        30.7506 
  90   0.0000       1.134419        30.8691 
  91   0.0000       1.151148        31.3243 
  92   0.0000       1.151156        31.3245 
  93   0.0000       1.173509        31.9328 
  94   0.0000       1.173516        31.9330 
  95   0.0000       1.233768        33.5725 
  96   0.0000       1.244171        33.8556 
  97   0.0000       1.246073        33.9074 
  98   0.0000       1.256501        34.1911 
  99   0.0000       1.256511        34.1914 
 100   0.0000       1.289609        35.0920 
 101   0.0000       1.289615        35.0922 
 102   0.0000       1.307880        35.5892 
 103   0.0000       1.377144        37.4740 
 104   0.0000       1.389721        37.8162 
 105   0.0000       1.389727        37.8164 
 106   0.0000       1.445403        39.3314 
 107   0.0000       1.445435        39.3323 
 108   0.0000       1.656144        45.0660 
 109   0.0000       1.656201        45.0675 
 110   0.0000       1.869457        50.8705 
 111   0.0000       1.906207        51.8705 
 112   0.0000       2.438534        66.3559 
 113   0.0000       2.438565        66.3567 
 114   0.0000       3.215436        87.4965 
 115   0.0000       3.248640        88.4000 
 116   0.0000       3.271261        89.0155 
 117   0.0000       3.271358        89.0182 
 118   0.0000       3.313428        90.1630 
 119   0.0000       3.332015        90.6687 
 120   0.0000       3.332168        90.6729 
 121   0.0000       3.394783        92.3768 
 122   0.0000       3.395013        92.3830 
 123   0.0000       3.414293        92.9076 
 124   0.0000       3.432147        93.3935 
 125   0.0000       3.435997        93.4982 
 126   0.0000       3.436057        93.4999 
 127   0.0000       3.549717        96.5927 
 128   0.0000       3.572090        97.2015 
 129   0.0000       3.572272        97.2065 
 130   0.0000       3.576448        97.3201 
 131   0.0000       3.577007        97.3353 
 132   0.0000       3.658478        99.5522 
 133   0.0000       3.658865        99.5628 
 134   0.0000       3.723327       101.3169 
 135   0.0000       3.889320       105.8338 
 136   0.0000       3.889737       105.8451 
 137   0.0000       3.892644       105.9242 
 138   0.0000       3.896992       106.0425 
 139   0.0000       3.897403       106.0537 
 140   0.0000       3.899409       106.1083 
 141   0.0000       3.904649       106.2509 
 142   0.0000       3.905054       106.2619 
 143   0.0000       3.905592       106.2766 
 144   0.0000       3.905746       106.2807 
 145   0.0000       3.908075       106.3441 
 146   0.0000       3.908173       106.3468 
 147   0.0000       3.913065       106.4799 
 148   0.0000       3.913086       106.4805 
 149   0.0000       3.913492       106.4915 
 150   0.0000       3.913746       106.4984 
 151   0.0000       3.913933       106.5035 
 152   0.0000       3.914136       106.5091 
 153   0.0000       3.918492       106.6276 
 154   0.0000       3.956920       107.6733 
 155   0.0000       3.964587       107.8819 
 156   0.0000       3.964587       107.8819 
 157   0.0000       3.972799       108.1054 
 158   0.0000       3.972839       108.1064 
 159   0.0000       4.111794       111.8876 
 160   0.0000       4.111865       111.8895 
 161   0.0000       4.238007       115.3220 
 162   0.0000      26.990657       734.4531 
 163   0.0000      27.179433       739.5900 
 164   0.0000      27.179628       739.5953 
 165   0.0000      27.269992       742.0542 
 166   0.0000      27.394335       745.4378 
 167   0.0000      27.394398       745.4395 
 168   0.0000      28.970507       788.3276 
 169   0.0000      29.686560       807.8124 
 170   0.0000      29.686618       807.8140 
 171   0.0000      43.729867      1189.9502 
 172   0.0000      44.262714      1204.4497 
 173   0.0000      44.262716      1204.4497 
 174   0.0000     204.883352      5575.1595 
 175   0.0000     205.114683      5581.4543 
 176   0.0000     205.114686      5581.4544 

                    ********************************
                    * MULLIKEN POPULATION ANALYSIS *
                    ********************************

-----------------------
MULLIKEN ATOMIC CHARGES
-----------------------
   0 Au:    0.333362
   1 Au:    0.333318
   2 Au:    0.333320
Sum of atomic charges:    1.0000000

--------------------------------
MULLIKEN REDUCED ORBITAL CHARGES
--------------------------------
  0 Aus       :     2.748072  s :     2.748072
      pz      :     2.017254  p :     6.100823
      px      :     2.027375
      py      :     2.056194
      dz2     :     1.970218  d :     9.805716
      dxz     :     1.993201
      dyz     :     1.985768
      dx2y2   :     1.966386
      dxy     :     1.890143
      f0      :     0.001294  f :     0.011838
      f+1     :     0.000669
      f-1     :     0.001578
      f+2     :     0.000771
      f-2     :     0.001652
      f+3     :     0.002970
      f-3     :     0.002905
      g0      :     0.000016  g :     0.000189
      g+1     :     0.000010
      g-1     :     0.000025
      g+2     :     0.000013
      g-2     :     0.000021
      g+3     :     0.000020
      g-3     :     0.000005
      g+4     :     0.000036
      g-4     :     0.000042
  1 Aus       :     2.748090  s :     2.748090
      pz      :     2.017255  p :     6.100837
      px      :     2.049008
      py      :     2.034574
      dz2     :     1.970237  d :     9.805728
      dxz     :     1.987625
      dyz     :     1.991344
      dx2y2   :     1.909185
      dxy     :     1.947336
      f0      :     0.001294  f :     0.011838
      f+1     :     0.001350
      f-1     :     0.000896
      f+2     :     0.001431
      f-2     :     0.000991
      f+3     :     0.002969
      f-3     :     0.002905
      g0      :     0.000016  g :     0.000189
      g+1     :     0.000022
      g-1     :     0.000014
      g+2     :     0.000019
      g-2     :     0.000015
      g+3     :     0.000020
      g-3     :     0.000005
      g+4     :     0.000040
      g-4     :     0.000038
  2 Aus       :     2.748089  s :     2.748089
      pz      :     2.017255  p :     6.100836
      px      :     2.049008
      py      :     2.034574
      dz2     :     1.970237  d :     9.805728
      dxz     :     1.987625
      dyz     :     1.991344
      dx2y2   :     1.909185
      dxy     :     1.947336
      f0      :     0.001294  f :     0.011838
      f+1     :     0.001350
      f-1     :     0.000896
      f+2     :     0.001431
      f-2     :     0.000991
      f+3     :     0.002969
      f-3     :     0.002905
      g0      :     0.000016  g :     0.000189
      g+1     :     0.000022
      g-1     :     0.000014
      g+2     :     0.000019
      g-2     :     0.000015
      g+3     :     0.000020
      g-3     :     0.000005
      g+4     :     0.000040
      g-4     :     0.000038


                     *******************************
                     * LOEWDIN POPULATION ANALYSIS *
                     *******************************

----------------------
LOEWDIN ATOMIC CHARGES
----------------------
   0 Au:    0.333331
   1 Au:    0.333335
   2 Au:    0.333335

-------------------------------
LOEWDIN REDUCED ORBITAL CHARGES
-------------------------------
  0 Aus       :     2.574190  s :     2.574190
      pz      :     2.020826  p :     6.203409
      px      :     2.046875
      py      :     2.135708
      dz2     :     1.994880  d :     9.868612
      dxz     :     1.992273
      dyz     :     1.981437
      dx2y2   :     1.973766
      dxy     :     1.926257
      f0      :     0.001859  f :     0.020180
      f+1     :     0.001276
      f-1     :     0.002695
      f+2     :     0.001000
      f-2     :     0.002529
      f+3     :     0.006660
      f-3     :     0.004162
      g0      :     0.000022  g :     0.000278
      g+1     :     0.000012
      g-1     :     0.000032
      g+2     :     0.000019
      g-2     :     0.000036
      g+3     :     0.000029
      g-3     :     0.000005
      g+4     :     0.000049
      g-4     :     0.000073
  1 Aus       :     2.574199  s :     2.574199
      pz      :     2.020825  p :     6.203405
      px      :     2.113500
      py      :     2.069079
      dz2     :     1.994889  d :     9.868605
      dxz     :     1.984144
      dyz     :     1.989564
      dx2y2   :     1.938119
      dxy     :     1.961890
      f0      :     0.001859  f :     0.020179
      f+1     :     0.002340
      f-1     :     0.001630
      f+2     :     0.002147
      f-2     :     0.001382
      f+3     :     0.006660
      f-3     :     0.004162
      g0      :     0.000022  g :     0.000278
      g+1     :     0.000027
      g-1     :     0.000017
      g+2     :     0.000031
      g-2     :     0.000023
      g+3     :     0.000029
      g-3     :     0.000005
      g+4     :     0.000067
      g-4     :     0.000055
  2 Aus       :     2.574199  s :     2.574199
      pz      :     2.020825  p :     6.203405
      px      :     2.113500
      py      :     2.069079
      dz2     :     1.994889  d :     9.868605
      dxz     :     1.984144
      dyz     :     1.989564
      dx2y2   :     1.938119
      dxy     :     1.961890
      f0      :     0.001859  f :     0.020179
      f+1     :     0.002340
      f-1     :     0.001630
      f+2     :     0.002147
      f-2     :     0.001382
      f+3     :     0.006660
      f-3     :     0.004162
      g0      :     0.000022  g :     0.000278
      g+1     :     0.000027
      g-1     :     0.000017
      g+2     :     0.000031
      g-2     :     0.000023
      g+3     :     0.000029
      g-3     :     0.000005
      g+4     :     0.000067
      g-4     :     0.000055


                      *****************************
                      * MAYER POPULATION ANALYSIS *
                      *****************************

  NA   - Mulliken gross atomic population
  ZA   - Total nuclear charge
  QA   - Mulliken gross atomic charge
  VA   - Mayer's total valence
  BVA  - Mayer's bonded valence
  FA   - Mayer's free valence

  ATOM       NA         ZA         QA         VA         BVA        FA
  0 Au    18.6666    19.0000     0.3334     1.3498     1.3498    -0.0000
  1 Au    18.6667    19.0000     0.3333     1.3499     1.3499    -0.0000
  2 Au    18.6667    19.0000     0.3333     1.3499     1.3499    -0.0000

  Mayer bond orders larger than 0.100000
B(  0-Au,  1-Au) :   0.6749 B(  0-Au,  2-Au) :   0.6749 B(  1-Au,  2-Au) :   0.6750 


-------
TIMINGS
-------

Total SCF time: 0 days 0 hours 0 min 7 sec 

Total time                  ....       7.592 sec
Sum of individual times     ....       7.383 sec  ( 97.2%)

Fock matrix formation       ....       5.908 sec  ( 77.8%)
  XC integration            ....       0.660 sec  ( 11.2% of F)
    Basis function eval.    ....       0.059 sec  (  8.9% of XC)
    Density eval.           ....       0.098 sec  ( 14.8% of XC)
    XC-Functional eval.     ....       0.036 sec  (  5.5% of XC)
    XC-Potential eval.      ....       0.170 sec  ( 25.8% of XC)
Diagonalization             ....       0.055 sec  (  0.7%)
Density matrix formation    ....       0.008 sec  (  0.1%)
Population analysis         ....       0.005 sec  (  0.1%)
Initial guess               ....       1.013 sec  ( 13.3%)
Orbital Transformation      ....       0.000 sec  (  0.0%)
Orbital Orthonormalization  ....       0.000 sec  (  0.0%)
DIIS solution               ....       0.022 sec  (  0.3%)
Grid generation             ....       0.371 sec  (  4.9%)


-------------------------------------------------------------------------------
                          DFT DISPERSION CORRECTION                            
                                                                               
                              DFTD3 V3.1  Rev 1                                
                          USING Becke-Johnson damping                          
-------------------------------------------------------------------------------
The TPSSH functional is recognized
Active option DFTDOPT                   ...         4   

molecular C6(AA) [au] = 2854.409636 


            DFT-D V3
 parameters
 s6 scaling factor         :     1.0000 
 a1 scaling factor         :     0.4529 
 s8 scaling factor         :     2.2382 
 a2 scaling factor         :     4.6550 
 ad hoc parameters k1-k3   :    16.0000     1.3333    -4.0000 

 Edisp/kcal,au: -3.687012435461  -0.005875627691 
 E6   /kcal   :  -1.005379320 
 E8   /kcal   :  -2.681633116 
 % E8         :  72.731870663 

-------------------------   ----------------
Dispersion correction           -0.005875628
-------------------------   ----------------


-------------------------   --------------------
FINAL SINGLE POINT ENERGY      -406.866890146261
-------------------------   --------------------



           ************************************************************
           *        Program running with 24 parallel MPI-processes    *
           *              working on a common directory               *
           ************************************************************
------------------------------------------------------------------------------
                         ORCA SCF GRADIENT CALCULATION
------------------------------------------------------------------------------

Gradient of the Kohn-Sham DFT energy:
Kohn-Sham wavefunction type      ... RKS
Hartree-Fock exchange scaling    ...    0.100
Number of operators              ...    1
Number of atoms                  ...    3
Basis set dimensions             ...  177
Integral neglect threshold       ... 2.5e-11
Integral primitive cutoff        ... 2.5e-12

Nuclear repulsion gradient       ... done
One Electron Gradient            
  ECP gradient                   ... done
Pre-screening matrix             ... done
Starting the two electron gradient:
Two electron gradient done
Exchange-correlation gradient    ... done
Dispersion correction            ... done

------------------
CARTESIAN GRADIENT
------------------

   1   Au  :    0.000000009   -0.006322722   -0.000000001
   2   Au  :   -0.005446086    0.003207163    0.000000004
   3   Au  :    0.005446088    0.003207159   -0.000000005

Difference to translation invariance:
           :    0.0000000112    0.0000916009   -0.0000000018

Norm of the cartesian gradient     ...    0.0109484382
RMS gradient                       ...    0.0036494794
MAX gradient                       ...    0.0063227218

-------
TIMINGS
-------

Total SCF gradient time            ...        4.590 sec

One electron gradient       ....       1.294 sec  ( 28.2%)
Prescreening matrices       ....       0.046 sec  (  1.0%)
Two electron gradient       ....       2.929 sec  ( 63.8%)
XC gradient                 ....       0.100 sec  (  2.2%)
------------------------------------------------------------------------------
                         ORCA GEOMETRY RELAXATION STEP
------------------------------------------------------------------------------

Reading the OPT-File                    .... done
Getting information on internals        .... done
Copying old internal coords+grads       .... done
Making the new internal coordinates     .... (new redundants).... done
Validating the new internal coordinates .... (new redundants).... done
Calculating the B-matrix                .... done
Calculating the G,G- and P matrices     .... done
Transforming gradient to internals      .... done
Projecting the internal gradient        .... done
Number of atoms                         ....   3
Number of internal coordinates          ....   6
Current Energy                          ....  -406.866890146 Eh
Current gradient norm                   ....     0.010948438 Eh/bohr
Maximum allowed component of the step   ....  0.300
Current trust radius                    ....  0.300
Evaluating the initial hessian          ....  (Almloef) done
Projecting the Hessian                  .... done
Forming the augmented Hessian           .... done
Diagonalizing the augmented Hessian     .... done
Last element of RFO vector              ....  0.934451990
Lowest eigenvalues of augmented Hessian:
 -0.002408742  0.016587461  0.030012254  0.030012319 1000.000000000
Length of the computed step             ....  0.381067351
Warning: the length of the step is outside the trust region - taking restricted step instead
The input lambda is                     ....    -0.002409
   iter:   1  x=   -0.005562  g=   17.508510 f(x)=     0.055212
   iter:   2  x=   -0.006768  g=   10.386962 f(x)=     0.012525
   iter:   3  x=   -0.006890  g=    8.694412 f(x)=     0.001061
   iter:   4  x=   -0.006891  g=    8.544239 f(x)=     0.000009
   iter:   5  x=   -0.006891  g=    8.542930 f(x)=     0.000000
   iter:   6  x=   -0.006891  g=    8.542930 f(x)=     0.000000
The output lambda is                    ....    -0.006891 (6 iterations)
The final length of the internal step   ....  0.300000000
Converting the step to cartesian space:
 Initial RMS(Int)=    0.1224744871
Transforming coordinates:
 Iter   0:  RMS(Cart)=    0.0577353680 RMS(Int)=    0.1224745085
 Iter   1:  RMS(Cart)=    0.0000011193 RMS(Int)=    0.0000017738
 Iter   2:  RMS(Cart)=    0.0000000041 RMS(Int)=    0.0000000066
done
Storing new coordinates                 .... done

                                .--------------------.
          ----------------------|Geometry convergence|-------------------------
          Item                value                   Tolerance       Converged
          ---------------------------------------------------------------------
          RMS gradient        0.0025805678            0.0001000000      NO
          MAX gradient        0.0036659950            0.0003000000      NO
          RMS step            0.1224744871            0.0020000000      NO
          MAX step            0.1736536949            0.0040000000      NO
          ........................................................
          Max(Bonds)      0.0919      Max(Angles)    0.02
          Max(Dihed)        0.00      Max(Improp)    0.00
          ---------------------------------------------------------------------

The optimization has not yet converged - more geometry cycles are needed


    ---------------------------------------------------------------------------
                         Redundant Internal Coordinates
                            (Angstroem and degrees)

        Definition                    Value    dE/dq     Step     New-Value
    ----------------------------------------------------------------------------
     1. B(Au  1,Au  0)                2.6005 -0.003666  0.0919    2.6924   
     2. B(Au  2,Au  1)                2.6005 -0.003616  0.0912    2.6917   
     3. B(Au  2,Au  0)                2.6005 -0.003666  0.0919    2.6924   
     4. A(Au  1,Au  0,Au  2)           60.00  0.000012   -0.02     59.98   
     5. A(Au  0,Au  1,Au  2)           60.00 -0.000006    0.01     60.01   
     6. A(Au  0,Au  2,Au  1)           60.00 -0.000006    0.01     60.01   
    ----------------------------------------------------------------------------

         *************************************************************
         *                GEOMETRY OPTIMIZATION CYCLE   2            *
         *************************************************************
---------------------------------
CARTESIAN COORDINATES (ANGSTROEM)
---------------------------------
  Au    -0.000000    1.554593    0.000000
  Au     1.345840   -0.777297    0.000000
  Au    -1.345840   -0.777297    0.000000

----------------------------
CARTESIAN COORDINATES (A.U.)
----------------------------
  NO LB      ZA    FRAG     MASS         X           Y           Z
   0 Au   19.0000*   0   196.966   -0.000000    2.937755    0.000000
   1 Au   19.0000*   0   196.966    2.543269   -1.468878    0.000000
   2 Au   19.0000*   0   196.966   -2.543269   -1.468878    0.000000
* core charge reduced due to ECP

--------------------------------
INTERNAL COORDINATES (ANGSTROEM)
--------------------------------
 Au     0   0   0     0.000000000000     0.00000000     0.00000000
 Au     1   0   0     2.692395791865     0.00000000     0.00000000
 Au     2   1   0     2.691679597347    60.00879659     0.00000000

---------------------------
INTERNAL COORDINATES (A.U.)
---------------------------
 Au     0   0   0     0.000000000000     0.00000000     0.00000000
 Au     1   0   0     5.087890690746     0.00000000     0.00000000
 Au     2   1   0     5.086537279249    60.00879659     0.00000000



           ************************************************************
           *        Program running with 24 parallel MPI-processes    *
           *              working on a common directory               *
           ************************************************************


           ************************************************************
           *        Program running with 24 parallel MPI-processes    *
           *              working on a common directory               *
           ************************************************************

Diagonalization of the overlap matrix:
Smallest eigenvalue                        ... 1.914e-03
Time for diagonalization                   ...    0.007 sec
Threshold for overlap eigenvalues          ... 1.000e-08
Number of eigenvalues below threshold      ... 0
Time for construction of square roots      ...    0.004 sec
Total time needed                          ...    0.011 sec

-------------------
DFT GRID GENERATION
-------------------

General Integration Accuracy     IntAcc      ...  4.670
Radial Grid Type                 RadialGrid  ... Gauss-Chebyshev
Angular Grid (max. acc.)         AngularGrid ... Lebedev-302
Angular grid pruning method      GridPruning ... 3 (G Style)
Weight generation scheme         WeightScheme... Becke
Basis function cutoff            BFCut       ...    1.0000e-11
Integration weight cutoff        WCut        ...    1.0000e-14
Grids for H and He will be reduced by one unit

# of grid points (after initial pruning)     ...  34956 (   0.0 sec)
# of grid points (after weights+screening)   ...  34820 (   0.0 sec)
nearest neighbour list constructed           ...    0.0 sec
Grid point re-assignment to atoms done       ...    0.0 sec
Grid point division into batches done        ...    0.3 sec
Reduced shell lists constructed in    0.3 sec

Total number of grid points                  ...    34820
Total number of batches                      ...      545
Average number of points per batch           ...       63
Average number of grid points per atom       ...    11607
Average number of shells per batch           ...     4.96 ( 9.72%)
Average number of basis functions per batch  ...    13.12 ( 7.42%)
Average number of large shells per batch     ...     2.92 (58.82%)
Average number of large basis fcns per batch ...     6.83 (52.06%)
Maximum spatial batch extension              ...  27.67, 23.02, 24.85 au
Average spatial batch extension              ...   0.73,  0.62,  0.66 au

Time for grid setup =    0.368 sec

--------------
SCF ITERATIONS
--------------
ITER       Energy         Delta-E        Max-DP      RMS-DP      [F,P]     Damp
               ***  Starting incremental Fock matrix formation  ***
  0   -406.8578960111   0.000000000000 0.00411454  0.00011137  0.1664016 0.7000
  1   -406.8583374238  -0.000441412676 0.00458376  0.00010730  0.1166028 0.7000
                               ***Turning on DIIS***
  2   -406.8586434261  -0.000306002286 0.01332496  0.00028681  0.0816383 0.0000
  3   -406.8593638923  -0.000720466146 0.00208454  0.00005246  0.0010316 0.0000
  4   -406.8593720350  -0.000008142705 0.00086576  0.00002136  0.0012679 0.0000
  5   -406.8593811352  -0.000009100199 0.00112647  0.00003079  0.0002173 0.0000
  6   -406.8593831429  -0.000002007701 0.00018712  0.00000619  0.0001601 0.0000
  7   -406.8593832900  -0.000000147160 0.00006302  0.00000239  0.0000760 0.0000
  8   -406.8593833437  -0.000000053642 0.00001399  0.00000048  0.0000209 0.0000
  9   -406.8593833462  -0.000000002543 0.00000408  0.00000010  0.0000027 0.0000
                 **** Energy Check signals convergence ****

               *****************************************************
               *                     SUCCESS                       *
               *           SCF CONVERGED AFTER  10 CYCLES          *
               *****************************************************

Total Energy       :         -406.85938335 Eh          -11071.20667 eV
  Last Energy change         ...    2.1248e-10  Tolerance :   1.0000e-08
  Last MAX-Density change    ...    1.3767e-06  Tolerance :   1.0000e-07
             **** THE GBW FILE WAS UPDATED (Au03C1_D3H.gbw) ****
             **** DENSITY FILE WAS UPDATED (Au03C1_D3H.scfp) ****
             **** ENERGY FILE WAS UPDATED (Au03C1_D3H.en.tmp) ****
             **** THE GBW FILE WAS UPDATED (Au03C1_D3H.gbw) ****
             **** DENSITY FILE WAS UPDATED (Au03C1_D3H.scfp) ****
Total SCF time: 0 days 0 hours 0 min 5 sec 


-------------------------------------------------------------------------------
                          DFT DISPERSION CORRECTION                            
                                                                               
                              DFTD3 V3.1  Rev 1                                
                          USING Becke-Johnson damping                          
-------------------------------------------------------------------------------
-------------------------   ----------------
Dispersion correction           -0.005857399
-------------------------   ----------------


-------------------------   --------------------
FINAL SINGLE POINT ENERGY      -406.865240745477
-------------------------   --------------------



           ************************************************************
           *        Program running with 24 parallel MPI-processes    *
           *              working on a common directory               *
           ************************************************************
------------------------------------------------------------------------------
                         ORCA SCF GRADIENT CALCULATION
------------------------------------------------------------------------------

Gradient of the Kohn-Sham DFT energy:
Kohn-Sham wavefunction type      ... RKS
Hartree-Fock exchange scaling    ...    0.100
Number of operators              ...    1
Number of atoms                  ...    3
Basis set dimensions             ...  177
Integral neglect threshold       ... 2.5e-11
Integral primitive cutoff        ... 2.5e-12

Nuclear repulsion gradient       ... done
One Electron Gradient            
  ECP gradient                   ... done
Pre-screening matrix             ... done
Starting the two electron gradient:
Two electron gradient done
Exchange-correlation gradient    ... done
Dispersion correction            ... done

------------------
CARTESIAN GRADIENT
------------------

   1   Au  :   -0.000000006    0.014486654   -0.000000002
   2   Au  :    0.012510615   -0.007187768   -0.000000001
   3   Au  :   -0.012510606   -0.007187757   -0.000000001

Difference to translation invariance:
           :    0.0000000038    0.0001111285   -0.0000000047

Norm of the cartesian gradient     ...    0.0250244232
RMS gradient                       ...    0.0083414744
MAX gradient                       ...    0.0144866538

-------
TIMINGS
-------

Total SCF gradient time            ...        4.519 sec

One electron gradient       ....       1.315 sec  ( 29.1%)
Prescreening matrices       ....       0.046 sec  (  1.0%)
Two electron gradient       ....       2.840 sec  ( 62.9%)
XC gradient                 ....       0.091 sec  (  2.0%)
------------------------------------------------------------------------------
                         ORCA GEOMETRY RELAXATION STEP
------------------------------------------------------------------------------

Reading the OPT-File                    .... done
Getting information on internals        .... done
Copying old internal coords+grads       .... done
Making the new internal coordinates     .... (new redundants).... done
Validating the new internal coordinates .... (new redundants).... done
Calculating the B-matrix                .... done
Calculating the G,G- and P matrices     .... done
Transforming gradient to internals      .... done
Projecting the internal gradient        .... done
Number of atoms                         ....   3
Number of internal coordinates          ....   6
Current Energy                          ....  -406.865240745 Eh
Current gradient norm                   ....     0.025024423 Eh/bohr
Maximum allowed component of the step   ....  0.300
Current trust radius                    ....  0.300
Updating the Hessian (BFGS)             .... done
Forming the augmented Hessian           .... done
Diagonalizing the augmented Hessian     .... done
Last element of RFO vector              ....  0.980520301
Lowest eigenvalues of augmented Hessian:
 -0.002894183  0.030011576  0.030012254  0.072123738 999.876299974
Length of the computed step             ....  0.200319938
The final length of the internal step   ....  0.200319938
Converting the step to cartesian space:
 Initial RMS(Int)=    0.0817802723
Transforming coordinates:
 Iter   0:  RMS(Cart)=    0.0385516025 RMS(Int)=    0.0817802718
 Iter   1:  RMS(Cart)=    0.0000001123 RMS(Int)=    0.0000001785
 Iter   2:  RMS(Cart)=    0.0000000003 RMS(Int)=    0.0000000004
done
Storing new coordinates                 .... done

                                .--------------------.
          ----------------------|Geometry convergence|-------------------------
          Item                value                   Tolerance       Converged
          ---------------------------------------------------------------------
          Energy change       0.0016494008            0.0000050000      NO
          RMS gradient        0.0058982937            0.0001000000      NO
          MAX gradient        0.0083417988            0.0003000000      NO
          RMS step            0.0817802723            0.0020000000      NO
          MAX step            0.1157729976            0.0040000000      NO
          ........................................................
          Max(Bonds)      0.0613      Max(Angles)    0.00
          Max(Dihed)        0.00      Max(Improp)    0.00
          ---------------------------------------------------------------------

The optimization has not yet converged - more geometry cycles are needed


    ---------------------------------------------------------------------------
                         Redundant Internal Coordinates
                            (Angstroem and degrees)

        Definition                    Value    dE/dq     Step     New-Value
    ----------------------------------------------------------------------------
     1. B(Au  1,Au  0)                2.6924  0.008342 -0.0612    2.6312   
     2. B(Au  2,Au  1)                2.6917  0.008341 -0.0613    2.6304   
     3. B(Au  2,Au  0)                2.6924  0.008342 -0.0612    2.6312   
     4. A(Au  1,Au  0,Au  2)           59.98  0.000000   -0.00     59.98   
     5. A(Au  0,Au  1,Au  2)           60.01 -0.000000    0.00     60.01   
     6. A(Au  0,Au  2,Au  1)           60.01 -0.000000    0.00     60.01   
    ----------------------------------------------------------------------------

         *************************************************************
         *                GEOMETRY OPTIMIZATION CYCLE   3            *
         *************************************************************
---------------------------------
CARTESIAN COORDINATES (ANGSTROEM)
---------------------------------
  Au    -0.000000    1.519294    0.000000
  Au     1.315208   -0.759647    0.000000
  Au    -1.315208   -0.759647    0.000000

----------------------------
CARTESIAN COORDINATES (A.U.)
----------------------------
  NO LB      ZA    FRAG     MASS         X           Y           Z
   0 Au   19.0000*   0   196.966   -0.000000    2.871050    0.000000
   1 Au   19.0000*   0   196.966    2.485382   -1.435525    0.000000
   2 Au   19.0000*   0   196.966   -2.485382   -1.435525    0.000000
* core charge reduced due to ECP

--------------------------------
INTERNAL COORDINATES (ANGSTROEM)
--------------------------------
 Au     0   0   0     0.000000000000     0.00000000     0.00000000
 Au     1   0   0     2.631225257317     0.00000000     0.00000000
 Au     2   1   0     2.630415067878    60.01018392     0.00000000

---------------------------
INTERNAL COORDINATES (A.U.)
---------------------------
 Au     0   0   0     0.000000000000     0.00000000     0.00000000
 Au     1   0   0     4.972295132986     0.00000000     0.00000000
 Au     2   1   0     4.970764096829    60.01018392     0.00000000



           ************************************************************
           *        Program running with 24 parallel MPI-processes    *
           *              working on a common directory               *
           ************************************************************


           ************************************************************
           *        Program running with 24 parallel MPI-processes    *
           *              working on a common directory               *
           ************************************************************

Diagonalization of the overlap matrix:
Smallest eigenvalue                        ... 1.705e-03
Time for diagonalization                   ...    0.005 sec
Threshold for overlap eigenvalues          ... 1.000e-08
Number of eigenvalues below threshold      ... 0
Time for construction of square roots      ...    0.003 sec
Total time needed                          ...    0.009 sec

-------------------
DFT GRID GENERATION
-------------------

General Integration Accuracy     IntAcc      ...  4.670
Radial Grid Type                 RadialGrid  ... Gauss-Chebyshev
Angular Grid (max. acc.)         AngularGrid ... Lebedev-302
Angular grid pruning method      GridPruning ... 3 (G Style)
Weight generation scheme         WeightScheme... Becke
Basis function cutoff            BFCut       ...    1.0000e-11
Integration weight cutoff        WCut        ...    1.0000e-14
Grids for H and He will be reduced by one unit

# of grid points (after initial pruning)     ...  34956 (   0.0 sec)
# of grid points (after weights+screening)   ...  34814 (   0.0 sec)
nearest neighbour list constructed           ...    0.0 sec
Grid point re-assignment to atoms done       ...    0.0 sec
Grid point division into batches done        ...    0.3 sec
Reduced shell lists constructed in    0.3 sec

Total number of grid points                  ...    34814
Total number of batches                      ...      545
Average number of points per batch           ...       63
Average number of grid points per atom       ...    11605
Average number of shells per batch           ...     4.96 ( 9.72%)
Average number of basis functions per batch  ...    13.12 ( 7.42%)
Average number of large shells per batch     ...     3.00 (60.50%)
Average number of large basis fcns per batch ...     6.92 (52.70%)
Maximum spatial batch extension              ...  27.55, 22.92, 24.85 au
Average spatial batch extension              ...   0.73,  0.63,  0.66 au

Time for grid setup =    0.358 sec

--------------
SCF ITERATIONS
--------------
ITER       Energy         Delta-E        Max-DP      RMS-DP      [F,P]     Damp
               ***  Starting incremental Fock matrix formation  ***
  0   -406.8605321934   0.000000000000 0.00268579  0.00007345  0.1092844 0.7000
  1   -406.8607251413  -0.000192947959 0.00299313  0.00007045  0.0765775 0.7000
                               ***Turning on DIIS***
  2   -406.8608573961  -0.000132254833 0.00867198  0.00018702  0.0536144 0.0000
  3   -406.8611669380  -0.000309541905 0.00229089  0.00005377  0.0007203 0.0000
  4   -406.8611671107  -0.000000172624 0.00031891  0.00001371  0.0012214 0.0000
  5   -406.8611748014  -0.000007690755 0.00028345  0.00001029  0.0002080 0.0000
  6   -406.8611753188  -0.000000517393 0.00009995  0.00000333  0.0000803 0.0000
  7   -406.8611753487  -0.000000029876 0.00003324  0.00000120  0.0000465 0.0000
  8   -406.8611753653  -0.000000016590 0.00000392  0.00000015  0.0000059 0.0000
                            ***DIIS convergence achieved***

               *****************************************************
               *                     SUCCESS                       *
               *           SCF CONVERGED AFTER   9 CYCLES          *
               *****************************************************

Total Energy       :         -406.86117537 Eh          -11071.25543 eV
  Last Energy change         ...   -6.2204e-10  Tolerance :   1.0000e-08
  Last MAX-Density change    ...    1.6632e-06  Tolerance :   1.0000e-07
             **** THE GBW FILE WAS UPDATED (Au03C1_D3H.gbw) ****
             **** DENSITY FILE WAS UPDATED (Au03C1_D3H.scfp) ****
             **** ENERGY FILE WAS UPDATED (Au03C1_D3H.en.tmp) ****
             **** THE GBW FILE WAS UPDATED (Au03C1_D3H.gbw) ****
             **** DENSITY FILE WAS UPDATED (Au03C1_D3H.scfp) ****
Total SCF time: 0 days 0 hours 0 min 5 sec 


-------------------------------------------------------------------------------
                          DFT DISPERSION CORRECTION                            
                                                                               
                              DFTD3 V3.1  Rev 1                                
                          USING Becke-Johnson damping                          
-------------------------------------------------------------------------------
-------------------------   ----------------
Dispersion correction           -0.005869973
-------------------------   ----------------


-------------------------   --------------------
FINAL SINGLE POINT ENERGY      -406.867045339302
-------------------------   --------------------



           ************************************************************
           *        Program running with 24 parallel MPI-processes    *
           *              working on a common directory               *
           ************************************************************
------------------------------------------------------------------------------
                         ORCA SCF GRADIENT CALCULATION
------------------------------------------------------------------------------

Gradient of the Kohn-Sham DFT energy:
Kohn-Sham wavefunction type      ... RKS
Hartree-Fock exchange scaling    ...    0.100
Number of operators              ...    1
Number of atoms                  ...    3
Basis set dimensions             ...  177
Integral neglect threshold       ... 2.5e-11
Integral primitive cutoff        ... 2.5e-12

Nuclear repulsion gradient       ... done
One Electron Gradient            
  ECP gradient                   ... done
Pre-screening matrix             ... done
Starting the two electron gradient:
Two electron gradient done
Exchange-correlation gradient    ... done
Dispersion correction            ... done

------------------
CARTESIAN GRADIENT
------------------

   1   Au  :    0.000000008    0.001710186   -0.000000002
   2   Au  :    0.001400317   -0.000804891    0.000000001
   3   Au  :   -0.001400314   -0.000804886   -0.000000000

Difference to translation invariance:
           :    0.0000000116    0.0001004083   -0.0000000020

Norm of the cartesian gradient     ...    0.0028534528
RMS gradient                       ...    0.0009511509
MAX gradient                       ...    0.0017101856

-------
TIMINGS
-------

Total SCF gradient time            ...        4.541 sec

One electron gradient       ....       1.302 sec  ( 28.7%)
Prescreening matrices       ....       0.046 sec  (  1.0%)
Two electron gradient       ....       2.882 sec  ( 63.5%)
XC gradient                 ....       0.115 sec  (  2.5%)
------------------------------------------------------------------------------
                         ORCA GEOMETRY RELAXATION STEP
------------------------------------------------------------------------------

Reading the OPT-File                    .... done
Getting information on internals        .... done
Copying old internal coords+grads       .... done
Making the new internal coordinates     .... (new redundants).... done
Validating the new internal coordinates .... (new redundants).... done
Calculating the B-matrix                .... done
Calculating the G,G- and P matrices     .... done
Transforming gradient to internals      .... done
Projecting the internal gradient        .... done
Number of atoms                         ....   3
Number of internal coordinates          ....   6
Current Energy                          ....  -406.867045339 Eh
Current gradient norm                   ....     0.002853453 Eh/bohr
Maximum allowed component of the step   ....  0.300
Current trust radius                    ....  0.300
Updating the Hessian (BFGS)             .... done
Forming the augmented Hessian           .... done
Diagonalizing the augmented Hessian     .... done
Last element of RFO vector              ....  0.999667358
Lowest eigenvalues of augmented Hessian:
 -0.000042477  0.030011399  0.030012254  0.063945820 999.876122474
Length of the computed step             ....  0.025799532
The final length of the internal step   ....  0.025799532
Converting the step to cartesian space:
 Initial RMS(Int)=    0.0105326149
Transforming coordinates:
 Iter   0:  RMS(Cart)=    0.0049713759 RMS(Int)=    0.0105325790
 Iter   1:  RMS(Cart)=    0.0000001097 RMS(Int)=    0.0000001769
 Iter   2:  RMS(Cart)=    0.0000000000 RMS(Int)=    0.0000000000
done
Storing new coordinates                 .... done

                                .--------------------.
          ----------------------|Geometry convergence|-------------------------
          Item                value                   Tolerance       Converged
          ---------------------------------------------------------------------
          Energy change      -0.0018045938            0.0000050000      NO
          RMS gradient        0.0006725112            0.0001000000      NO
          MAX gradient        0.0009661092            0.0003000000      NO
          RMS step            0.0105326149            0.0020000000      NO
          MAX step            0.0154363203            0.0040000000      NO
          ........................................................
          Max(Bonds)      0.0082      Max(Angles)    0.02
          Max(Dihed)        0.00      Max(Improp)    0.00
          ---------------------------------------------------------------------

The optimization has not yet converged - more geometry cycles are needed


    ---------------------------------------------------------------------------
                         Redundant Internal Coordinates
                            (Angstroem and degrees)

        Definition                    Value    dE/dq     Step     New-Value
    ----------------------------------------------------------------------------
     1. B(Au  1,Au  0)                2.6312  0.000966 -0.0082    2.6231   
     2. B(Au  2,Au  1)                2.6304  0.000920 -0.0073    2.6231   
     3. B(Au  2,Au  0)                2.6312  0.000966 -0.0082    2.6231   
     4. A(Au  1,Au  0,Au  2)           59.98 -0.000011    0.02     60.00   
     5. A(Au  0,Au  1,Au  2)           60.01  0.000005   -0.01     60.00   
     6. A(Au  0,Au  2,Au  1)           60.01  0.000005   -0.01     60.00   
    ----------------------------------------------------------------------------

         *************************************************************
         *                GEOMETRY OPTIMIZATION CYCLE   4            *
         *************************************************************
---------------------------------
CARTESIAN COORDINATES (ANGSTROEM)
---------------------------------
  Au    -0.000000    1.514405    0.000000
  Au     1.311572   -0.757203    0.000000
  Au    -1.311572   -0.757203    0.000000

----------------------------
CARTESIAN COORDINATES (A.U.)
----------------------------
  NO LB      ZA    FRAG     MASS         X           Y           Z
   0 Au   19.0000*   0   196.966   -0.000000    2.861812    0.000000
   1 Au   19.0000*   0   196.966    2.478512   -1.430906    0.000000
   2 Au   19.0000*   0   196.966   -2.478512   -1.430906    0.000000
* core charge reduced due to ECP

--------------------------------
INTERNAL COORDINATES (ANGSTROEM)
--------------------------------
 Au     0   0   0     0.000000000000     0.00000000     0.00000000
 Au     1   0   0     2.623056453505     0.00000000     0.00000000
 Au     1   2   0     2.623056355146    60.00221244     0.00000000

---------------------------
INTERNAL COORDINATES (A.U.)
---------------------------
 Au     0   0   0     0.000000000000     0.00000000     0.00000000
 Au     1   0   0     4.956858330939     0.00000000     0.00000000
 Au     1   2   0     4.956858145068    60.00221244     0.00000000



           ************************************************************
           *        Program running with 24 parallel MPI-processes    *
           *              working on a common directory               *
           ************************************************************


           ************************************************************
           *        Program running with 24 parallel MPI-processes    *
           *              working on a common directory               *
           ************************************************************

Diagonalization of the overlap matrix:
Smallest eigenvalue                        ... 1.681e-03
Time for diagonalization                   ...    0.008 sec
Threshold for overlap eigenvalues          ... 1.000e-08
Number of eigenvalues below threshold      ... 0
Time for construction of square roots      ...    0.003 sec
Total time needed                          ...    0.012 sec

-------------------
DFT GRID GENERATION
-------------------

General Integration Accuracy     IntAcc      ...  4.670
Radial Grid Type                 RadialGrid  ... Gauss-Chebyshev
Angular Grid (max. acc.)         AngularGrid ... Lebedev-302
Angular grid pruning method      GridPruning ... 3 (G Style)
Weight generation scheme         WeightScheme... Becke
Basis function cutoff            BFCut       ...    1.0000e-11
Integration weight cutoff        WCut        ...    1.0000e-14
Grids for H and He will be reduced by one unit

# of grid points (after initial pruning)     ...  34956 (   0.0 sec)
# of grid points (after weights+screening)   ...  34814 (   0.0 sec)
nearest neighbour list constructed           ...    0.0 sec
Grid point re-assignment to atoms done       ...    0.0 sec
Grid point division into batches done        ...    0.3 sec
Reduced shell lists constructed in    0.3 sec

Total number of grid points                  ...    34814
Total number of batches                      ...      545
Average number of points per batch           ...       63
Average number of grid points per atom       ...    11605
Average number of shells per batch           ...     4.96 ( 9.72%)
Average number of basis functions per batch  ...    13.12 ( 7.42%)
Average number of large shells per batch     ...     3.08 (62.18%)
Average number of large basis fcns per batch ...     7.25 (55.24%)
Maximum spatial batch extension              ...  27.54, 22.90, 24.85 au
Average spatial batch extension              ...   0.74,  0.63,  0.66 au

Time for grid setup =    0.371 sec

--------------
SCF ITERATIONS
--------------
ITER       Energy         Delta-E        Max-DP      RMS-DP      [F,P]     Damp
               ***  Starting incremental Fock matrix formation  ***
  0   -406.8611969099   0.000000000000 0.00038500  0.00000992  0.0152724 0.7000
  1   -406.8612004018  -0.000003491917 0.00042576  0.00000947  0.0107017 0.7000
                               ***Turning on DIIS***
  2   -406.8612027983  -0.000002396445 0.00122858  0.00002511  0.0074926 0.0000
  3   -406.8612084169  -0.000005618651 0.00032698  0.00000717  0.0000961 0.0000
  4   -406.8612084251  -0.000000008144 0.00006076  0.00000260  0.0001639 0.0000
  5   -406.8612085668  -0.000000141727 0.00002375  0.00000062  0.0000111 0.0000
  6   -406.8612085673  -0.000000000507 0.00001902  0.00000039  0.0000149 0.0000
  7   -406.8612085684  -0.000000001054 0.00000959  0.00000016  0.0000060 0.0000
  8   -406.8612085681   0.000000000218 0.00000572  0.00000008  0.0000026 0.0000
                            ***DIIS convergence achieved***

               *****************************************************
               *                     SUCCESS                       *
               *           SCF CONVERGED AFTER   9 CYCLES          *
               *****************************************************

Total Energy       :         -406.86120857 Eh          -11071.25634 eV
  Last Energy change         ...    1.6638e-10  Tolerance :   1.0000e-08
  Last MAX-Density change    ...    8.7439e-07  Tolerance :   1.0000e-07
             **** THE GBW FILE WAS UPDATED (Au03C1_D3H.gbw) ****
             **** DENSITY FILE WAS UPDATED (Au03C1_D3H.scfp) ****
             **** ENERGY FILE WAS UPDATED (Au03C1_D3H.en.tmp) ****
             **** THE GBW FILE WAS UPDATED (Au03C1_D3H.gbw) ****
             **** DENSITY FILE WAS UPDATED (Au03C1_D3H.scfp) ****
Total SCF time: 0 days 0 hours 0 min 4 sec 


-------------------------------------------------------------------------------
                          DFT DISPERSION CORRECTION                            
                                                                               
                              DFTD3 V3.1  Rev 1                                
                          USING Becke-Johnson damping                          
-------------------------------------------------------------------------------
-------------------------   ----------------
Dispersion correction           -0.005871471
-------------------------   ----------------


-------------------------   --------------------
FINAL SINGLE POINT ENERGY      -406.867080039336
-------------------------   --------------------



           ************************************************************
           *        Program running with 24 parallel MPI-processes    *
           *              working on a common directory               *
           ************************************************************
------------------------------------------------------------------------------
                         ORCA SCF GRADIENT CALCULATION
------------------------------------------------------------------------------

Gradient of the Kohn-Sham DFT energy:
Kohn-Sham wavefunction type      ... RKS
Hartree-Fock exchange scaling    ...    0.100
Number of operators              ...    1
Number of atoms                  ...    3
Basis set dimensions             ...  177
Integral neglect threshold       ... 2.5e-11
Integral primitive cutoff        ... 2.5e-12

Nuclear repulsion gradient       ... done
One Electron Gradient            
  ECP gradient                   ... done
Pre-screening matrix             ... done
Starting the two electron gradient:
Two electron gradient done
Exchange-correlation gradient    ... done
Dispersion correction            ... done

------------------
CARTESIAN GRADIENT
------------------

   1   Au  :    0.000000006   -0.000302221    0.000000002
[...]
      g-1     :     0.000023
      g+2     :     0.000012
      g-2     :     0.000019
      g+3     :     0.000018
      g-3     :     0.000004
      g+4     :     0.000033
      g-4     :     0.000037
  1 Aus       :     2.743846  s :     2.743846
      pz      :     2.016475  p :     6.099545
      px      :     2.049048
      py      :     2.034022
      dz2     :     1.971710  d :     9.812244
      dxz     :     1.988273
      dyz     :     1.991810
      dx2y2   :     1.911290
      dxy     :     1.949163
      f0      :     0.001183  f :     0.010900
      f+1     :     0.001259
      f-1     :     0.000832
      f+2     :     0.001305
      f-2     :     0.000902
      f+3     :     0.002746
      f-3     :     0.002673
      g0      :     0.000015  g :     0.000170
      g+1     :     0.000019
      g-1     :     0.000012
      g+2     :     0.000017
      g-2     :     0.000014
      g+3     :     0.000018
      g-3     :     0.000004
      g+4     :     0.000036
      g-4     :     0.000034
  2 Aus       :     2.743846  s :     2.743846
      pz      :     2.016475  p :     6.099545
      px      :     2.049048
      py      :     2.034022
      dz2     :     1.971710  d :     9.812244
      dxz     :     1.988273
      dyz     :     1.991810
      dx2y2   :     1.911290
      dxy     :     1.949163
      f0      :     0.001183  f :     0.010900
      f+1     :     0.001259
      f-1     :     0.000832
      f+2     :     0.001305
      f-2     :     0.000902
      f+3     :     0.002746
      f-3     :     0.002673
      g0      :     0.000015  g :     0.000170
      g+1     :     0.000019
      g-1     :     0.000012
      g+2     :     0.000017
      g-2     :     0.000014
      g+3     :     0.000018
      g-3     :     0.000004
      g+4     :     0.000036
      g-4     :     0.000034


                     *******************************
                     * LOEWDIN POPULATION ANALYSIS *
                     *******************************

----------------------
LOEWDIN ATOMIC CHARGES
----------------------
   0 Au:    0.333327
   1 Au:    0.333336
   2 Au:    0.333336

-------------------------------
LOEWDIN REDUCED ORBITAL CHARGES
-------------------------------
  0 Aus       :     2.575245  s :     2.575245
      pz      :     2.019950  p :     6.199776
      px      :     2.045131
      py      :     2.134696
      dz2     :     1.995491  d :     9.873049
      dxz     :     1.992710
      dyz     :     1.982423
      dx2y2   :     1.975349
      dxy     :     1.927076
      f0      :     0.001675  f :     0.018356
      f+1     :     0.001164
      f-1     :     0.002501
      f+2     :     0.000900
      f-2     :     0.002273
      f+3     :     0.006083
      f-3     :     0.003762
      g0      :     0.000020  g :     0.000246
      g+1     :     0.000011
      g-1     :     0.000028
      g+2     :     0.000017
      g-2     :     0.000032
      g+3     :     0.000026
      g-3     :     0.000005
      g+4     :     0.000044
      g-4     :     0.000064
  1 Aus       :     2.575344  s :     2.575344
      pz      :     2.019956  p :     6.199756
      px      :     2.112290
      py      :     2.067510
      dz2     :     1.995491  d :     9.872957
      dxz     :     1.984987
      dyz     :     1.990138
      dx2y2   :     1.939067
      dxy     :     1.963273
      f0      :     0.001676  f :     0.018361
      f+1     :     0.002167
      f-1     :     0.001498
      f+2     :     0.001931
      f-2     :     0.001243
      f+3     :     0.006083
      f-3     :     0.003764
      g0      :     0.000020  g :     0.000246
      g+1     :     0.000024
      g-1     :     0.000015
      g+2     :     0.000028
      g-2     :     0.000020
      g+3     :     0.000026
      g-3     :     0.000005
      g+4     :     0.000059
      g-4     :     0.000049
  2 Aus       :     2.575344  s :     2.575344
      pz      :     2.019956  p :     6.199756
      px      :     2.112290
      py      :     2.067510
      dz2     :     1.995491  d :     9.872957
      dxz     :     1.984987
      dyz     :     1.990138
      dx2y2   :     1.939067
      dxy     :     1.963273
      f0      :     0.001676  f :     0.018361
      f+1     :     0.002167
      f-1     :     0.001498
      f+2     :     0.001931
      f-2     :     0.001243
      f+3     :     0.006083
      f-3     :     0.003764
      g0      :     0.000020  g :     0.000246
      g+1     :     0.000024
      g-1     :     0.000015
      g+2     :     0.000028
      g-2     :     0.000020
      g+3     :     0.000026
      g-3     :     0.000005
      g+4     :     0.000059
      g-4     :     0.000049


                      *****************************
                      * MAYER POPULATION ANALYSIS *
                      *****************************

  NA   - Mulliken gross atomic population
  ZA   - Total nuclear charge
  QA   - Mulliken gross atomic charge
  VA   - Mayer's total valence
  BVA  - Mayer's bonded valence
  FA   - Mayer's free valence

  ATOM       NA         ZA         QA         VA         BVA        FA
  0 Au    18.6666    19.0000     0.3334     1.3375     1.3375     0.0000
  1 Au    18.6667    19.0000     0.3333     1.3378     1.3378     0.0000
  2 Au    18.6667    19.0000     0.3333     1.3378     1.3378     0.0000

  Mayer bond orders larger than 0.100000
B(  0-Au,  1-Au) :   0.6687 B(  0-Au,  2-Au) :   0.6687 B(  1-Au,  2-Au) :   0.6691 


-------
TIMINGS
-------

Total SCF time: 0 days 0 hours 0 min 1 sec 

Total time                  ....       1.552 sec
Sum of individual times     ....       1.343 sec  ( 86.5%)

Fock matrix formation       ....       0.949 sec  ( 61.1%)
  XC integration            ....       0.119 sec  ( 12.5% of F)
    Basis function eval.    ....       0.010 sec  (  8.1% of XC)
    Density eval.           ....       0.017 sec  ( 14.2% of XC)
    XC-Functional eval.     ....       0.006 sec  (  4.7% of XC)
    XC-Potential eval.      ....       0.029 sec  ( 24.2% of XC)
Diagonalization             ....       0.009 sec  (  0.6%)
Density matrix formation    ....       0.002 sec  (  0.1%)
Population analysis         ....       0.005 sec  (  0.3%)
Initial guess               ....       0.012 sec  (  0.8%)
Orbital Transformation      ....       0.000 sec  (  0.0%)
Orbital Orthonormalization  ....       0.007 sec  (  0.5%)
DIIS solution               ....       0.002 sec  (  0.1%)
Grid generation             ....       0.365 sec  ( 23.5%)


-------------------------------------------------------------------------------
                          DFT DISPERSION CORRECTION                            
                                                                               
                              DFTD3 V3.1  Rev 1                                
                          USING Becke-Johnson damping                          
-------------------------------------------------------------------------------
The TPSSH functional is recognized
Active option DFTDOPT                   ...         4   

molecular C6(AA) [au] = 2854.410644 


            DFT-D V3
 parameters
 s6 scaling factor         :     1.0000 
 a1 scaling factor         :     0.4529 
 s8 scaling factor         :     2.2382 
 a2 scaling factor         :     4.6550 
 ad hoc parameters k1-k3   :    16.0000     1.3333    -4.0000 

 Edisp/kcal,au: -3.684258674266  -0.005871239294 
 E6   /kcal   :  -1.004041087 
 E8   /kcal   :  -2.680217588 
 % E8         :  72.747812368 

-------------------------   ----------------
Dispersion correction           -0.005871239
-------------------------   ----------------


-------------------------   --------------------
FINAL SINGLE POINT ENERGY      -406.867077896141
-------------------------   --------------------

                                *** OPTIMIZATION RUN DONE ***

                            ***************************************
                            *     ORCA property calculations      *
                            ***************************************

                                    ---------------------
                                    Active property flags
                                    ---------------------
   (+) Dipole Moment


------------------------------------------------------------------------------
                       ORCA ELECTRIC PROPERTIES CALCULATION
------------------------------------------------------------------------------

Dipole Moment Calculation                       ... on
Quadrupole Moment Calculation                   ... off
Polarizability Calculation                      ... off
GBWName                                         ... Au03C1_D3H.gbw
Electron density file                           ... Au03C1_D3H.scfp
The origin for moment calculation is the CENTER OF MASS  = (-0.000000,  0.000000  0.000000)

-------------
DIPOLE MOMENT
-------------
                                X             Y             Z
Electronic contribution:     -0.00000       0.00005       0.00000
Nuclear contribution   :      0.00000       0.00000       0.00000
                        -----------------------------------------
Total Dipole Moment    :     -0.00000       0.00005       0.00000
                        -----------------------------------------
Magnitude (a.u.)       :      0.00005
Magnitude (Debye)      :      0.00011



--------------------
Rotational spectrum 
--------------------
 
Rotational constants in cm-1:     0.024856     0.024853     0.012427 
Rotational constants in MHz :   745.166595   745.064720   372.557827 

 Dipole components along the rotational axes: 
x,y,z [a.u.] :    -0.000045     0.000000     0.000000 
x,y,z [Debye]:    -0.000115     0.000000     0.000000 

 

----------------------------------------------------------------------------
                           ORCA NUMERICAL FREQUENCIES
                              (24-process run)
----------------------------------------------------------------------------

Number of atoms                ... 3
Central differences            ... used
Number of displacements        ... 18
Numerical increment            ... 5.000e-03 bohr
IR-spectrum generation         ... on
Raman-spectrum generation      ... off
Surface Crossing Hessian       ... off

 WARNING: There are more processes than displacements to do
  ====> : Reducing number of processes to   9

The output will be reduced. Please look at the following files:
SCF program output             ... >Au03C1_D3H.lastscf
Integral program output        ... >Au03C1_D3H.lastint
Gradient program output        ... >Au03C1_D3H.lastgrad
Dipole moment program output   ... >Au03C1_D3H.lastmom
AutoCI program output          ... >Au03C1_D3H.lastautoci


         <<< Energy and Gradient at the input geometry >>>

        <<< Energy and Gradient at displaced geometries >>>
             <<<Displacing   3/coordinate 1 (+)>>>
             <<<Displacing   3/coordinate 3 (+)>>>
             <<<Displacing   1/coordinate 2 (+)>>>
             <<<Displacing   2/coordinate 1 (+)>>>
             <<<Displacing   3/coordinate 2 (+)>>>
             <<<Displacing   2/coordinate 2 (+)>>>
             <<<Displacing   2/coordinate 3 (+)>>>
             <<<Displacing   1/coordinate 3 (+)>>>
             <<<Displacing   1/coordinate 1 (+)>>>
             <<<Displacing   1/coordinate 1 (-)>>>
             <<<Displacing   2/coordinate 3 (-)>>>
             <<<Displacing   1/coordinate 3 (-)>>>
             <<<Displacing   3/coordinate 3 (-)>>>
             <<<Displacing   2/coordinate 2 (-)>>>
             <<<Displacing   3/coordinate 1 (-)>>>
             <<<Displacing   3/coordinate 2 (-)>>>
             <<<Displacing   2/coordinate 1 (-)>>>
             <<<Displacing   1/coordinate 2 (-)>>>

-----------------------
VIBRATIONAL FREQUENCIES
-----------------------

Scaling factor for frequencies =  1.000000000 (already applied!)

   0:         0.00 cm**-1
   1:         0.00 cm**-1
   2:         0.00 cm**-1
   3:         0.00 cm**-1
   4:         0.00 cm**-1
   5:         0.00 cm**-1
   6:       114.06 cm**-1
   7:       114.17 cm**-1
   8:       175.66 cm**-1


------------
NORMAL MODES
------------

These modes are the cartesian displacements weighted by the diagonal matrix
M(i,i)=1/sqrt(m[i]) where m[i] is the mass of the displaced atom
Thus, these vectors are normalized but *not* orthogonal

                  0          1          2          3          4          5    
      0       0.000000   0.000000   0.000000   0.000000   0.000000   0.000000
      1       0.000000   0.000000   0.000000   0.000000   0.000000   0.000000
      2       0.000000   0.000000   0.000000   0.000000   0.000000   0.000000
      3       0.000000   0.000000   0.000000   0.000000   0.000000   0.000000
      4       0.000000   0.000000   0.000000   0.000000   0.000000   0.000000
      5       0.000000   0.000000   0.000000   0.000000   0.000000   0.000000
      6       0.000000   0.000000   0.000000   0.000000   0.000000   0.000000
      7       0.000000   0.000000   0.000000   0.000000   0.000000   0.000000
      8       0.000000   0.000000   0.000000   0.000000   0.000000   0.000000
                   6          7          8    
      0       0.000058   0.577331  -0.000001
      1       0.575792  -0.000056   0.578904
      2       0.000000   0.000000   0.000000
      3      -0.501375  -0.288614   0.498651
      4      -0.287846   0.500045  -0.289453
      5       0.000000   0.000000   0.000000
      6       0.501317  -0.288717  -0.498650
      7      -0.287946  -0.499989  -0.289451
      8       0.000000   0.000000   0.000000


-----------
IR SPECTRUM  
-----------

 Mode    freq (cm**-1)   T**2         TX         TY         TZ
-------------------------------------------------------------------
   6:       114.06    0.297247  ( -0.000041   0.545204   0.000002)
   7:       114.17    0.237942  ( -0.487793  -0.000058   0.000002)
   8:       175.66    0.000002  (  0.000002   0.001414   0.000000)

The first frequency considered to be a vibration is 6
The total number of vibrations considered is 3


--------------------------
THERMOCHEMISTRY AT 298.15K
--------------------------

Temperature         ... 298.15 K
Pressure            ... 1.00 atm
Total Mass          ... 590.90 AMU

Throughout the following assumptions are being made:
  (1) The electronic state is orbitally nondegenerate
  (2) There are no thermally accessible electronically excited states
  (3) Hindered rotations indicated by low frequency modes are not
      treated as such but are treated as vibrations and this may
      cause some error
  (4) All equations used are the standard statistical mechanics
      equations for an ideal gas
  (5) All vibrations are strictly harmonic

freq.     114.06  E(vib)   ...       0.44 
freq.     114.17  E(vib)   ...       0.44 
freq.     175.66  E(vib)   ...       0.38 

------------
INNER ENERGY
------------

The inner energy is: U= E(el) + E(ZPE) + E(vib) + E(rot) + E(trans)
    E(el)   - is the total energy from the electronic structure calculation
              = E(kin-el) + E(nuc-el) + E(el-el) + E(nuc-nuc)
    E(ZPE)  - the the zero temperature vibrational energy from the frequency calculation
    E(vib)  - the the finite temperature correction to E(ZPE) due to population
              of excited vibrational states
    E(rot)  - is the rotational thermal energy
    E(trans)- is the translational thermal energy

Summary of contributions to the inner energy U:
Electronic energy                ...   -406.86707791 Eh
Zero point energy                ...      0.00092014 Eh       0.58 kcal/mol
Thermal vibrational correction   ...      0.00201584 Eh       1.26 kcal/mol
Thermal rotational correction    ...      0.00141627 Eh       0.89 kcal/mol
Thermal translational correction ...      0.00141627 Eh       0.89 kcal/mol
-----------------------------------------------------------------------
Total thermal energy                   -406.86130939 Eh


Summary of corrections to the electronic energy:
(perhaps to be used in another calculation)
Total thermal correction                  0.00484838 Eh       3.04 kcal/mol
Non-thermal (ZPE) correction              0.00092014 Eh       0.58 kcal/mol
-----------------------------------------------------------------------
Total correction                          0.00576852 Eh       3.62 kcal/mol


--------
ENTHALPY
--------

The enthalpy is H = U + kB*T
                kB is Boltzmann's constant
Total free energy                 ...   -406.86130939 Eh 
Thermal Enthalpy correction       ...      0.00094421 Eh       0.59 kcal/mol
-----------------------------------------------------------------------
Total Enthalpy                    ...   -406.86036518 Eh


Note: Rotational entropy computed according to Herzberg 
Infrared and Raman Spectra, Chapter V,1, Van Nostrand Reinhold, 1945 
Point Group:  C2v, Symmetry Number:   2  
Rotational constants in cm-1:     0.024856     0.024853     0.012427 

Vibrational entropy computed according to the QRRHO of S. Grimme
Chem.Eur.J. 2012 18 9955


-------
ENTROPY
-------

The entropy contributions are T*S = T*(S(el)+S(vib)+S(rot)+S(trans))
     S(el)   - electronic entropy
     S(vib)  - vibrational entropy
     S(rot)  - rotational entropy
     S(trans)- translational entropy
The entropies will be listed as mutliplied by the temperature to get
units of energy

Electronic entropy                ...      0.00000000 Eh      0.00 kcal/mol
Vibrational entropy               ...      0.00399612 Eh      2.51 kcal/mol
Rotational entropy                ...      0.01441631 Eh      9.05 kcal/mol
Translational entropy             ...      0.02138721 Eh     13.42 kcal/mol
-----------------------------------------------------------------------
Final entropy term                ...      0.03979965 Eh     24.97 kcal/mol

In case the symmetry of your molecule has not been determined correctly
or in case you have a reason to use a different symmetry number we print 
out the resulting rotational entropy values for sn=1,12 :
 --------------------------------------------------------
|  sn= 1 | S(rot)=       0.01507077 Eh      9.46 kcal/mol|
|  sn= 2 | S(rot)=       0.01441631 Eh      9.05 kcal/mol|
|  sn= 3 | S(rot)=       0.01403348 Eh      8.81 kcal/mol|
|  sn= 4 | S(rot)=       0.01376185 Eh      8.64 kcal/mol|
|  sn= 5 | S(rot)=       0.01355117 Eh      8.50 kcal/mol|
|  sn= 6 | S(rot)=       0.01337902 Eh      8.40 kcal/mol|
|  sn= 7 | S(rot)=       0.01323348 Eh      8.30 kcal/mol|
|  sn= 8 | S(rot)=       0.01310740 Eh      8.22 kcal/mol|
|  sn= 9 | S(rot)=       0.01299619 Eh      8.16 kcal/mol|
|  sn=10 | S(rot)=       0.01289671 Eh      8.09 kcal/mol|
|  sn=11 | S(rot)=       0.01280672 Eh      8.04 kcal/mol|
|  sn=12 | S(rot)=       0.01272456 Eh      7.98 kcal/mol|
 --------------------------------------------------------


-------------------
GIBBS FREE ENERGY
-------------------

The Gibbs free energy is G = H - T*S

Total enthalpy                    ...   -406.86036518 Eh 
Total entropy correction          ...     -0.03979965 Eh    -24.97 kcal/mol
-----------------------------------------------------------------------
Final Gibbs free energy         ...   -406.90016482 Eh

For completeness - the Gibbs free energy minus the electronic energy
G-E(el)                           ...     -0.03308691 Eh    -20.76 kcal/mol


Total Time for Numerical Frequencies  :       194.256 sec

Timings for individual modules:

Sum of individual times         ...       70.311 sec (=   1.172 min)
GTO integral calculation        ...        7.433 sec (=   0.124 min)  10.6 %
SCF iterations                  ...       33.239 sec (=   0.554 min)  47.3 %
SCF Gradient evaluation         ...       29.464 sec (=   0.491 min)  41.9 %
Geometry relaxation             ...        0.176 sec (=   0.003 min)   0.3 %
                             ****ORCA TERMINATED NORMALLY****
TOTAL RUN TIME: 0 days 0 hours 4 minutes 17 seconds 773 msec
