
                                 *****************
                                 * O   R   C   A *
                                 *****************

           --- An Ab Initio, DFT and Semiempirical electronic structure package ---

                  #######################################################
                  #                        -***-                        #
                  #          Department of theory and spectroscopy      #
                  #               Directorship: Frank Neese             #
                  #        Max Planck Institute fuer Kohlenforschung    #
                  #                Kaiser Wilhelm Platz 1               #
                  #                 D-45470 Muelheim/Ruhr               #
                  #                      Germany                        #
                  #                                                     #
                  #                  All rights reserved                #
                  #                        -***-                        #
                  #######################################################


                         Program Version 4.2.0 -  RELEASE  -


 With contributions from (in alphabetic order):
   Daniel Aravena         : Magnetic Suceptibility
   Michael Atanasov       : Ab Initio Ligand Field Theory (pilot matlab implementation)
   Alexander A. Auer      : GIAO ZORA, VPT2
   Ute Becker             : Parallelization
   Giovanni Bistoni       : ED, misc. LED, open-shell LED, HFLED
   Martin Brehm           : Molecular dynamics
   Dmytro Bykov           : SCF Hessian
   Vijay G. Chilkuri      : MRCI spin determinant printing, contributions to CSF-ICE
   Dipayan Datta          : RHF DLPNO-CCSD density
   Achintya Kumar Dutta   : EOM-CC, STEOM-CC
   Dmitry Ganyushin       : Spin-Orbit,Spin-Spin,Magnetic field MRCI
   Miquel Garcia          : C-PCM Hessian, Gaussian charge scheme
   Yang Guo               : DLPNO-NEVPT2, CIM, IAO-localization
   Andreas Hansen         : Spin unrestricted coupled pair/coupled cluster methods
   Benjamin Helmich-Paris : CASSCF linear response (MC-RPA)
   Lee Huntington         : MR-EOM, pCC
   Robert Izsak           : Overlap fitted RIJCOSX, COSX-SCS-MP3, EOM
   Christian Kollmar      : KDIIS, OOCD, Brueckner-CCSD(T), CCSD density
   Simone Kossmann        : Meta GGA functionals, TD-DFT gradient, OOMP2, MP2 Hessian
   Martin Krupicka        : AUTO-CI
   Lucas Lang             : DCDCAS
   Dagmar Lenk            : GEPOL surface, SMD
   Dimitrios Liakos       : Extrapolation schemes; Compound Job, initial MDCI parallelization
   Dimitrios Manganas     : Further ROCIS development; embedding schemes
   Dimitrios Pantazis     : SARC Basis sets
   Taras Petrenko         : DFT Hessian,TD-DFT gradient, ASA, ECA, R-Raman, ABS, FL, XAS/XES, NRVS
   Peter Pinski           : DLPNO-MP2, DLPNO-MP2 Gradient
   Christoph Reimann      : Effective Core Potentials
   Marius Retegan         : Local ZFS, SOC
   Christoph Riplinger    : Optimizer, TS searches, QM/MM, DLPNO-CCSD(T), (RO)-DLPNO pert. Triples
   Tobias Risthaus        : Range-separated hybrids, TD-DFT gradient, RPA, STAB
   Michael Roemelt        : Original ROCIS implementation
   Masaaki Saitow         : Open-shell DLPNO-CCSD energy and density
   Barbara Sandhoefer     : DKH picture change effects
   Avijit Sen             : IP-ROCIS
   Kantharuban Sivalingam : CASSCF convergence, NEVPT2, FIC-MRCI
   Bernardo de Souza      : ESD, SOC TD-DFT
   Georgi Stoychev        : AutoAux, RI-MP2 NMR
   Willem Van den Heuvel  : Paramagnetic NMR
   Boris Wezisla          : Elementary symmetry handling
   Frank Wennmohs         : Technical directorship


 We gratefully acknowledge several colleagues who have allowed us to
 interface, adapt or use parts of their codes:
   Stefan Grimme, W. Hujo, H. Kruse,             : VdW corrections, initial TS optimization,
                  C. Bannwarth                     DFT functionals, gCP, sTDA/sTD-DF
   Ed Valeev, F. Pavosevic, A. Kumar             : LibInt (2-el integral package), F12 methods
   Garnet Chan, S. Sharma, J. Yang, R. Olivares  : DMRG
   Ulf Ekstrom                                   : XCFun DFT Library
   Mihaly Kallay                                 : mrcc  (arbitrary order and MRCC methods)
   Andreas Klamt, Michael Diedenhofen            : otool_cosmo (COSMO solvation model)
   Jiri Pittner, Ondrej Demel                    : Mk-CCSD
   Frank Weinhold                                : gennbo (NPA and NBO analysis)
   Christopher J. Cramer and Donald G. Truhlar   : smd solvation model
   Lars Goerigk                                  : TD-DFT with DH, B97 family of functionals
   V. Asgeirsson, H. Jonsson                     : NEB implementation
   FAccTs GmbH                                   : IRC, NEB, NEB-TS, Multilevel, MM, QM/MM, CI optimization
   S Lehtola, MJT Oliveira, MAL Marques          : LibXC Library


 Your calculation uses the libint2 library for the computation of 2-el integrals
 For citations please refer to: http://libint.valeyev.net

 Your ORCA version has been built with support for libXC version: 4.2.3
 For citations please refer to: https://tddft.org/programs/libxc/

 This ORCA versions uses:
   CBLAS   interface :  Fast vector & matrix operations
   LAPACKE interface :  Fast linear algebra routines
   SCALAPACK package :  Parallel linear algebra routines


Your calculation utilizes the atom-pairwise dispersion correction
with the Becke-Johnson damping scheme (D3BJ)
Cite in your paper:
S.Grimme, S.Ehrlich, L.Goerigk, J Comput Chem, (2011), 32, 1456–1465 
S.Grimme, J.Antony, S.Ehrlich and H.Krieg, J.Chem.Phys., 132, (2010), 154104 
   

----- Orbital basis set information -----
Your calculation utilizes the basis: def2-TZVPPD
   F. Weigend and R. Ahlrichs, Phys. Chem. Chem. Phys. 7, 3297 (2005).
   D. Rappoport and F. Furche, J. Chem. Phys. 133 134105 (2010).

----- AuxJK basis set information -----
Your calculation utilizes the auxiliary basis: def2/JK
   H-Ba, Hf-Rn: F. Weigend, J. Comput. Chem. 29, 167 (2008).

================================================================================
                                        WARNINGS
                       Please study these warnings very carefully!
================================================================================


WARNING: Geometry Optimization
  ===> : Switching off AutoStart
         For restart on a previous wavefunction, please use MOREAD

INFO   : the flag for use of LIBINT has been found!

================================================================================
                                       INPUT FILE
================================================================================
NAME = Cu01N0_H.in
|  1> #
|  2> # Cu01N0_H TPSSh-D3BJ/Def2-TZVPPD
|  3> #
|  4> ! tpssh d3bj def2-tzvppd def2/jk grid4 nofinalgrid opt xyzfile numfreq
|  5> 
|  6> *xyz 0 1
|  7> Cu       0.000000    0.000000    0.048513 
|  8> H        0.000000    0.000000   -1.406870 
|  9> *
| 10> 
| 11> %maxcore 5000
| 12> 
| 13> %pal
| 14> nprocs = 24
| 15> end
| 16> 
| 17> 
| 18>                          ****END OF INPUT****
================================================================================

                       *****************************
                       * Geometry Optimization Run *
                       *****************************

Geometry optimization settings:
Update method            Update   .... BFGS
Choice of coordinates    CoordSys .... Z-matrix Internals
Initial Hessian          InHess   .... Almoef's Model

Convergence Tolerances:
Energy Change            TolE     ....  5.0000e-06 Eh
Max. Gradient            TolMAXG  ....  3.0000e-04 Eh/bohr
RMS Gradient             TolRMSG  ....  1.0000e-04 Eh/bohr
Max. Displacement        TolMAXD  ....  4.0000e-03 bohr
RMS Displacement         TolRMSD  ....  2.0000e-03 bohr
Strict Convergence                ....  False
------------------------------------------------------------------------------
                        ORCA OPTIMIZATION COORDINATE SETUP
------------------------------------------------------------------------------

The optimization will be done in new redundant internal coordinates
Making redundant internal coordinates   ...  (new redundants) done
Evaluating the initial hessian          ...  (Almloef) done
Evaluating the coordinates              ...  done
Calculating the B-matrix                .... done
Calculating the G-matrix                .... done
Diagonalizing the G-matrix              .... done
The first mode is                       ....    0
The number of degrees of freedom        ....    1

    -----------------------------------------------------------------
                    Redundant Internal Coordinates


    -----------------------------------------------------------------
         Definition                    Initial Value    Approx d2E/dq
    -----------------------------------------------------------------
      1. B(H   1,Cu  0)                  1.4554         0.951925   
    -----------------------------------------------------------------

Number of atoms                         .... 2
Number of degrees of freedom            .... 1

         *************************************************************
         *                GEOMETRY OPTIMIZATION CYCLE   1            *
         *************************************************************
---------------------------------
CARTESIAN COORDINATES (ANGSTROEM)
---------------------------------
  Cu     0.000000    0.000000    0.048513
  H      0.000000    0.000000   -1.406870

----------------------------
CARTESIAN COORDINATES (A.U.)
----------------------------
  NO LB      ZA    FRAG     MASS         X           Y           Z
   0 Cu   29.0000    0    63.550    0.000000    0.000000    0.091676
   1 H     1.0000    0     1.008    0.000000    0.000000   -2.658599

--------------------------------
INTERNAL COORDINATES (ANGSTROEM)
--------------------------------
 Cu     0   0   0     0.000000000000     0.00000000     0.00000000
 H      1   0   0     1.455383000000     0.00000000     0.00000000

---------------------------
INTERNAL COORDINATES (A.U.)
---------------------------
 Cu     0   0   0     0.000000000000     0.00000000     0.00000000
 H      1   0   0     2.750275289965     0.00000000     0.00000000

---------------------
BASIS SET INFORMATION
---------------------
There are 2 groups of distinct atoms

 Group   1 Type Cu  : 17s13p7d2f1g contracted to 6s6p4d2f1g pattern {842111/631111/4111/11/1}
 Group   2 Type H   : 5s3p1d contracted to 3s3p1d pattern {311/111/1}

Atom   0Cu   basis set group =>   1
Atom   1H    basis set group =>   2
----------------------------------
AUXILIARY/JK BASIS SET INFORMATION
----------------------------------
There are 2 groups of distinct atoms

 Group   1 Type Cu  : 19s14p12d10f7g3h1i contracted to 16s13p11d9f5g3h1i pattern {4111111111111111/2111111111111/21111111111/211111111/31111/111/1}
 Group   2 Type H   : 4s2p2d contracted to 2s2p2d pattern {31/11/11}

Atom   0Cu   basis set group =>   1
Atom   1H    basis set group =>   2


           ************************************************************
           *        Program running with 24 parallel MPI-processes    *
           *              working on a common directory               *
           ************************************************************
------------------------------------------------------------------------------
                           ORCA GTO INTEGRAL CALCULATION
------------------------------------------------------------------------------

                         BASIS SET STATISTICS AND STARTUP INFO

 # of primitive gaussian shells          ...   49
 # of primitive gaussian functions       ...  133
 # of contracted shells                  ...   26
 # of contracted basis functions         ...   84
 Highest angular momentum                ...    4
 Maximum contraction depth               ...    8
 Integral package used                   ... LIBINT
 Integral threshhold            Thresh   ...  2.500e-11
 Primitive cut-off              TCut     ...  2.500e-12


------------------------------ INTEGRAL EVALUATION ----------------------------


 * One electron integrals 
 Pre-screening matrix                    ... done
 Shell pair data                         ... done (   0.000 sec)



           ************************************************************
           *        Program running with 24 parallel MPI-processes    *
           *              working on a common directory               *
           ************************************************************
-------------------------------------------------------------------------------
                                 ORCA SCF
-------------------------------------------------------------------------------

------------
SCF SETTINGS
------------
Hamiltonian:
 Density Functional     Method          .... DFT(GTOs)
 Exchange Functional    Exchange        .... TPSS
 Correlation Functional Correlation     .... TPSS
 LDA part of GGA corr.  LDAOpt          .... PW91-LDA
 Gradients option       PostSCFGGA      .... off
 Hybrid DFT is turned on
   Fraction HF Exchange ScalHFX         ....  0.100000
   Scaling of DF-GGA-X  ScalDFX         ....  0.900000
   Scaling of DF-GGA-C  ScalDFC         ....  1.000000
   Scaling of DF-LDA-C  ScalLDAC        ....  1.000000
   Perturbative correction              ....  0.000000
   Density functional embedding theory  .... OFF
   NL short-range parameter             ....  5.200000


General Settings:
 Integral files         IntName         .... Cu01N0_H
 Hartree-Fock type      HFTyp           .... RHF
 Total Charge           Charge          ....    0
 Multiplicity           Mult            ....    1
 Number of Electrons    NEL             ....   30
 Basis Dimension        Dim             ....   84
 Nuclear Repulsion      ENuc            ....     10.5443989937 Eh

Convergence Acceleration:
 DIIS                   CNVDIIS         .... on
   Start iteration      DIISMaxIt       ....    12
   Startup error        DIISStart       ....  0.200000
   # of expansion vecs  DIISMaxEq       ....     5
   Bias factor          DIISBfac        ....   1.050
   Max. coefficient     DIISMaxC        ....  10.000
 Newton-Raphson         CNVNR           .... off
 SOSCF                  CNVSOSCF        .... off
 Level Shifting         CNVShift        .... on
   Level shift para.    LevelShift      ....    0.2500
   Turn off err/grad.   ShiftErr        ....    0.0010
 Zerner damping         CNVZerner       .... off
 Static damping         CNVDamp         .... on
   Fraction old density DampFac         ....    0.7000
   Max. Damping (<1)    DampMax         ....    0.9800
   Min. Damping (>=0)   DampMin         ....    0.0000
   Turn off err/grad.   DampErr         ....    0.1000
 Fernandez-Rico         CNVRico         .... off

SCF Procedure:
 Maximum # iterations   MaxIter         ....   125
 SCF integral mode      SCFMode         .... Direct
   Integral package                     .... LIBINT
 Reset frequency        DirectResetFreq ....    20
 Integral Threshold     Thresh          ....  2.500e-11 Eh
 Primitive CutOff       TCut            ....  2.500e-12 Eh

Convergence Tolerance:
 Convergence Check Mode ConvCheckMode   .... Total+1el-Energy
 Convergence forced     ConvForced      .... 0
 Energy Change          TolE            ....  1.000e-08 Eh
 1-El. energy change                    ....  1.000e-05 Eh
 DIIS Error             TolErr          ....  5.000e-07


Diagonalization of the overlap matrix:
Smallest eigenvalue                        ... 1.990e-03
Time for diagonalization                   ...    0.002 sec
Threshold for overlap eigenvalues          ... 1.000e-08
Number of eigenvalues below threshold      ... 0
Time for construction of square roots      ...    0.004 sec
Total time needed                          ...    0.006 sec

-------------------
DFT GRID GENERATION
-------------------

General Integration Accuracy     IntAcc      ...  4.670
Radial Grid Type                 RadialGrid  ... Gauss-Chebyshev
Angular Grid (max. acc.)         AngularGrid ... Lebedev-302
Angular grid pruning method      GridPruning ... 3 (G Style)
Weight generation scheme         WeightScheme... Becke
Basis function cutoff            BFCut       ...    1.0000e-11
Integration weight cutoff        WCut        ...    1.0000e-14
Grids for H and He will be reduced by one unit

# of grid points (after initial pruning)     ...  12950 (   0.0 sec)
# of grid points (after weights+screening)   ...  12913 (   0.0 sec)
nearest neighbour list constructed           ...    0.0 sec
Grid point re-assignment to atoms done       ...    0.0 sec
Grid point division into batches done        ...    0.1 sec
Reduced shell lists constructed in    0.1 sec

Total number of grid points                  ...    12913
Total number of batches                      ...      202
Average number of points per batch           ...       63
Average number of grid points per atom       ...     6456
Average number of shells per batch           ...     6.10 (23.46%)
Average number of basis functions per batch  ...    14.90 (17.74%)
Average number of large shells per batch     ...     4.40 (72.13%)
Average number of large basis fcns per batch ...    12.60 (84.56%)
Maximum spatial batch extension              ...  28.79, 26.18, 17.10 au
Average spatial batch extension              ...   0.94,  0.87,  0.65 au

Time for grid setup =    0.103 sec

------------------------------
INITIAL GUESS: MODEL POTENTIAL
------------------------------
Loading Hartree-Fock densities                     ... done
Calculating cut-offs                               ... done
Setting up the integral package                    ... done
Initializing the effective Hamiltonian             ... done
Starting the Coulomb interaction                   ... done (   0.0 sec)
Reading the grid                                   ... done
Mapping shells                                     ... done
Starting the XC term evaluation                    ... done (   0.0 sec)
  promolecular density results
     # of electrons  =     29.999530787
     EX              =    -65.746237185
     EC              =     -1.365622940
     EX+EC           =    -67.111860126
Transforming the Hamiltonian                       ... done (   0.0 sec)
Diagonalizing the Hamiltonian                      ... done (   0.0 sec)
Back transforming the eigenvectors                 ... done (   0.0 sec)
Now organizing SCF variables                       ... done
                      ------------------
                      INITIAL GUESS DONE (   0.2 sec)
                      ------------------
--------------
SCF ITERATIONS
--------------
ITER       Energy         Delta-E        Max-DP      RMS-DP      [F,P]     Damp
               ***  Starting incremental Fock matrix formation  ***
  0  -1641.0469269331   0.000000000000 0.06001388  0.00213731  0.1709867 0.7000
  1  -1641.0672874110  -0.020360477887 0.02943117  0.00102849  0.0706003 0.7000
                               ***Turning on DIIS***
  2  -1641.0761795367  -0.008892125678 0.08366816  0.00212247  0.0366040 0.0000
  3  -1641.0909652603  -0.014785723564 0.04324829  0.00085396  0.0483930 0.0000
  4  -1641.0946983989  -0.003733138656 0.02321223  0.00040937  0.0166054 0.0000
  5  -1641.0951665161  -0.000468117151 0.00921874  0.00017306  0.0065062 0.0000
  6  -1641.0952552354  -0.000088719364 0.00175154  0.00005026  0.0021231 0.0000
  7  -1641.0952664304  -0.000011194925 0.00099606  0.00002735  0.0010400 0.0000
  8  -1641.0952687876  -0.000002357183 0.00110845  0.00002778  0.0005444 0.0000
  9  -1641.0952696434  -0.000000855869 0.00006606  0.00000174  0.0000569 0.0000
 10  -1641.0952696444  -0.000000001009 0.00002832  0.00000078  0.0000513 0.0000
 11  -1641.0952696466  -0.000000002176 0.00001207  0.00000020  0.0000062 0.0000
                 **** Energy Check signals convergence ****

               *****************************************************
               *                     SUCCESS                       *
               *           SCF CONVERGED AFTER  12 CYCLES          *
               *****************************************************


----------------
TOTAL SCF ENERGY
----------------

Total Energy       :        -1641.09526965 Eh          -44656.47258 eV

Components:
Nuclear Repulsion  :           10.54439899 Eh             286.92768 eV
Electronic Energy  :        -1651.63966864 Eh          -44943.40026 eV
One Electron Energy:        -2308.24140537 Eh          -62810.44186 eV
Two Electron Energy:          656.60173673 Eh           17867.04160 eV

Virial components:
Potential Energy   :        -3279.62220354 Eh          -89243.05719 eV
Kinetic Energy     :         1638.52693390 Eh           44586.58461 eV
Virial Ratio       :            2.00156747


DFT components:
N(Alpha)           :       15.000000519554 electrons
N(Beta)            :       15.000000519554 electrons
N(Total)           :       30.000001039108 electrons
E(X)               :      -59.544993701600 Eh       
E(C)               :       -1.381935397626 Eh       
E(XC)              :      -60.926929099226 Eh       
DFET-embed. en.    :        0.000000000000 Eh       

---------------
SCF CONVERGENCE
---------------

  Last Energy change         ...   -1.8986e-10  Tolerance :   1.0000e-08
  Last MAX-Density change    ...    8.1334e-07  Tolerance :   1.0000e-07
  Last RMS-Density change    ...    1.8044e-08  Tolerance :   5.0000e-09
  Last DIIS Error            ...    6.8577e-07  Tolerance :   5.0000e-07

             **** THE GBW FILE WAS UPDATED (Cu01N0_H.gbw) ****
             **** DENSITY FILE WAS UPDATED (Cu01N0_H.scfp) ****
             **** ENERGY FILE WAS UPDATED (Cu01N0_H.en.tmp) ****
             **** THE GBW FILE WAS UPDATED (Cu01N0_H.gbw) ****
             **** DENSITY FILE WAS UPDATED (Cu01N0_H.scfp) ****
----------------
ORBITAL ENERGIES
----------------

  NO   OCC          E(Eh)            E(eV) 
   0   2.0000    -322.771522     -8783.0596 
   1   2.0000     -38.647722     -1051.6580 
   2   2.0000     -33.825639      -920.4424 
   3   2.0000     -33.823178      -920.3755 
   4   2.0000     -33.823178      -920.3755 
   5   2.0000      -4.247199      -115.5721 
   6   2.0000      -2.744201       -74.6735 
   7   2.0000      -2.734834       -74.4186 
   8   2.0000      -2.734834       -74.4186 
   9   2.0000      -0.317014        -8.6264 
  10   2.0000      -0.249779        -6.7968 
  11   2.0000      -0.249779        -6.7968 
  12   2.0000      -0.241528        -6.5723 
  13   2.0000      -0.241528        -6.5723 
  14   2.0000      -0.215996        -5.8776 
  15   0.0000      -0.084927        -2.3110 
  16   0.0000      -0.011743        -0.3196 
  17   0.0000      -0.011743        -0.3196 
  18   0.0000       0.061608         1.6764 
  19   0.0000       0.069071         1.8795 
  20   0.0000       0.125472         3.4143 
  21   0.0000       0.125472         3.4143 
  22   0.0000       0.145941         3.9713 
  23   0.0000       0.171551         4.6681 
  24   0.0000       0.171551         4.6681 
  25   0.0000       0.183981         5.0064 
  26   0.0000       0.183981         5.0064 
  27   0.0000       0.281733         7.6663 
  28   0.0000       0.294522         8.0144 
  29   0.0000       0.294522         8.0144 
  30   0.0000       0.355114         9.6631 
  31   0.0000       0.457938        12.4611 
  32   0.0000       0.659337        17.9415 
  33   0.0000       0.659337        17.9415 
  34   0.0000       0.696365        18.9491 
  35   0.0000       0.790583        21.5129 
  36   0.0000       0.790583        21.5129 
  37   0.0000       0.877427        23.8760 
  38   0.0000       0.877431        23.8761 
  39   0.0000       1.012806        27.5599 
  40   0.0000       1.091290        29.6955 
  41   0.0000       1.091290        29.6955 
  42   0.0000       1.282015        34.8854 
  43   0.0000       2.542422        69.1828 
  44   0.0000       2.713681        73.8430 
  45   0.0000       2.957732        80.4840 
  46   0.0000       2.957732        80.4840 
  47   0.0000       3.011985        81.9603 
  48   0.0000       3.011985        81.9603 
  49   0.0000       3.184741        86.6612 
  50   0.0000       3.184751        86.6615 
  51   0.0000       3.189490        86.7904 
  52   0.0000       3.303791        89.9007 
  53   0.0000       3.410299        92.7990 
  54   0.0000       3.410299        92.7990 
  55   0.0000       3.517741        95.7226 
  56   0.0000       3.517742        95.7226 
  57   0.0000       3.639650        99.0399 
  58   0.0000       3.639664        99.0403 
  59   0.0000       3.645830        99.2081 
  60   0.0000       3.645830        99.2081 
  61   0.0000       3.754562       102.1668 
  62   0.0000       3.945098       107.3516 
  63   0.0000       3.945098       107.3516 
  64   0.0000       4.199038       114.2616 
  65   0.0000       4.199038       114.2616 
  66   0.0000       4.346495       118.2742 
  67   0.0000       5.322553       144.8340 
  68   0.0000      12.972495       352.9995 
  69   0.0000      12.972498       352.9996 
  70   0.0000      12.976331       353.1039 
  71   0.0000      12.976331       353.1039 
  72   0.0000      12.979369       353.1866 
  73   0.0000      12.979369       353.1866 
  74   0.0000      12.980144       353.2077 
  75   0.0000      12.980157       353.2080 
  76   0.0000      12.985573       353.3554 
  77   0.0000      13.079367       355.9077 
  78   0.0000      13.079367       355.9077 
  79   0.0000      13.080273       355.9323 
  80   0.0000      13.080289       355.9328 
  81   0.0000      13.180608       358.6626 
  82   0.0000      13.180608       358.6626 
  83   0.0000      13.412952       364.9850 

                    ********************************
                    * MULLIKEN POPULATION ANALYSIS *
                    ********************************

-----------------------
MULLIKEN ATOMIC CHARGES
-----------------------
   0 Cu:   -0.346754
   1 H :    0.346754
Sum of atomic charges:   -0.0000000

--------------------------------
MULLIKEN REDUCED ORBITAL CHARGES
--------------------------------
  0 Cus       :     7.312113  s :     7.312113
      pz      :     4.171977  p :    12.172931
      px      :     4.000477
      py      :     4.000477
      dz2     :     1.872828  d :     9.861414
      dxz     :     1.994365
      dyz     :     1.994365
      dx2y2   :     1.999928
      dxy     :     1.999928
      f0      :     0.000176  f :     0.000293
      f+1     :     0.000026
      f-1     :     0.000026
      f+2     :     0.000032
      f-2     :     0.000032
      f+3     :     0.000000
      f-3     :     0.000000
      g0      :     0.000003  g :     0.000004
      g+1     :     0.000001
      g-1     :     0.000001
      g+2     :     0.000000
      g-2     :     0.000000
      g+3     :     0.000000
      g-3     :     0.000000
      g+4     :     0.000000
      g-4     :     0.000000
  1 H s       :     0.684798  s :     0.684798
      pz      :    -0.042728  p :    -0.033771
      px      :     0.004479
      py      :     0.004479
      dz2     :     0.000834  d :     0.002219
      dxz     :     0.000653
      dyz     :     0.000653
      dx2y2   :     0.000039
      dxy     :     0.000039


                     *******************************
                     * LOEWDIN POPULATION ANALYSIS *
                     *******************************

----------------------
LOEWDIN ATOMIC CHARGES
----------------------
   0 Cu:    0.266295
   1 H :   -0.266295

-------------------------------
LOEWDIN REDUCED ORBITAL CHARGES
-------------------------------
  0 Cus       :     6.797555  s :     6.797555
      pz      :     4.104608  p :    12.104688
      px      :     4.000040
      py      :     4.000040
      dz2     :     1.882433  d :     9.830576
      dxz     :     1.974464
      dyz     :     1.974464
      dx2y2   :     1.999607
      dxy     :     1.999607
      f0      :     0.000620  f :     0.000883
      f+1     :     0.000098
      f-1     :     0.000098
      f+2     :     0.000034
      f-2     :     0.000034
      f+3     :     0.000000
      f-3     :     0.000000
      g0      :     0.000003  g :     0.000003
      g+1     :     0.000000
      g-1     :     0.000000
      g+2     :     0.000000
      g-2     :     0.000000
      g+3     :     0.000000
      g-3     :     0.000000
      g+4     :     0.000000
      g-4     :     0.000000
  1 H s       :     1.097902  s :     1.097902
      pz      :     0.106900  p :     0.147525
      px      :     0.020313
      py      :     0.020313
      dz2     :     0.009979  d :     0.020868
      dxz     :     0.005085
      dyz     :     0.005085
      dx2y2   :     0.000359
      dxy     :     0.000359


                      *****************************
                      * MAYER POPULATION ANALYSIS *
                      *****************************

  NA   - Mulliken gross atomic population
  ZA   - Total nuclear charge
  QA   - Mulliken gross atomic charge
  VA   - Mayer's total valence
  BVA  - Mayer's bonded valence
  FA   - Mayer's free valence

  ATOM       NA         ZA         QA         VA         BVA        FA
  0 Cu    29.3468    29.0000    -0.3468     0.8190     0.8190    -0.0000
  1 H      0.6532     1.0000     0.3468     0.8190     0.8190    -0.0000

  Mayer bond orders larger than 0.100000
B(  0-Cu,  1-H ) :   0.8190 

-------
TIMINGS
-------

Total SCF time: 0 days 0 hours 0 min 3 sec 

Total time                  ....       3.496 sec
Sum of individual times     ....       3.194 sec  ( 91.4%)

Fock matrix formation       ....       2.863 sec  ( 81.9%)
  XC integration            ....       0.447 sec  ( 15.6% of F)
    Basis function eval.    ....       0.017 sec  (  3.9% of XC)
    Density eval.           ....       0.029 sec  (  6.6% of XC)
    XC-Functional eval.     ....       0.025 sec  (  5.6% of XC)
    XC-Potential eval.      ....       0.041 sec  (  9.2% of XC)
Diagonalization             ....       0.014 sec  (  0.4%)
Density matrix formation    ....       0.016 sec  (  0.5%)
Population analysis         ....       0.005 sec  (  0.2%)
Initial guess               ....       0.109 sec  (  3.1%)
Orbital Transformation      ....       0.000 sec  (  0.0%)
Orbital Orthonormalization  ....       0.000 sec  (  0.0%)
DIIS solution               ....       0.083 sec  (  2.4%)
Grid generation             ....       0.103 sec  (  3.0%)


-------------------------------------------------------------------------------
                          DFT DISPERSION CORRECTION                            
                                                                               
                              DFTD3 V3.1  Rev 1                                
                          USING Becke-Johnson damping                          
-------------------------------------------------------------------------------
The TPSSH functional is recognized
Active option DFTDOPT                   ...         4   

molecular C6(AA) [au] = 226.212645 


            DFT-D V3
 parameters
 s6 scaling factor         :     1.0000 
 a1 scaling factor         :     0.4529 
 s8 scaling factor         :     2.2382 
 a2 scaling factor         :     4.6550 
 ad hoc parameters k1-k3   :    16.0000     1.3333    -4.0000 

 Edisp/kcal,au: -0.240967358605  -0.000384005888 
 E6   /kcal   :  -0.101932296 
 E8   /kcal   :  -0.139035063 
 % E8         :  57.698712142 

-------------------------   ----------------
Dispersion correction           -0.000384006
-------------------------   ----------------


-------------------------   --------------------
FINAL SINGLE POINT ENERGY     -1641.095653652689
-------------------------   --------------------



           ************************************************************
           *        Program running with 24 parallel MPI-processes    *
           *              working on a common directory               *
           ************************************************************
------------------------------------------------------------------------------
                         ORCA SCF GRADIENT CALCULATION
------------------------------------------------------------------------------

Gradient of the Kohn-Sham DFT energy:
Kohn-Sham wavefunction type      ... RKS
Hartree-Fock exchange scaling    ...    0.100
Number of operators              ...    1
Number of atoms                  ...    2
Basis set dimensions             ...   84
Integral neglect threshold       ... 2.5e-11
Integral primitive cutoff        ... 2.5e-12

Nuclear repulsion gradient       ... done
One Electron Gradient            ... done
Pre-screening matrix             ... done
Starting the two electron gradient:
Two electron gradient done
Exchange-correlation gradient    ... done
Dispersion correction            ... done

------------------
CARTESIAN GRADIENT
------------------

   1   Cu  :    0.000000001    0.000000002   -0.005534479
   2   H   :   -0.000000001   -0.000000001    0.005840793

Difference to translation invariance:
           :   -0.0000000004    0.0000000008    0.0003063141

Norm of the cartesian gradient     ...    0.0080464479
RMS gradient                       ...    0.0032849486
MAX gradient                       ...    0.0058407932

-------
TIMINGS
-------

Total SCF gradient time            ...        0.785 sec

One electron gradient       ....       0.002 sec  (  0.3%)
Prescreening matrices       ....       0.142 sec  ( 18.1%)
Two electron gradient       ....       0.339 sec  ( 43.1%)
XC gradient                 ....       0.018 sec  (  2.3%)
------------------------------------------------------------------------------
                         ORCA GEOMETRY RELAXATION STEP
------------------------------------------------------------------------------

Reading the OPT-File                    .... done
Getting information on internals        .... done
Copying old internal coords+grads       .... done
Making the new internal coordinates     .... (new redundants).... done
Validating the new internal coordinates .... (new redundants).... done
Calculating the B-matrix                .... done
Calculating the G,G- and P matrices     .... done
Transforming gradient to internals      .... done
Projecting the internal gradient        .... done
Number of atoms                         ....   2
Number of internal coordinates          ....   1
Current Energy                          .... -1641.095653653 Eh
Current gradient norm                   ....     0.008046448 Eh/bohr
Maximum allowed component of the step   ....  0.300
Current trust radius                    ....  0.300
Evaluating the initial hessian          ....  (Almloef) done
Projecting the Hessian                  .... done
Forming the augmented Hessian           .... done
Diagonalizing the augmented Hessian     .... done
Last element of RFO vector              ....  0.999982152
Lowest eigenvalues of augmented Hessian:
 -0.000033982
Length of the computed step             ....  0.005974666
The final length of the internal step   ....  0.005974666
Converting the step to cartesian space:
 Initial RMS(Int)=    0.0059746661
Transforming coordinates:
 Iter   0:  RMS(Cart)=    0.0017247375 RMS(Int)=    0.0059746661
 Iter   1:  RMS(Cart)=    0.0000000000 RMS(Int)=    0.0000000000
done
Storing new coordinates                 .... done

                                .--------------------.
          ----------------------|Geometry convergence|-------------------------
          Item                value                   Tolerance       Converged
          ---------------------------------------------------------------------
          RMS gradient        0.0056876361            0.0001000000      NO
          MAX gradient        0.0056876361            0.0003000000      NO
          RMS step            0.0059746661            0.0020000000      NO
          MAX step            0.0059746661            0.0040000000      NO
          ........................................................
          Max(Bonds)      0.0032      Max(Angles)    0.00
          Max(Dihed)        0.00      Max(Improp)    0.00
          ---------------------------------------------------------------------

The optimization has not yet converged - more geometry cycles are needed


    ---------------------------------------------------------------------------
                         Redundant Internal Coordinates
                            (Angstroem and degrees)

        Definition                    Value    dE/dq     Step     New-Value
    ----------------------------------------------------------------------------
     1. B(H   1,Cu  0)                1.4554 -0.005688  0.0032    1.4585   
    ----------------------------------------------------------------------------

         *************************************************************
         *                GEOMETRY OPTIMIZATION CYCLE   2            *
         *************************************************************
---------------------------------
CARTESIAN COORDINATES (ANGSTROEM)
---------------------------------
  Cu     0.000000    0.000000    0.050094
  H      0.000000    0.000000   -1.408451

----------------------------
CARTESIAN COORDINATES (A.U.)
----------------------------
  NO LB      ZA    FRAG     MASS         X           Y           Z
   0 Cu   29.0000    0    63.550    0.000000    0.000000    0.094664
   1 H     1.0000    0     1.008    0.000000    0.000000   -2.661586

--------------------------------
INTERNAL COORDINATES (ANGSTROEM)
--------------------------------
 Cu     0   0   0     0.000000000000     0.00000000     0.00000000
 H      1   0   0     1.458544657130     0.00000000     0.00000000

---------------------------
INTERNAL COORDINATES (A.U.)
---------------------------
 Cu     0   0   0     0.000000000000     0.00000000     0.00000000
 H      1   0   0     2.756249956070     0.00000000     0.00000000



           ************************************************************
           *        Program running with 24 parallel MPI-processes    *
           *              working on a common directory               *
           ************************************************************


           ************************************************************
           *        Program running with 24 parallel MPI-processes    *
           *              working on a common directory               *
           ************************************************************

Diagonalization of the overlap matrix:
Smallest eigenvalue                        ... 2.015e-03
Time for diagonalization                   ...    0.002 sec
Threshold for overlap eigenvalues          ... 1.000e-08
Number of eigenvalues below threshold      ... 0
Time for construction of square roots      ...    0.006 sec
Total time needed                          ...    0.008 sec

-------------------
DFT GRID GENERATION
-------------------

General Integration Accuracy     IntAcc      ...  4.670
Radial Grid Type                 RadialGrid  ... Gauss-Chebyshev
Angular Grid (max. acc.)         AngularGrid ... Lebedev-302
Angular grid pruning method      GridPruning ... 3 (G Style)
Weight generation scheme         WeightScheme... Becke
Basis function cutoff            BFCut       ...    1.0000e-11
Integration weight cutoff        WCut        ...    1.0000e-14
Grids for H and He will be reduced by one unit

# of grid points (after initial pruning)     ...  12950 (   0.0 sec)
# of grid points (after weights+screening)   ...  12913 (   0.0 sec)
nearest neighbour list constructed           ...    0.0 sec
Grid point re-assignment to atoms done       ...    0.0 sec
Grid point division into batches done        ...    0.1 sec
Reduced shell lists constructed in    0.1 sec

Total number of grid points                  ...    12913
Total number of batches                      ...      203
Average number of points per batch           ...       63
Average number of grid points per atom       ...     6456
Average number of shells per batch           ...     6.10 (23.46%)
Average number of basis functions per batch  ...    14.90 (17.74%)
Average number of large shells per batch     ...     4.40 (72.13%)
Average number of large basis fcns per batch ...    12.60 (84.56%)
Maximum spatial batch extension              ...  28.79, 26.18, 17.10 au
Average spatial batch extension              ...   0.94,  0.87,  0.65 au

Time for grid setup =    0.113 sec

--------------
SCF ITERATIONS
--------------
ITER       Energy         Delta-E        Max-DP      RMS-DP      [F,P]     Damp
               ***  Starting incremental Fock matrix formation  ***
  0  -1641.0953006628   0.000000000000 0.00045929  0.00000998  0.0011018 0.7000
  1  -1641.0953009360  -0.000000273252 0.00052007  0.00001004  0.0007716 0.7000
                               ***Turning on DIIS***
  2  -1641.0953011516  -0.000000215595 0.00182093  0.00003073  0.0005401 0.0000
  3  -1641.0953017159  -0.000000564240 0.00009653  0.00000319  0.0000837 0.0000
  4  -1641.0953017058   0.000000010027 0.00007159  0.00000234  0.0001575 0.0000
  5  -1641.0953017220  -0.000000016205 0.00013053  0.00000200  0.0000853 0.0000
  6  -1641.0953017279  -0.000000005856 0.00001668  0.00000045  0.0000131 0.0000
  7  -1641.0953017282  -0.000000000337 0.00000257  0.00000008  0.0000022 0.0000
                            ***DIIS convergence achieved***

               *****************************************************
               *                     SUCCESS                       *
               *           SCF CONVERGED AFTER   8 CYCLES          *
               *****************************************************

Total Energy       :        -1641.09530173 Eh          -44656.47345 eV
  Last Energy change         ...   -8.1855e-12  Tolerance :   1.0000e-08
  Last MAX-Density change    ...    3.9729e-06  Tolerance :   1.0000e-07
             **** THE GBW FILE WAS UPDATED (Cu01N0_H.gbw) ****
             **** DENSITY FILE WAS UPDATED (Cu01N0_H.scfp) ****
             **** ENERGY FILE WAS UPDATED (Cu01N0_H.en.tmp) ****
             **** THE GBW FILE WAS UPDATED (Cu01N0_H.gbw) ****
             **** DENSITY FILE WAS UPDATED (Cu01N0_H.scfp) ****
Total SCF time: 0 days 0 hours 0 min 2 sec 


-------------------------------------------------------------------------------
                          DFT DISPERSION CORRECTION                            
                                                                               
                              DFTD3 V3.1  Rev 1                                
                          USING Becke-Johnson damping                          
-------------------------------------------------------------------------------
-------------------------   ----------------
Dispersion correction           -0.000384069
-------------------------   ----------------


-------------------------   --------------------
FINAL SINGLE POINT ENERGY     -1641.095685796859
-------------------------   --------------------



           ************************************************************
           *        Program running with 24 parallel MPI-processes    *
           *              working on a common directory               *
           ************************************************************
------------------------------------------------------------------------------
                         ORCA SCF GRADIENT CALCULATION
------------------------------------------------------------------------------

Gradient of the Kohn-Sham DFT energy:
Kohn-Sham wavefunction type      ... RKS
Hartree-Fock exchange scaling    ...    0.100
Number of operators              ...    1
Number of atoms                  ...    2
Basis set dimensions             ...   84
Integral neglect threshold       ... 2.5e-11
Integral primitive cutoff        ... 2.5e-12

Nuclear repulsion gradient       ... done
One Electron Gradient            ... done
Pre-screening matrix             ... done
Starting the two electron gradient:
Two electron gradient done
Exchange-correlation gradient    ... done
Dispersion correction            ... done

------------------
CARTESIAN GRADIENT
------------------

   1   Cu  :    0.000000001    0.000000001   -0.004629801
   2   H   :   -0.000000002    0.000000000    0.004932399

Difference to translation invariance:
           :   -0.0000000008    0.0000000008    0.0003025984

Norm of the cartesian gradient     ...    0.0067648814
RMS gradient                       ...    0.0027617513
MAX gradient                       ...    0.0049323994

-------
TIMINGS
-------

Total SCF gradient time            ...        0.703 sec

One electron gradient       ....       0.003 sec  (  0.4%)
Prescreening matrices       ....       0.142 sec  ( 20.1%)
Two electron gradient       ....       0.335 sec  ( 47.7%)
XC gradient                 ....       0.013 sec  (  1.9%)
------------------------------------------------------------------------------
                         ORCA GEOMETRY RELAXATION STEP
------------------------------------------------------------------------------

Reading the OPT-File                    .... done
Getting information on internals        .... done
Copying old internal coords+grads       .... done
Making the new internal coordinates     .... (new redundants).... done
Validating the new internal coordinates .... (new redundants).... done
Calculating the B-matrix                .... done
Calculating the G,G- and P matrices     .... done
Transforming gradient to internals      .... done
Projecting the internal gradient        .... done
Number of atoms                         ....   2
Number of internal coordinates          ....   1
Current Energy                          .... -1641.095685797 Eh
Current gradient norm                   ....     0.006764881 Eh/bohr
Maximum allowed component of the step   ....  0.300
Current trust radius                    ....  0.300
Updating the Hessian (BFGS)             .... done
Forming the augmented Hessian           .... done
Diagonalizing the augmented Hessian     .... done
Last element of RFO vector              ....  0.999504893
Lowest eigenvalues of augmented Hessian:
 -0.000150506
Length of the computed step             ....  0.031479357
The final length of the internal step   ....  0.031479357
Converting the step to cartesian space:
 Initial RMS(Int)=    0.0314793565
Transforming coordinates:
 Iter   0:  RMS(Cart)=    0.0090873075 RMS(Int)=    0.0314793565
 Iter   1:  RMS(Cart)=    0.0000000000 RMS(Int)=    0.0000000000
done
Storing new coordinates                 .... done

                                .--------------------.
          ----------------------|Geometry convergence|-------------------------
          Item                value                   Tolerance       Converged
          ---------------------------------------------------------------------
          Energy change      -0.0000321442            0.0000050000      NO
          RMS gradient        0.0047811001            0.0001000000      NO
          MAX gradient        0.0047811001            0.0003000000      NO
          RMS step            0.0314793565            0.0020000000      NO
          MAX step            0.0314793565            0.0040000000      NO
          ........................................................
          Max(Bonds)      0.0167      Max(Angles)    0.00
          Max(Dihed)        0.00      Max(Improp)    0.00
          ---------------------------------------------------------------------

The optimization has not yet converged - more geometry cycles are needed


    ---------------------------------------------------------------------------
                         Redundant Internal Coordinates
                            (Angstroem and degrees)

        Definition                    Value    dE/dq     Step     New-Value
    ----------------------------------------------------------------------------
     1. B(H   1,Cu  0)                1.4585 -0.004781  0.0167    1.4752   
    ----------------------------------------------------------------------------

         *************************************************************
         *                GEOMETRY OPTIMIZATION CYCLE   3            *
         *************************************************************
---------------------------------
CARTESIAN COORDINATES (ANGSTROEM)
---------------------------------
  Cu     0.000000    0.000000    0.058423
  H      0.000000    0.000000   -1.416780

----------------------------
CARTESIAN COORDINATES (A.U.)
----------------------------
  NO LB      ZA    FRAG     MASS         X           Y           Z
   0 Cu   29.0000    0    63.550    0.000000    0.000000    0.110403
   1 H     1.0000    0     1.008    0.000000    0.000000   -2.677326

--------------------------------
INTERNAL COORDINATES (ANGSTROEM)
--------------------------------
 Cu     0   0   0     0.000000000000     0.00000000     0.00000000
 H      1   0   0     1.475202815126     0.00000000     0.00000000

---------------------------
INTERNAL COORDINATES (A.U.)
---------------------------
 Cu     0   0   0     0.000000000000     0.00000000     0.00000000
 H      1   0   0     2.787729312577     0.00000000     0.00000000



           ************************************************************
           *        Program running with 24 parallel MPI-processes    *
           *              working on a common directory               *
           ************************************************************


           ************************************************************
           *        Program running with 24 parallel MPI-processes    *
           *              working on a common directory               *
           ************************************************************

Diagonalization of the overlap matrix:
Smallest eigenvalue                        ... 2.149e-03
Time for diagonalization                   ...    0.002 sec
Threshold for overlap eigenvalues          ... 1.000e-08
Number of eigenvalues below threshold      ... 0
Time for construction of square roots      ...    0.007 sec
Total time needed                          ...    0.009 sec

-------------------
DFT GRID GENERATION
-------------------

General Integration Accuracy     IntAcc      ...  4.670
Radial Grid Type                 RadialGrid  ... Gauss-Chebyshev
Angular Grid (max. acc.)         AngularGrid ... Lebedev-302
Angular grid pruning method      GridPruning ... 3 (G Style)
Weight generation scheme         WeightScheme... Becke
Basis function cutoff            BFCut       ...    1.0000e-11
Integration weight cutoff        WCut        ...    1.0000e-14
Grids for H and He will be reduced by one unit

# of grid points (after initial pruning)     ...  12950 (   0.0 sec)
# of grid points (after weights+screening)   ...  12913 (   0.0 sec)
nearest neighbour list constructed           ...    0.0 sec
Grid point re-assignment to atoms done       ...    0.0 sec
Grid point division into batches done        ...    0.1 sec
Reduced shell lists constructed in    0.1 sec

Total number of grid points                  ...    12913
Total number of batches                      ...      203
Average number of points per batch           ...       63
Average number of grid points per atom       ...     6456
Average number of shells per batch           ...     6.10 (23.46%)
Average number of basis functions per batch  ...    14.90 (17.74%)
Average number of large shells per batch     ...     4.40 (72.13%)
Average number of large basis fcns per batch ...    12.60 (84.56%)
Maximum spatial batch extension              ...  28.79, 26.18, 17.10 au
Average spatial batch extension              ...   0.94,  0.87,  0.65 au

Time for grid setup =    0.111 sec

--------------
SCF ITERATIONS
--------------
ITER       Energy         Delta-E        Max-DP      RMS-DP      [F,P]     Damp
               ***  Starting incremental Fock matrix formation  ***
  0  -1641.0953544634   0.000000000000 0.00254909  0.00005399  0.0058190 0.7000
  1  -1641.0953618845  -0.000007421051 0.00285328  0.00005419  0.0040750 0.7000
                               ***Turning on DIIS***
  2  -1641.0953677524  -0.000005867939 0.00814230  0.00014476  0.0028525 0.0000
  3  -1641.0953825645  -0.000014812108 0.00196193  0.00003736  0.0002793 0.0000
  4  -1641.0953832914  -0.000000726816 0.00025938  0.00000816  0.0002462 0.0000
  5  -1641.0953833948  -0.000000103411 0.00018176  0.00000565  0.0002372 0.0000
  6  -1641.0953833805   0.000000014315 0.00030214  0.00000495  0.0002987 0.0000
  7  -1641.0953834542  -0.000000073719 0.00003532  0.00000077  0.0000144 0.0000
  8  -1641.0953834545  -0.000000000341 0.00002013  0.00000029  0.0000076 0.0000
                            ***DIIS convergence achieved***

               *****************************************************
               *                     SUCCESS                       *
               *           SCF CONVERGED AFTER   9 CYCLES          *
               *****************************************************

Total Energy       :        -1641.09538345 Eh          -44656.47568 eV
  Last Energy change         ...   -1.1687e-10  Tolerance :   1.0000e-08
  Last MAX-Density change    ...    2.3097e-06  Tolerance :   1.0000e-07
             **** THE GBW FILE WAS UPDATED (Cu01N0_H.gbw) ****
             **** DENSITY FILE WAS UPDATED (Cu01N0_H.scfp) ****
             **** ENERGY FILE WAS UPDATED (Cu01N0_H.en.tmp) ****
             **** THE GBW FILE WAS UPDATED (Cu01N0_H.gbw) ****
             **** DENSITY FILE WAS UPDATED (Cu01N0_H.scfp) ****
Total SCF time: 0 days 0 hours 0 min 2 sec 


-------------------------------------------------------------------------------
                          DFT DISPERSION CORRECTION                            
                                                                               
                              DFTD3 V3.1  Rev 1                                
                          USING Becke-Johnson damping                          
-------------------------------------------------------------------------------
-------------------------   ----------------
Dispersion correction           -0.000384454
-------------------------   ----------------


-------------------------   --------------------
FINAL SINGLE POINT ENERGY     -1641.095767908746
-------------------------   --------------------



           ************************************************************
           *        Program running with 24 parallel MPI-processes    *
           *              working on a common directory               *
           ************************************************************
------------------------------------------------------------------------------
                         ORCA SCF GRADIENT CALCULATION
------------------------------------------------------------------------------

Gradient of the Kohn-Sham DFT energy:
Kohn-Sham wavefunction type      ... RKS
Hartree-Fock exchange scaling    ...    0.100
Number of operators              ...    1
Number of atoms                  ...    2
Basis set dimensions             ...   84
Integral neglect threshold       ... 2.5e-11
Integral primitive cutoff        ... 2.5e-12

Nuclear repulsion gradient       ... done
One Electron Gradient            ... done
Pre-screening matrix             ... done
Starting the two electron gradient:
Two electron gradient done
Exchange-correlation gradient    ... done
Dispersion correction            ... done

------------------
CARTESIAN GRADIENT
------------------

   1   Cu  :    0.000000001   -0.000000000   -0.000072990
   2   H   :    0.000000000   -0.000000002    0.000355898

Difference to translation invariance:
           :    0.0000000016   -0.0000000019    0.0002829074

Norm of the cartesian gradient     ...    0.0003633051
RMS gradient                       ...    0.0001483187
MAX gradient                       ...    0.0003558975

-------
TIMINGS
-------

Total SCF gradient time            ...        0.700 sec

One electron gradient       ....       0.003 sec  (  0.4%)
Prescreening matrices       ....       0.141 sec  ( 20.1%)
Two electron gradient       ....       0.335 sec  ( 47.8%)
XC gradient                 ....       0.013 sec  (  1.9%)
------------------------------------------------------------------------------
                         ORCA GEOMETRY RELAXATION STEP
------------------------------------------------------------------------------

Reading the OPT-File                    .... done
Getting information on internals        .... done
Copying old internal coords+grads       .... done
Making the new internal coordinates     .... (new redundants).... done
Validating the new internal coordinates .... (new redundants).... done
Calculating the B-matrix                .... done
Calculating the G,G- and P matrices     .... done
Transforming gradient to internals      .... done
Projecting the internal gradient        .... done
Number of atoms                         ....   2
Number of internal coordinates          ....   1
Current Energy                          .... -1641.095767909 Eh
Current gradient norm                   ....     0.000363305 Eh/bohr
Maximum allowed component of the step   ....  0.300
Current trust radius                    ....  0.300
Updating the Hessian (BFGS)             .... done
Forming the augmented Hessian           .... done
Diagonalizing the augmented Hessian     .... done
Last element of RFO vector              ....  0.999998907
Lowest eigenvalues of augmented Hessian:
 -0.000000317
Length of the computed step             ....  0.001478224
The final length of the internal step   ....  0.001478224
Converting the step to cartesian space:
 Initial RMS(Int)=    0.0014782236
Transforming coordinates:
 Iter   0:  RMS(Cart)=    0.0004267264 RMS(Int)=    0.0014782236
 Iter   1:  RMS(Cart)=    0.0000000000 RMS(Int)=    0.0000000000
done
Storing new coordinates                 .... done

                                .--------------------.
          ----------------------|Geometry convergence|-------------------------
          Item                value                   Tolerance       Converged
          ---------------------------------------------------------------------
          Energy change      -0.0000821119            0.0000050000      NO
          RMS gradient        0.0002144438            0.0001000000      NO
          MAX gradient        0.0002144438            0.0003000000      YES
          RMS step            0.0014782236            0.0020000000      YES
          MAX step            0.0014782236            0.0040000000      YES
          ........................................................
          Max(Bonds)      0.0008      Max(Angles)    0.00
          Max(Dihed)        0.00      Max(Improp)    0.00
          ---------------------------------------------------------------------

The optimization has not yet converged - more geometry cycles are needed


    ---------------------------------------------------------------------------
                         Redundant Internal Coordinates
                            (Angstroem and degrees)

        Definition                    Value    dE/dq     Step     New-Value
    ----------------------------------------------------------------------------
     1. B(H   1,Cu  0)                1.4752 -0.000214  0.0008    1.4760   
    ----------------------------------------------------------------------------

         *************************************************************
         *                GEOMETRY OPTIMIZATION CYCLE   4            *
         *************************************************************
---------------------------------
CARTESIAN COORDINATES (ANGSTROEM)
---------------------------------
  Cu     0.000000    0.000000    0.058814
  H      0.000000    0.000000   -1.417171

----------------------------
CARTESIAN COORDINATES (A.U.)
----------------------------
  NO LB      ZA    FRAG     MASS         X           Y           Z
   0 Cu   29.0000    0    63.550    0.000000    0.000000    0.111142
   1 H     1.0000    0     1.008    0.000000    0.000000   -2.678065

--------------------------------
INTERNAL COORDINATES (ANGSTROEM)
--------------------------------
 Cu     0   0   0     0.000000000000     0.00000000     0.00000000
 H      1   0   0     1.475985057354     0.00000000     0.00000000

---------------------------
INTERNAL COORDINATES (A.U.)
---------------------------
 Cu     0   0   0     0.000000000000     0.00000000     0.00000000
 H      1   0   0     2.789207536160     0.00000000     0.00000000



           ************************************************************
           *        Program running with 24 parallel MPI-processes    *
           *              working on a common directory               *
           ************************************************************


           ************************************************************
           *        Program running with 24 parallel MPI-processes    *
           *              working on a common directory               *
           ************************************************************

Diagonalization of the overlap matrix:
Smallest eigenvalue                        ... 2.155e-03
Time for diagonalization                   ...    0.002 sec
Threshold for overlap eigenvalues          ... 1.000e-08
Number of eigenvalues below threshold      ... 0
Time for construction of square roots      ...    0.005 sec
Total time needed                          ...    0.006 sec

-------------------
DFT GRID GENERATION
-------------------

General Integration Accuracy     IntAcc      ...  4.670
Radial Grid Type                 RadialGrid  ... Gauss-Chebyshev
Angular Grid (max. acc.)         AngularGrid ... Lebedev-302
Angular grid pruning method      GridPruning ... 3 (G Style)
Weight generation scheme         WeightScheme... Becke
Basis function cutoff            BFCut       ...    1.0000e-11
Integration weight cutoff        WCut        ...    1.0000e-14
Grids for H and He will be reduced by one unit

# of grid points (after initial pruning)     ...  12950 (   0.0 sec)
# of grid points (after weights+screening)   ...  12913 (   0.0 sec)
nearest neighbour list constructed           ...    0.0 sec
Grid point re-assignment to atoms done       ...    0.0 sec
Grid point division into batches done        ...    0.1 sec
Reduced shell lists constructed in    0.1 sec

Total number of grid points                  ...    12913
Total number of batches                      ...      203
Average number of points per batch           ...       63
Average number of grid points per atom       ...     6456
Average number of shells per batch           ...     6.10 (23.46%)
Average number of basis functions per batch  ...    14.90 (17.74%)
Average number of large shells per batch     ...     4.40 (72.13%)
Average number of large basis fcns per batch ...    12.60 (84.56%)
Maximum spatial batch extension              ...  28.79, 26.18, 17.10 au
Average spatial batch extension              ...   0.94,  0.87,  0.65 au

Time for grid setup =    0.104 sec

--------------
SCF ITERATIONS
--------------
ITER       Energy         Delta-E        Max-DP      RMS-DP      [F,P]     Damp
               ***  Starting incremental Fock matrix formation  ***
  0  -1641.0953837346   0.000000000000 0.00012333  0.00000257  0.0002848 0.7000
  1  -1641.0953837505  -0.000000015952 0.00013732  0.00000258  0.0001995 0.7000
                               ***Turning on DIIS***
  2  -1641.0953837631  -0.000000012607 0.00047264  0.00000787  0.0001396 0.0000
  3  -1641.0953837962  -0.000000033109 0.00002306  0.00000076  0.0000207 0.0000
  4  -1641.0953837955   0.000000000698 0.00001752  0.00000057  0.0000389 0.0000
  5  -1641.0953837967  -0.000000001165 0.00003249  0.00000050  0.0000206 0.0000
  6  -1641.0953837969  -0.000000000216 0.00000437  0.00000011  0.0000033 0.0000
                 **** Energy Check signals convergence ****

               *****************************************************
               *                     SUCCESS                       *
               *           SCF CONVERGED AFTER   7 CYCLES          *
               *****************************************************

Total Energy       :        -1641.09538380 Eh          -44656.47568 eV
  Last Energy change         ...   -2.8649e-11  Tolerance :   1.0000e-08
  Last MAX-Density change    ...    8.2344e-07  Tolerance :   1.0000e-07
             **** THE GBW FILE WAS UPDATED (Cu01N0_H.gbw) ****
             **** DENSITY FILE WAS UPDATED (Cu01N0_H.scfp) ****
             **** ENERGY FILE WAS UPDATED (Cu01N0_H.en.tmp) ****
             **** THE GBW FILE WAS UPDATED (Cu01N0_H.gbw) ****
             **** DENSITY FILE WAS UPDATED (Cu01N0_H.scfp) ****
Total SCF time: 0 days 0 hours 0 min 2 sec 


-------------------------------------------------------------------------------
                          DFT DISPERSION CORRECTION                            
                                                                               
                              DFTD3 V3.1  Rev 1                                
                          USING Becke-Johnson damping                          
-------------------------------------------------------------------------------
-------------------------   ----------------
Dispersion correction           -0.000384475
-------------------------   ----------------


-------------------------   --------------------
FINAL SINGLE POINT ENERGY     -1641.095768271693
-------------------------   --------------------



           ************************************************************
           *        Program running with 24 parallel MPI-processes    *
           *              working on a common directory               *
           ************************************************************
------------------------------------------------------------------------------
                         ORCA SCF GRADIENT CALCULATION
------------------------------------------------------------------------------

Gradient of the Kohn-Sham DFT energy:
Kohn-Sham wavefunction type      ... RKS
Hartree-Fock exchange scaling    ...    0.100
Number of operators              ...    1
Number of atoms                  ...    2
Basis set dimensions             ...   84
Integral neglect threshold       ... 2.5e-11
Integral primitive cutoff        ... 2.5e-12

Nuclear repulsion gradient       ... done
One Electron Gradient            ... done
Pre-screening matrix             ... done
Starting the two electron gradient:
Two electron gradient done
Exchange-correlation gradient    ... done
Dispersion correction            ... done

------------------
CARTESIAN GRADIENT
------------------

   1   Cu  :    0.000000001   -0.000000002    0.000132952
   2   H   :   -0.000000001    0.000000001    0.000149007

Difference to translation invariance:
           :    0.0000000004   -0.0000000008    0.0002819590

Norm of the cartesian gradient     ...    0.0001996981
RMS gradient                       ...    0.0000815264
MAX gradient                       ...    0.0001490066

-------
TIMINGS
-------

Total SCF gradient time            ...        0.699 sec

One electron gradient       ....       0.002 sec  (  0.3%)
Prescreening matrices       ....       0.142 sec  ( 20.3%)
Two electron gradient       ....       0.334 sec  ( 47.8%)
XC gradient                 ....       0.013 sec  (  1.9%)
------------------------------------------------------------------------------
                         ORCA GEOMETRY RELAXATION STEP
------------------------------------------------------------------------------

Reading the OPT-File                    .... done
Getting information on internals        .... done
Copying old internal coords+grads       .... done
Making the new internal coordinates     .... (new redundants).... done
Validating the new internal coordinates .... (new redundants).... done
Calculating the B-matrix                .... done
Calculating the G,G- and P matrices     .... done
Transforming gradient to internals      .... done
Projecting the internal gradient        .... done
Number of atoms                         ....   2
Number of internal coordinates          ....   1
Current Energy                          .... -1641.095768272 Eh
Current gradient norm                   ....     0.000199698 Eh/bohr
Maximum allowed component of the step   ....  0.300
Current trust radius                    ....  0.300
Updating the Hessian (BFGS)             .... done
Forming the augmented Hessian           .... done
Diagonalizing the augmented Hessian     .... done
Last element of RFO vector              ....  0.999999998
Lowest eigenvalues of augmented Hessian:
 -0.000000000
Length of the computed step             ....  0.000057485
The final length of the internal step   ....  0.000057485
Converting the step to cartesian space:
 Initial RMS(Int)=    0.0000574849
Transforming coordinates:
 Iter   0:  RMS(Cart)=    0.0000165945 RMS(Int)=    0.0000574849
 Iter   1:  RMS(Cart)=    0.0000000000 RMS(Int)=    0.0000000000
done
Storing new coordinates                 .... done

                                .--------------------.
          ----------------------|Geometry convergence|-------------------------
          Item                value                   Tolerance       Converged
          ---------------------------------------------------------------------
          Energy change      -0.0000003629            0.0000050000      YES
          RMS gradient        0.0000080271            0.0001000000      YES
          MAX gradient        0.0000080271            0.0003000000      YES
          RMS step            0.0000574849            0.0020000000      YES
          MAX step            0.0000574849            0.0040000000      YES
          ........................................................
          Max(Bonds)      0.0000      Max(Angles)    0.00
          Max(Dihed)        0.00      Max(Improp)    0.00
          ---------------------------------------------------------------------

                    ***********************HURRAY********************
                    ***        THE OPTIMIZATION HAS CONVERGED     ***
                    *************************************************


    ---------------------------------------------------------------------------
                         Redundant Internal Coordinates

                          --- Optimized Parameters ---  
                            (Angstroem and degrees)

        Definition                    OldVal   dE/dq     Step     FinalVal
    ----------------------------------------------------------------------------
     1. B(H   1,Cu  0)                1.4760 -0.000008  0.0000    1.4760   
    ----------------------------------------------------------------------------
                 *******************************************************
                 *** FINAL ENERGY EVALUATION AT THE STATIONARY POINT ***
                 ***               (AFTER    4 CYCLES)               ***
                 *******************************************************
---------------------------------
CARTESIAN COORDINATES (ANGSTROEM)
---------------------------------
  Cu     0.000000    0.000000    0.058829
  H      0.000000    0.000000   -1.417186

----------------------------
CARTESIAN COORDINATES (A.U.)
----------------------------
  NO LB      ZA    FRAG     MASS         X           Y           Z
   0 Cu   29.0000    0    63.550    0.000000    0.000000    0.111171
   1 H     1.0000    0     1.008    0.000000    0.000000   -2.678094

--------------------------------
INTERNAL COORDINATES (ANGSTROEM)
--------------------------------
 Cu     0   0   0     0.000000000000     0.00000000     0.00000000
 H      1   0   0     1.476015477073     0.00000000     0.00000000

---------------------------
INTERNAL COORDINATES (A.U.)
---------------------------
 Cu     0   0   0     0.000000000000     0.00000000     0.00000000
 H      1   0   0     2.789265021098     0.00000000     0.00000000

---------------------
BASIS SET INFORMATION
---------------------
There are 2 groups of distinct atoms

 Group   1 Type Cu  : 17s13p7d2f1g contracted to 6s6p4d2f1g pattern {842111/631111/4111/11/1}
 Group   2 Type H   : 5s3p1d contracted to 3s3p1d pattern {311/111/1}

Atom   0Cu   basis set group =>   1
Atom   1H    basis set group =>   2
----------------------------------
AUXILIARY/JK BASIS SET INFORMATION
----------------------------------
There are 2 groups of distinct atoms

 Group   1 Type Cu  : 19s14p12d10f7g3h1i contracted to 16s13p11d9f5g3h1i pattern {4111111111111111/2111111111111/21111111111/211111111/31111/111/1}
 Group   2 Type H   : 4s2p2d contracted to 2s2p2d pattern {31/11/11}

Atom   0Cu   basis set group =>   1
Atom   1H    basis set group =>   2


           ************************************************************
           *        Program running with 24 parallel MPI-processes    *
           *              working on a common directory               *
           ************************************************************
------------------------------------------------------------------------------
                           ORCA GTO INTEGRAL CALCULATION
------------------------------------------------------------------------------

                         BASIS SET STATISTICS AND STARTUP INFO

 # of primitive gaussian shells          ...   49
 # of primitive gaussian functions       ...  133
 # of contracted shells                  ...   26
 # of contracted basis functions         ...   84
 Highest angular momentum                ...    4
 Maximum contraction depth               ...    8
 Integral package used                   ... LIBINT
 Integral threshhold            Thresh   ...  2.500e-11
 Primitive cut-off              TCut     ...  2.500e-12


------------------------------ INTEGRAL EVALUATION ----------------------------


 * One electron integrals 
 Pre-screening matrix                    ... done
 Shell pair data                         ... done (   0.000 sec)



           ************************************************************
           *        Program running with 24 parallel MPI-processes    *
           *              working on a common directory               *
           ************************************************************
-------------------------------------------------------------------------------
                                 ORCA SCF
-------------------------------------------------------------------------------

------------
SCF SETTINGS
------------
Hamiltonian:
 Density Functional     Method          .... DFT(GTOs)
 Exchange Functional    Exchange        .... TPSS
 Correlation Functional Correlation     .... TPSS
 LDA part of GGA corr.  LDAOpt          .... PW91-LDA
 Gradients option       PostSCFGGA      .... off
 Hybrid DFT is turned on
   Fraction HF Exchange ScalHFX         ....  0.100000
   Scaling of DF-GGA-X  ScalDFX         ....  0.900000
   Scaling of DF-GGA-C  ScalDFC         ....  1.000000
   Scaling of DF-LDA-C  ScalLDAC        ....  1.000000
   Perturbative correction              ....  0.000000
   Density functional embedding theory  .... OFF
   NL short-range parameter             ....  5.200000


General Settings:
 Integral files         IntName         .... Cu01N0_H
 Hartree-Fock type      HFTyp           .... RHF
 Total Charge           Charge          ....    0
 Multiplicity           Mult            ....    1
 Number of Electrons    NEL             ....   30
 Basis Dimension        Dim             ....   84
 Nuclear Repulsion      ENuc            ....     10.3970041501 Eh

Convergence Acceleration:
 DIIS                   CNVDIIS         .... on
   Start iteration      DIISMaxIt       ....    12
   Startup error        DIISStart       ....  0.200000
   # of expansion vecs  DIISMaxEq       ....     5
   Bias factor          DIISBfac        ....   1.050
   Max. coefficient     DIISMaxC        ....  10.000
 Newton-Raphson         CNVNR           .... off
 SOSCF                  CNVSOSCF        .... off
 Level Shifting         CNVShift        .... on
   Level shift para.    LevelShift      ....    0.2500
   Turn off err/grad.   ShiftErr        ....    0.0010
 Zerner damping         CNVZerner       .... off
 Static damping         CNVDamp         .... on
   Fraction old density DampFac         ....    0.7000
   Max. Damping (<1)    DampMax         ....    0.9800
   Min. Damping (>=0)   DampMin         ....    0.0000
   Turn off err/grad.   DampErr         ....    0.1000
 Fernandez-Rico         CNVRico         .... off

SCF Procedure:
 Maximum # iterations   MaxIter         ....   125
 SCF integral mode      SCFMode         .... Direct
   Integral package                     .... LIBINT
 Reset frequency        DirectResetFreq ....    20
 Integral Threshold     Thresh          ....  2.500e-11 Eh
 Primitive CutOff       TCut            ....  2.500e-12 Eh

Convergence Tolerance:
 Convergence Check Mode ConvCheckMode   .... Total+1el-Energy
 Convergence forced     ConvForced      .... 0
 Energy Change          TolE            ....  1.000e-08 Eh
 1-El. energy change                    ....  1.000e-05 Eh
 DIIS Error             TolErr          ....  5.000e-07


Diagonalization of the overlap matrix:
Smallest eigenvalue                        ... 2.156e-03
Time for diagonalization                   ...    0.002 sec
Threshold for overlap eigenvalues          ... 1.000e-08
Number of eigenvalues below threshold      ... 0
Time for construction of square roots      ...    0.005 sec
Total time needed                          ...    0.007 sec

---------------------
INITIAL GUESS: MOREAD
---------------------
Guess MOs are being read from file: Cu01N0_H.gbw
Input Geometry matches current geometry (good)
Input basis set matches current basis set (good)
MOs were renormalized
MOs were reorthogonalized (Cholesky)
                      ------------------
                      INITIAL GUESS DONE (   0.0 sec)
                      ------------------
-------------------
DFT GRID GENERATION
-------------------

General Integration Accuracy     IntAcc      ...  4.670
Radial Grid Type                 RadialGrid  ... Gauss-Chebyshev
Angular Grid (max. acc.)         AngularGrid ... Lebedev-302
Angular grid pruning method      GridPruning ... 3 (G Style)
Weight generation scheme         WeightScheme... Becke
Basis function cutoff            BFCut       ...    1.0000e-11
Integration weight cutoff        WCut        ...    1.0000e-14
Grids for H and He will be reduced by one unit

# of grid points (after initial pruning)     ...  12950 (   0.0 sec)
# of grid points (after weights+screening)   ...  12913 (   0.0 sec)
nearest neighbour list constructed           ...    0.0 sec
Grid point re-assignment to atoms done       ...    0.0 sec
Grid point division into batches done        ...    0.1 sec
Reduced shell lists constructed in    0.1 sec

Total number of grid points                  ...    12913
Total number of batches                      ...      203
Average number of points per batch           ...       63
Average number of grid points per atom       ...     6456
Average number of shells per batch           ...     6.10 (23.46%)
Average number of basis functions per batch  ...    14.90 (17.74%)
Average number of large shells per batch     ...     4.40 (72.13%)
Average number of large basis fcns per batch ...    12.60 (84.56%)
[...]
  18   0.0000       0.061922         1.6850 
  19   0.0000       0.068573         1.8660 
  20   0.0000       0.125611         3.4181 
  21   0.0000       0.125611         3.4181 
  22   0.0000       0.144993         3.9455 
  23   0.0000       0.171166         4.6577 
  24   0.0000       0.171166         4.6577 
  25   0.0000       0.183955         5.0057 
  26   0.0000       0.183955         5.0057 
  27   0.0000       0.281103         7.6492 
  28   0.0000       0.293669         7.9911 
  29   0.0000       0.293669         7.9911 
  30   0.0000       0.352265         9.5856 
  31   0.0000       0.458813        12.4849 
  32   0.0000       0.659724        17.9520 
  33   0.0000       0.659724        17.9520 
  34   0.0000       0.694741        18.9049 
  35   0.0000       0.789519        21.4839 
  36   0.0000       0.789519        21.4839 
  37   0.0000       0.877646        23.8820 
  38   0.0000       0.877650        23.8821 
  39   0.0000       1.008287        27.4369 
  40   0.0000       1.088651        29.6237 
  41   0.0000       1.088651        29.6237 
  42   0.0000       1.284586        34.9554 
  43   0.0000       2.545032        69.2538 
  44   0.0000       2.719512        74.0017 
  45   0.0000       2.971670        80.8633 
  46   0.0000       2.971670        80.8633 
  47   0.0000       3.011431        81.9452 
  48   0.0000       3.011431        81.9452 
  49   0.0000       3.189763        86.7979 
  50   0.0000       3.196304        86.9759 
  51   0.0000       3.196319        86.9763 
  52   0.0000       3.298787        89.7645 
  53   0.0000       3.410441        92.8028 
  54   0.0000       3.410441        92.8028 
  55   0.0000       3.507057        95.4319 
  56   0.0000       3.507057        95.4319 
  57   0.0000       3.640462        99.0620 
  58   0.0000       3.640477        99.0624 
  59   0.0000       3.648618        99.2840 
  60   0.0000       3.648618        99.2840 
  61   0.0000       3.756052       102.2074 
  62   0.0000       3.930171       106.9454 
  63   0.0000       3.930171       106.9454 
  64   0.0000       4.171575       113.5143 
  65   0.0000       4.171575       113.5143 
  66   0.0000       4.316453       117.4566 
  67   0.0000       5.254019       142.9691 
  68   0.0000      12.973201       353.0188 
  69   0.0000      12.973203       353.0188 
  70   0.0000      12.977020       353.1227 
  71   0.0000      12.977020       353.1227 
  72   0.0000      12.979294       353.1845 
  73   0.0000      12.979294       353.1845 
  74   0.0000      12.980646       353.2213 
  75   0.0000      12.980658       353.2217 
  76   0.0000      12.984878       353.3365 
  77   0.0000      13.080072       355.9269 
  78   0.0000      13.080072       355.9269 
  79   0.0000      13.080588       355.9409 
  80   0.0000      13.080604       355.9413 
  81   0.0000      13.170382       358.3843 
  82   0.0000      13.170382       358.3843 
  83   0.0000      13.403392       364.7248 

                    ********************************
                    * MULLIKEN POPULATION ANALYSIS *
                    ********************************

-----------------------
MULLIKEN ATOMIC CHARGES
-----------------------
   0 Cu:   -0.338741
   1 H :    0.338741
Sum of atomic charges:    0.0000000

--------------------------------
MULLIKEN REDUCED ORBITAL CHARGES
--------------------------------
  0 Cus       :     7.296168  s :     7.296168
      pz      :     4.173440  p :    12.174456
      px      :     4.000508
      py      :     4.000508
      dz2     :     1.878664  d :     9.867818
      dxz     :     1.994643
      dyz     :     1.994643
      dx2y2   :     1.999933
      dxy     :     1.999933
      f0      :     0.000173  f :     0.000295
      f+1     :     0.000029
      f-1     :     0.000029
      f+2     :     0.000032
      f-2     :     0.000032
      f+3     :     0.000000
      f-3     :     0.000000
      g0      :     0.000002  g :     0.000003
      g+1     :     0.000000
      g-1     :     0.000000
      g+2     :     0.000000
      g-2     :     0.000000
      g+3     :     0.000000
      g-3     :     0.000000
      g+4     :     0.000000
      g-4     :     0.000000
  1 H s       :     0.694018  s :     0.694018
      pz      :    -0.043301  p :    -0.034807
      px      :     0.004247
      py      :     0.004247
      dz2     :     0.000836  d :     0.002049
      dxz     :     0.000572
      dyz     :     0.000572
      dx2y2   :     0.000034
      dxy     :     0.000034


                     *******************************
                     * LOEWDIN POPULATION ANALYSIS *
                     *******************************

----------------------
LOEWDIN ATOMIC CHARGES
----------------------
   0 Cu:    0.255830
   1 H :   -0.255830

-------------------------------
LOEWDIN REDUCED ORBITAL CHARGES
-------------------------------
  0 Cus       :     6.796991  s :     6.796991
      pz      :     4.106796  p :    12.107117
      px      :     4.000161
      py      :     4.000161
      dz2     :     1.887975  d :     9.839235
      dxz     :     1.975979
      dyz     :     1.975979
      dx2y2   :     1.999651
      dxy     :     1.999651
      f0      :     0.000571  f :     0.000824
      f+1     :     0.000093
      f-1     :     0.000093
      f+2     :     0.000034
      f-2     :     0.000034
      f+3     :     0.000000
      f-3     :     0.000000
      g0      :     0.000003  g :     0.000003
      g+1     :     0.000000
      g-1     :     0.000000
      g+2     :     0.000000
      g-2     :     0.000000
      g+3     :     0.000000
      g-3     :     0.000000
      g+4     :     0.000000
      g-4     :     0.000000
  1 H s       :     1.095082  s :     1.095082
      pz      :     0.103846  p :     0.142270
      px      :     0.019212
      py      :     0.019212
      dz2     :     0.008738  d :     0.018478
      dxz     :     0.004555
      dyz     :     0.004555
      dx2y2   :     0.000315
      dxy     :     0.000315


                      *****************************
                      * MAYER POPULATION ANALYSIS *
                      *****************************

  NA   - Mulliken gross atomic population
  ZA   - Total nuclear charge
  QA   - Mulliken gross atomic charge
  VA   - Mayer's total valence
  BVA  - Mayer's bonded valence
  FA   - Mayer's free valence

  ATOM       NA         ZA         QA         VA         BVA        FA
  0 Cu    29.3387    29.0000    -0.3387     0.8267     0.8267     0.0000
  1 H      0.6613     1.0000     0.3387     0.8267     0.8267     0.0000

  Mayer bond orders larger than 0.100000
B(  0-Cu,  1-H ) :   0.8267 

-------
TIMINGS
-------

Total SCF time: 0 days 0 hours 0 min 0 sec 

Total time                  ....       0.834 sec
Sum of individual times     ....       0.578 sec  ( 69.3%)

Fock matrix formation       ....       0.451 sec  ( 54.0%)
  XC integration            ....       0.052 sec  ( 11.5% of F)
    Basis function eval.    ....       0.003 sec  (  6.2% of XC)
    Density eval.           ....       0.005 sec  (  9.4% of XC)
    XC-Functional eval.     ....       0.004 sec  (  6.8% of XC)
    XC-Potential eval.      ....       0.005 sec  (  9.7% of XC)
Diagonalization             ....       0.002 sec  (  0.3%)
Density matrix formation    ....       0.001 sec  (  0.1%)
Population analysis         ....       0.005 sec  (  0.6%)
Initial guess               ....       0.006 sec  (  0.7%)
Orbital Transformation      ....       0.000 sec  (  0.0%)
Orbital Orthonormalization  ....       0.003 sec  (  0.4%)
DIIS solution               ....       0.000 sec  (  0.0%)
Grid generation             ....       0.112 sec  ( 13.5%)


-------------------------------------------------------------------------------
                          DFT DISPERSION CORRECTION                            
                                                                               
                              DFTD3 V3.1  Rev 1                                
                          USING Becke-Johnson damping                          
-------------------------------------------------------------------------------
The TPSSH functional is recognized
Active option DFTDOPT                   ...         4   

molecular C6(AA) [au] = 226.478143 


            DFT-D V3
 parameters
 s6 scaling factor         :     1.0000 
 a1 scaling factor         :     0.4529 
 s8 scaling factor         :     2.2382 
 a2 scaling factor         :     4.6550 
 ad hoc parameters k1-k3   :    16.0000     1.3333    -4.0000 

 Edisp/kcal,au: -0.241262070610  -0.000384475542 
 E6   /kcal   :  -0.102044032 
 E8   /kcal   :  -0.139218039 
 % E8         :  57.704071969 

-------------------------   ----------------
Dispersion correction           -0.000384476
-------------------------   ----------------


-------------------------   --------------------
FINAL SINGLE POINT ENERGY     -1641.095768280005
-------------------------   --------------------

                                *** OPTIMIZATION RUN DONE ***

                            ***************************************
                            *     ORCA property calculations      *
                            ***************************************

                                    ---------------------
                                    Active property flags
                                    ---------------------
   (+) Dipole Moment


------------------------------------------------------------------------------
                       ORCA ELECTRIC PROPERTIES CALCULATION
------------------------------------------------------------------------------

Dipole Moment Calculation                       ... on
Quadrupole Moment Calculation                   ... off
Polarizability Calculation                      ... off
GBWName                                         ... Cu01N0_H.gbw
Electron density file                           ... Cu01N0_H.scfp
The origin for moment calculation is the CENTER OF MASS  = ( 0.000000,  0.000000  0.067620)

-------------
DIPOLE MOMENT
-------------
                                X             Y             Z
Electronic contribution:     -0.00000       0.00000       2.56555
Nuclear contribution   :      0.00000       0.00000      -1.48273
                        -----------------------------------------
Total Dipole Moment    :     -0.00000       0.00000       1.08282
                        -----------------------------------------
Magnitude (a.u.)       :      1.08282
Magnitude (Debye)      :      2.75231



--------------------
Rotational spectrum 
--------------------
 
Rotational constants in cm-1:     0.000000     7.798105     7.798105 
Rotational constants in MHz :     0.000000 233781.295893 233781.295893 

 Dipole components along the rotational axes: 
x,y,z [a.u.] :     1.082821     0.000000    -0.000000 
x,y,z [Debye]:     2.752311     0.000000    -0.000000 

 

----------------------------------------------------------------------------
                           ORCA NUMERICAL FREQUENCIES
                              (24-process run)
----------------------------------------------------------------------------

Number of atoms                ... 2
Central differences            ... used
Number of displacements        ... 12
Numerical increment            ... 5.000e-03 bohr
IR-spectrum generation         ... on
Raman-spectrum generation      ... off
Surface Crossing Hessian       ... off

 WARNING: There are more processes than displacements to do
  ====> : Reducing number of processes to   6

The output will be reduced. Please look at the following files:
SCF program output             ... >Cu01N0_H.lastscf
Integral program output        ... >Cu01N0_H.lastint
Gradient program output        ... >Cu01N0_H.lastgrad
Dipole moment program output   ... >Cu01N0_H.lastmom
AutoCI program output          ... >Cu01N0_H.lastautoci


         <<< Energy and Gradient at the input geometry >>>

        <<< Energy and Gradient at displaced geometries >>>
             <<<Displacing   2/coordinate 1 (+)>>>
             <<<Displacing   1/coordinate 1 (+)>>>
             <<<Displacing   1/coordinate 2 (+)>>>
             <<<Displacing   1/coordinate 3 (+)>>>
             <<<Displacing   2/coordinate 2 (+)>>>
             <<<Displacing   2/coordinate 3 (+)>>>
             <<<Displacing   1/coordinate 3 (-)>>>
             <<<Displacing   2/coordinate 3 (-)>>>
             <<<Displacing   2/coordinate 1 (-)>>>
             <<<Displacing   1/coordinate 2 (-)>>>
             <<<Displacing   1/coordinate 1 (-)>>>
             <<<Displacing   2/coordinate 2 (-)>>>
Warning: T+R mode no 5 is zero 

-----------------------
VIBRATIONAL FREQUENCIES
-----------------------

Scaling factor for frequencies =  1.000000000 (already applied!)

   0:         0.00 cm**-1
   1:         0.00 cm**-1
   2:         0.00 cm**-1
   3:         0.00 cm**-1
   4:         0.00 cm**-1
   5:      1926.75 cm**-1


------------
NORMAL MODES
------------

These modes are the cartesian displacements weighted by the diagonal matrix
M(i,i)=1/sqrt(m[i]) where m[i] is the mass of the displaced atom
Thus, these vectors are normalized but *not* orthogonal

                  0          1          2          3          4          5    
      0       0.000000   0.000000   0.000000   0.000000   0.000000   0.000000
      1       0.000000   0.000000   0.000000   0.000000   0.000000   0.000000
      2       0.000000   0.000000   0.000000   0.000000   0.000000   0.015860
      3       0.000000   0.000000   0.000000   0.000000   0.000000   0.000000
      4       0.000000   0.000000   0.000000   0.000000   0.000000   0.000000
      5       0.000000   0.000000   0.000000   0.000000   0.000000  -0.999874


-----------
IR SPECTRUM  
-----------

 Mode    freq (cm**-1)   T**2         TX         TY         TZ
-------------------------------------------------------------------
   5:      1926.75   62.142283  (  0.000029   0.000016   7.883038)

The first frequency considered to be a vibration is 5
The total number of vibrations considered is 1


--------------------------
THERMOCHEMISTRY AT 298.15K
--------------------------

Temperature         ... 298.15 K
Pressure            ... 1.00 atm
Total Mass          ... 64.56 AMU
The molecule is recognized as being linear

Throughout the following assumptions are being made:
  (1) The electronic state is orbitally nondegenerate
  (2) There are no thermally accessible electronically excited states
  (3) Hindered rotations indicated by low frequency modes are not
      treated as such but are treated as vibrations and this may
      cause some error
  (4) All equations used are the standard statistical mechanics
      equations for an ideal gas
  (5) All vibrations are strictly harmonic

freq.    1926.75  E(vib)   ...       0.00 

------------
INNER ENERGY
------------

The inner energy is: U= E(el) + E(ZPE) + E(vib) + E(rot) + E(trans)
    E(el)   - is the total energy from the electronic structure calculation
              = E(kin-el) + E(nuc-el) + E(el-el) + E(nuc-nuc)
    E(ZPE)  - the the zero temperature vibrational energy from the frequency calculation
    E(vib)  - the the finite temperature correction to E(ZPE) due to population
              of excited vibrational states
    E(rot)  - is the rotational thermal energy
    E(trans)- is the translational thermal energy

Summary of contributions to the inner energy U:
Electronic energy                ...  -1641.09576828 Eh
Zero point energy                ...      0.00438947 Eh       2.75 kcal/mol
Thermal vibrational correction   ...      0.00000080 Eh       0.00 kcal/mol
Thermal rotational correction    ...      0.00094418 Eh       0.59 kcal/mol
Thermal translational correction ...      0.00141627 Eh       0.89 kcal/mol
-----------------------------------------------------------------------
Total thermal energy                  -1641.08901756 Eh


Summary of corrections to the electronic energy:
(perhaps to be used in another calculation)
Total thermal correction                  0.00236126 Eh       1.48 kcal/mol
Non-thermal (ZPE) correction              0.00438947 Eh       2.75 kcal/mol
-----------------------------------------------------------------------
Total correction                          0.00675072 Eh       4.24 kcal/mol


--------
ENTHALPY
--------

The enthalpy is H = U + kB*T
                kB is Boltzmann's constant
Total free energy                 ...  -1641.08901756 Eh 
Thermal Enthalpy correction       ...      0.00094421 Eh       0.59 kcal/mol
-----------------------------------------------------------------------
Total Enthalpy                    ...  -1641.08807335 Eh


Note: Rotational entropy computed according to Herzberg 
Infrared and Raman Spectra, Chapter V,1, Van Nostrand Reinhold, 1945 
Point Group:  Cinfv, Symmetry Number:   1  
Rotational constants in cm-1:     0.000000     7.798105     7.798105 

Vibrational entropy computed according to the QRRHO of S. Grimme
Chem.Eur.J. 2012 18 9955


-------
ENTROPY
-------

The entropy contributions are T*S = T*(S(el)+S(vib)+S(rot)+S(trans))
     S(el)   - electronic entropy
     S(vib)  - vibrational entropy
     S(rot)  - rotational entropy
     S(trans)- translational entropy
The entropies will be listed as mutliplied by the temperature to get
units of energy

Electronic entropy                ...      0.00000000 Eh      0.00 kcal/mol
Vibrational entropy               ...      0.00000089 Eh      0.00 kcal/mol
Rotational entropy                ...      0.00404103 Eh      2.54 kcal/mol
Translational entropy             ...      0.01825147 Eh     11.45 kcal/mol
-----------------------------------------------------------------------
Final entropy term                ...      0.02229339 Eh     13.99 kcal/mol

In case the symmetry of your molecule has not been determined correctly
or in case you have a reason to use a different symmetry number we print 
out the resulting rotational entropy values for sn=1,12 :
 --------------------------------------------------------
|  sn= 1 | S(rot)=             -inf Eh      -inf kcal/mol|
|  sn= 2 | S(rot)=             -inf Eh      -inf kcal/mol|
|  sn= 3 | S(rot)=             -inf Eh      -inf kcal/mol|
|  sn= 4 | S(rot)=             -inf Eh      -inf kcal/mol|
|  sn= 5 | S(rot)=             -inf Eh      -inf kcal/mol|
|  sn= 6 | S(rot)=             -inf Eh      -inf kcal/mol|
|  sn= 7 | S(rot)=             -inf Eh      -inf kcal/mol|
|  sn= 8 | S(rot)=             -inf Eh      -inf kcal/mol|
|  sn= 9 | S(rot)=             -inf Eh      -inf kcal/mol|
|  sn=10 | S(rot)=             -inf Eh      -inf kcal/mol|
|  sn=11 | S(rot)=             -inf Eh      -inf kcal/mol|
|  sn=12 | S(rot)=             -inf Eh      -inf kcal/mol|
 --------------------------------------------------------


-------------------
GIBBS FREE ENERGY
-------------------

The Gibbs free energy is G = H - T*S

Total enthalpy                    ...  -1641.08807335 Eh 
Total entropy correction          ...     -0.02229339 Eh    -13.99 kcal/mol
-----------------------------------------------------------------------
Final Gibbs free energy         ...  -1641.11036674 Eh

For completeness - the Gibbs free energy minus the electronic energy
G-E(el)                           ...     -0.01459846 Eh     -9.16 kcal/mol


Total Time for Numerical Frequencies  :        32.395 sec

Timings for individual modules:

Sum of individual times         ...       30.768 sec (=   0.513 min)
GTO integral calculation        ...        5.305 sec (=   0.088 min)  17.2 %
SCF iterations                  ...       16.199 sec (=   0.270 min)  52.6 %
SCF Gradient evaluation         ...        9.163 sec (=   0.153 min)  29.8 %
Geometry relaxation             ...        0.101 sec (=   0.002 min)   0.3 %
                             ****ORCA TERMINATED NORMALLY****
TOTAL RUN TIME: 0 days 0 hours 1 minutes 0 seconds 498 msec
