
                                 *****************
                                 * O   R   C   A *
                                 *****************

           --- An Ab Initio, DFT and Semiempirical electronic structure package ---

                  #######################################################
                  #                        -***-                        #
                  #          Department of theory and spectroscopy      #
                  #               Directorship: Frank Neese             #
                  #        Max Planck Institute fuer Kohlenforschung    #
                  #                Kaiser Wilhelm Platz 1               #
                  #                 D-45470 Muelheim/Ruhr               #
                  #                      Germany                        #
                  #                                                     #
                  #                  All rights reserved                #
                  #                        -***-                        #
                  #######################################################


                         Program Version 4.2.0 -  RELEASE  -


 With contributions from (in alphabetic order):
   Daniel Aravena         : Magnetic Suceptibility
   Michael Atanasov       : Ab Initio Ligand Field Theory (pilot matlab implementation)
   Alexander A. Auer      : GIAO ZORA, VPT2
   Ute Becker             : Parallelization
   Giovanni Bistoni       : ED, misc. LED, open-shell LED, HFLED
   Martin Brehm           : Molecular dynamics
   Dmytro Bykov           : SCF Hessian
   Vijay G. Chilkuri      : MRCI spin determinant printing, contributions to CSF-ICE
   Dipayan Datta          : RHF DLPNO-CCSD density
   Achintya Kumar Dutta   : EOM-CC, STEOM-CC
   Dmitry Ganyushin       : Spin-Orbit,Spin-Spin,Magnetic field MRCI
   Miquel Garcia          : C-PCM Hessian, Gaussian charge scheme
   Yang Guo               : DLPNO-NEVPT2, CIM, IAO-localization
   Andreas Hansen         : Spin unrestricted coupled pair/coupled cluster methods
   Benjamin Helmich-Paris : CASSCF linear response (MC-RPA)
   Lee Huntington         : MR-EOM, pCC
   Robert Izsak           : Overlap fitted RIJCOSX, COSX-SCS-MP3, EOM
   Christian Kollmar      : KDIIS, OOCD, Brueckner-CCSD(T), CCSD density
   Simone Kossmann        : Meta GGA functionals, TD-DFT gradient, OOMP2, MP2 Hessian
   Martin Krupicka        : AUTO-CI
   Lucas Lang             : DCDCAS
   Dagmar Lenk            : GEPOL surface, SMD
   Dimitrios Liakos       : Extrapolation schemes; Compound Job, initial MDCI parallelization
   Dimitrios Manganas     : Further ROCIS development; embedding schemes
   Dimitrios Pantazis     : SARC Basis sets
   Taras Petrenko         : DFT Hessian,TD-DFT gradient, ASA, ECA, R-Raman, ABS, FL, XAS/XES, NRVS
   Peter Pinski           : DLPNO-MP2, DLPNO-MP2 Gradient
   Christoph Reimann      : Effective Core Potentials
   Marius Retegan         : Local ZFS, SOC
   Christoph Riplinger    : Optimizer, TS searches, QM/MM, DLPNO-CCSD(T), (RO)-DLPNO pert. Triples
   Tobias Risthaus        : Range-separated hybrids, TD-DFT gradient, RPA, STAB
   Michael Roemelt        : Original ROCIS implementation
   Masaaki Saitow         : Open-shell DLPNO-CCSD energy and density
   Barbara Sandhoefer     : DKH picture change effects
   Avijit Sen             : IP-ROCIS
   Kantharuban Sivalingam : CASSCF convergence, NEVPT2, FIC-MRCI
   Bernardo de Souza      : ESD, SOC TD-DFT
   Georgi Stoychev        : AutoAux, RI-MP2 NMR
   Willem Van den Heuvel  : Paramagnetic NMR
   Boris Wezisla          : Elementary symmetry handling
   Frank Wennmohs         : Technical directorship


 We gratefully acknowledge several colleagues who have allowed us to
 interface, adapt or use parts of their codes:
   Stefan Grimme, W. Hujo, H. Kruse,             : VdW corrections, initial TS optimization,
                  C. Bannwarth                     DFT functionals, gCP, sTDA/sTD-DF
   Ed Valeev, F. Pavosevic, A. Kumar             : LibInt (2-el integral package), F12 methods
   Garnet Chan, S. Sharma, J. Yang, R. Olivares  : DMRG
   Ulf Ekstrom                                   : XCFun DFT Library
   Mihaly Kallay                                 : mrcc  (arbitrary order and MRCC methods)
   Andreas Klamt, Michael Diedenhofen            : otool_cosmo (COSMO solvation model)
   Jiri Pittner, Ondrej Demel                    : Mk-CCSD
   Frank Weinhold                                : gennbo (NPA and NBO analysis)
   Christopher J. Cramer and Donald G. Truhlar   : smd solvation model
   Lars Goerigk                                  : TD-DFT with DH, B97 family of functionals
   V. Asgeirsson, H. Jonsson                     : NEB implementation
   FAccTs GmbH                                   : IRC, NEB, NEB-TS, Multilevel, MM, QM/MM, CI optimization
   S Lehtola, MJT Oliveira, MAL Marques          : LibXC Library


 Your calculation uses the libint2 library for the computation of 2-el integrals
 For citations please refer to: http://libint.valeyev.net

 Your ORCA version has been built with support for libXC version: 4.2.3
 For citations please refer to: https://tddft.org/programs/libxc/

 This ORCA versions uses:
   CBLAS   interface :  Fast vector & matrix operations
   LAPACKE interface :  Fast linear algebra routines
   SCALAPACK package :  Parallel linear algebra routines


Your calculation utilizes the atom-pairwise dispersion correction
with the Becke-Johnson damping scheme (D3BJ)
Cite in your paper:
S.Grimme, S.Ehrlich, L.Goerigk, J Comput Chem, (2011), 32, 1456–1465 
S.Grimme, J.Antony, S.Ehrlich and H.Krieg, J.Chem.Phys., 132, (2010), 154104 
   

----- Orbital basis set information -----
Your calculation utilizes the basis: def2-TZVPPD
   F. Weigend and R. Ahlrichs, Phys. Chem. Chem. Phys. 7, 3297 (2005).
   D. Rappoport and F. Furche, J. Chem. Phys. 133 134105 (2010).

----- AuxJK basis set information -----
Your calculation utilizes the auxiliary basis: def2/JK
   H-Ba, Hf-Rn: F. Weigend, J. Comput. Chem. 29, 167 (2008).

================================================================================
                                        WARNINGS
                       Please study these warnings very carefully!
================================================================================


WARNING: your system is open-shell and RHF/RKS was chosen
  ===> : WILL SWITCH to UHF/UKS


WARNING: Geometry Optimization
  ===> : Switching off AutoStart
         For restart on a previous wavefunction, please use MOREAD

INFO   : the flag for use of LIBINT has been found!

================================================================================
                                       INPUT FILE
================================================================================
NAME = Cu03N0_LIN.in
|  1> #
|  2> # Cu03N0_LIN TPSSh-D3BJ/Def2-TZVPPD
|  3> #
|  4> ! tpssh d3bj def2-tzvppd def2/jk grid4 nofinalgrid opt xyzfile numfreq
|  5> 
|  6> *xyz 0 2
|  7> Cu       0.000000    0.000000    0.000000 
|  8> Cu       0.000000    0.000000    2.291099 
|  9> Cu       0.000000    0.000000   -2.291099 
| 10> *
| 11> 
| 12> %maxcore 5000
| 13> 
| 14> %pal
| 15> nprocs = 24
| 16> end
| 17> 
| 18> 
| 19>                          ****END OF INPUT****
================================================================================

                       *****************************
                       * Geometry Optimization Run *
                       *****************************

Geometry optimization settings:
Update method            Update   .... BFGS
Choice of coordinates    CoordSys .... Z-matrix Internals
Initial Hessian          InHess   .... Almoef's Model

Convergence Tolerances:
Energy Change            TolE     ....  5.0000e-06 Eh
Max. Gradient            TolMAXG  ....  3.0000e-04 Eh/bohr
RMS Gradient             TolRMSG  ....  1.0000e-04 Eh/bohr
Max. Displacement        TolMAXD  ....  4.0000e-03 bohr
RMS Displacement         TolRMSD  ....  2.0000e-03 bohr
Strict Convergence                ....  False
------------------------------------------------------------------------------
                        ORCA OPTIMIZATION COORDINATE SETUP
------------------------------------------------------------------------------

The optimization will be done in new redundant internal coordinates
Making redundant internal coordinates   ...  (new redundants) done
Evaluating the initial hessian          ...  (Almloef) done
Evaluating the coordinates              ...  done
Calculating the B-matrix                .... done
Calculating the G-matrix                .... done
Diagonalizing the G-matrix              .... done
The first mode is                       ....    0
The number of degrees of freedom        ....    4

    -----------------------------------------------------------------
                    Redundant Internal Coordinates


    -----------------------------------------------------------------
         Definition                    Initial Value    Approx d2E/dq
    -----------------------------------------------------------------
      1. B(Cu  1,Cu  0)                  2.2911         2.335297   
      2. B(Cu  2,Cu  0)                  2.2911         2.335297   
      3. L(Cu  1,Cu  0,Cu  2, 2)       180.0000         1.128240   
      4. L(Cu  1,Cu  0,Cu  2, 1)       180.0000         1.128240   
    -----------------------------------------------------------------

Number of atoms                         .... 3
Number of degrees of freedom            .... 4

         *************************************************************
         *                GEOMETRY OPTIMIZATION CYCLE   1            *
         *************************************************************
---------------------------------
CARTESIAN COORDINATES (ANGSTROEM)
---------------------------------
  Cu     0.000000    0.000000    0.000000
  Cu     0.000000    0.000000    2.291099
  Cu     0.000000    0.000000   -2.291099

----------------------------
CARTESIAN COORDINATES (A.U.)
----------------------------
  NO LB      ZA    FRAG     MASS         X           Y           Z
   0 Cu   29.0000    0    63.550    0.000000    0.000000    0.000000
   1 Cu   29.0000    0    63.550    0.000000    0.000000    4.329550
   2 Cu   29.0000    0    63.550    0.000000    0.000000   -4.329550

--------------------------------
INTERNAL COORDINATES (ANGSTROEM)
--------------------------------
 Cu     0   0   0     0.000000000000     0.00000000     0.00000000
 Cu     1   0   0     2.291099000000     0.00000000     0.00000000
 Cu     1   2   0     2.291099000000   180.00000000     0.00000000

---------------------------
INTERNAL COORDINATES (A.U.)
---------------------------
 Cu     0   0   0     0.000000000000     0.00000000     0.00000000
 Cu     1   0   0     4.329549655701     0.00000000     0.00000000
 Cu     1   2   0     4.329549655701   180.00000000     0.00000000

---------------------
BASIS SET INFORMATION
---------------------
There are 1 groups of distinct atoms

 Group   1 Type Cu  : 17s13p7d2f1g contracted to 6s6p4d2f1g pattern {842111/631111/4111/11/1}

Atom   0Cu   basis set group =>   1
Atom   1Cu   basis set group =>   1
Atom   2Cu   basis set group =>   1
----------------------------------
AUXILIARY/JK BASIS SET INFORMATION
----------------------------------
There are 1 groups of distinct atoms

 Group   1 Type Cu  : 19s14p12d10f7g3h1i contracted to 16s13p11d9f5g3h1i pattern {4111111111111111/2111111111111/21111111111/211111111/31111/111/1}

Atom   0Cu   basis set group =>   1
Atom   1Cu   basis set group =>   1
Atom   2Cu   basis set group =>   1


           ************************************************************
           *        Program running with 24 parallel MPI-processes    *
           *              working on a common directory               *
           ************************************************************
------------------------------------------------------------------------------
                           ORCA GTO INTEGRAL CALCULATION
------------------------------------------------------------------------------

                         BASIS SET STATISTICS AND STARTUP INFO

 # of primitive gaussian shells          ...  120
 # of primitive gaussian functions       ...  342
 # of contracted shells                  ...   57
 # of contracted basis functions         ...  201
 Highest angular momentum                ...    4
 Maximum contraction depth               ...    8
 Integral package used                   ... LIBINT
 Integral threshhold            Thresh   ...  2.500e-11
 Primitive cut-off              TCut     ...  2.500e-12


------------------------------ INTEGRAL EVALUATION ----------------------------


 * One electron integrals 
 Pre-screening matrix                    ... done
 Shell pair data                         ... done (   0.000 sec)



           ************************************************************
           *        Program running with 24 parallel MPI-processes    *
           *              working on a common directory               *
           ************************************************************
-------------------------------------------------------------------------------
                                 ORCA SCF
-------------------------------------------------------------------------------

------------
SCF SETTINGS
------------
Hamiltonian:
 Density Functional     Method          .... DFT(GTOs)
 Exchange Functional    Exchange        .... TPSS
 Correlation Functional Correlation     .... TPSS
 LDA part of GGA corr.  LDAOpt          .... PW91-LDA
 Gradients option       PostSCFGGA      .... off
 Hybrid DFT is turned on
   Fraction HF Exchange ScalHFX         ....  0.100000
   Scaling of DF-GGA-X  ScalDFX         ....  0.900000
   Scaling of DF-GGA-C  ScalDFC         ....  1.000000
   Scaling of DF-LDA-C  ScalLDAC        ....  1.000000
   Perturbative correction              ....  0.000000
   Density functional embedding theory  .... OFF
   NL short-range parameter             ....  5.200000


General Settings:
 Integral files         IntName         .... Cu03N0_LIN
 Hartree-Fock type      HFTyp           .... UHF
 Total Charge           Charge          ....    0
 Multiplicity           Mult            ....    2
 Number of Electrons    NEL             ....   87
 Basis Dimension        Dim             ....  201
 Nuclear Repulsion      ENuc            ....    485.6163266846 Eh

Convergence Acceleration:
 DIIS                   CNVDIIS         .... on
   Start iteration      DIISMaxIt       ....    12
   Startup error        DIISStart       ....  0.200000
   # of expansion vecs  DIISMaxEq       ....     5
   Bias factor          DIISBfac        ....   1.050
   Max. coefficient     DIISMaxC        ....  10.000
 Newton-Raphson         CNVNR           .... off
 SOSCF                  CNVSOSCF        .... off
 Level Shifting         CNVShift        .... on
   Level shift para.    LevelShift      ....    0.2500
   Turn off err/grad.   ShiftErr        ....    0.0010
 Zerner damping         CNVZerner       .... off
 Static damping         CNVDamp         .... on
   Fraction old density DampFac         ....    0.7000
   Max. Damping (<1)    DampMax         ....    0.9800
   Min. Damping (>=0)   DampMin         ....    0.0000
   Turn off err/grad.   DampErr         ....    0.1000
 Fernandez-Rico         CNVRico         .... off

SCF Procedure:
 Maximum # iterations   MaxIter         ....   125
 SCF integral mode      SCFMode         .... Direct
   Integral package                     .... LIBINT
 Reset frequency        DirectResetFreq ....    20
 Integral Threshold     Thresh          ....  2.500e-11 Eh
 Primitive CutOff       TCut            ....  2.500e-12 Eh

Convergence Tolerance:
 Convergence Check Mode ConvCheckMode   .... Total+1el-Energy
 Convergence forced     ConvForced      .... 0
 Energy Change          TolE            ....  1.000e-08 Eh
 1-El. energy change                    ....  1.000e-05 Eh
 DIIS Error             TolErr          ....  5.000e-07


Diagonalization of the overlap matrix:
Smallest eigenvalue                        ... 3.321e-04
Time for diagonalization                   ...    0.008 sec
Threshold for overlap eigenvalues          ... 1.000e-08
Number of eigenvalues below threshold      ... 0
Time for construction of square roots      ...    0.005 sec
Total time needed                          ...    0.014 sec

-------------------
DFT GRID GENERATION
-------------------

General Integration Accuracy     IntAcc      ...  4.670
Radial Grid Type                 RadialGrid  ... Gauss-Chebyshev
Angular Grid (max. acc.)         AngularGrid ... Lebedev-302
Angular grid pruning method      GridPruning ... 3 (G Style)
Weight generation scheme         WeightScheme... Becke
Basis function cutoff            BFCut       ...    1.0000e-11
Integration weight cutoff        WCut        ...    1.0000e-14
Grids for H and He will be reduced by one unit

# of grid points (after initial pruning)     ...  28668 (   0.0 sec)
# of grid points (after weights+screening)   ...  28508 (   0.0 sec)
nearest neighbour list constructed           ...    0.0 sec
Grid point re-assignment to atoms done       ...    0.0 sec
Grid point division into batches done        ...    0.2 sec
Reduced shell lists constructed in    0.2 sec

Total number of grid points                  ...    28508
Total number of batches                      ...      447
Average number of points per batch           ...       63
Average number of grid points per atom       ...     9503
Average number of shells per batch           ...    19.10 (33.51%)
Average number of basis functions per batch  ...    56.10 (27.91%)
Average number of large shells per batch     ...    16.15 (84.55%)
Average number of large basis fcns per batch ...    46.85 (83.51%)
Maximum spatial batch extension              ...  26.18, 26.18,  4.32 au
Average spatial batch extension              ...   0.42,  0.42,  0.18 au

Time for grid setup =    0.291 sec

------------------------------
INITIAL GUESS: MODEL POTENTIAL
------------------------------
Loading Hartree-Fock densities                     ... done
Calculating cut-offs                               ... done
Setting up the integral package                    ... done
Initializing the effective Hamiltonian             ... done
Starting the Coulomb interaction                   ... done (   0.0 sec)
Reading the grid                                   ... done
Mapping shells                                     ... done
Starting the XC term evaluation                    ... done (   0.0 sec)
  promolecular density results
     # of electrons  =     87.000074313
     EX              =   -196.438204416
     EC              =     -4.046522289
     EX+EC           =   -200.484726705
Transforming the Hamiltonian                       ... done (   0.0 sec)
Diagonalizing the Hamiltonian                      ... done (   0.0 sec)
Back transforming the eigenvectors                 ... done (   0.0 sec)
Now organizing SCF variables                       ... done
                      ------------------
                      INITIAL GUESS DONE (   0.4 sec)
                      ------------------
--------------
SCF ITERATIONS
--------------
ITER       Energy         Delta-E        Max-DP      RMS-DP      [F,P]     Damp
               ***  Starting incremental Fock matrix formation  ***
  0  -4921.4461404464   0.000000000000 0.08207213  0.00105216  0.2027253 0.7000
  1  -4921.5022513091  -0.056110862648 0.05835483  0.00059256  0.0563050 0.7000
                               ***Turning on DIIS***
  2  -4921.5225747113  -0.020323402179 0.11677585  0.00106198  0.0530886 0.0000
  3  -4921.5671109030  -0.044536191709 0.01698246  0.00030254  0.0993350 0.0000
  4  -4921.5776709198  -0.010560016795 0.01314081  0.00018273  0.0122414 0.0000
  5  -4921.5782895361  -0.000618616287 0.00577887  0.00009038  0.0149534 0.0000
  6  -4921.5785109907  -0.000221454647 0.00291573  0.00004577  0.0043614 0.0000
  7  -4921.5785687697  -0.000057778972 0.00454529  0.00005991  0.0006166 0.0000
  8  -4921.5786035599  -0.000034790181 0.00249764  0.00001990  0.0006515 0.0000
  9  -4921.5786086185  -0.000005058662 0.00126318  0.00001130  0.0001385 0.0000
 10  -4921.5786094912  -0.000000872626 0.00030275  0.00000226  0.0000598 0.0000
 11  -4921.5786095307  -0.000000039505 0.00004254  0.00000059  0.0001018 0.0000
 12  -4921.5786095441  -0.000000013445 0.00006129  0.00000066  0.0000139 0.0000
 13  -4921.5786095469  -0.000000002783 0.00002979  0.00000023  0.0000017 0.0000
 14  -4921.5786095471  -0.000000000222 0.00000644  0.00000007  0.0000022 0.0000
 15  -4921.5786095481  -0.000000000946 0.00000786  0.00000008  0.0000015 0.0000
                 **** Energy Check signals convergence ****

               *****************************************************
               *                     SUCCESS                       *
               *           SCF CONVERGED AFTER  16 CYCLES          *
               *****************************************************


----------------
TOTAL SCF ENERGY
----------------

Total Energy       :        -4921.57860955 Eh         -133922.96248 eV

Components:
Nuclear Repulsion  :          485.61632668 Eh           13214.29205 eV
Electronic Energy  :        -5407.19493623 Eh         -147137.25453 eV
One Electron Energy:        -7832.88878595 Eh         -213143.73988 eV
Two Electron Energy:         2425.69384972 Eh           66006.48536 eV

Virial components:
Potential Energy   :        -9835.45926861 Eh         -267636.45307 eV
Kinetic Energy     :         4913.88065906 Eh          133713.49060 eV
Virial Ratio       :            2.00156657


DFT components:
N(Alpha)           :       44.000001463285 electrons
N(Beta)            :       43.000000539245 electrons
N(Total)           :       87.000002002530 electrons
E(X)               :     -177.809343306307 Eh       
E(C)               :       -4.080813289487 Eh       
E(XC)              :     -181.890156595794 Eh       
DFET-embed. en.    :        0.000000000000 Eh       

---------------
SCF CONVERGENCE
---------------

  Last Energy change         ...    4.6930e-10  Tolerance :   1.0000e-08
  Last MAX-Density change    ...    1.2384e-05  Tolerance :   1.0000e-07
  Last RMS-Density change    ...    1.2746e-07  Tolerance :   5.0000e-09
  Last DIIS Error            ...    4.3117e-07  Tolerance :   5.0000e-07

             **** THE GBW FILE WAS UPDATED (Cu03N0_LIN.gbw) ****
             **** DENSITY FILE WAS UPDATED (Cu03N0_LIN.scfp) ****
             **** ENERGY FILE WAS UPDATED (Cu03N0_LIN.en.tmp) ****
----------------------
UHF SPIN CONTAMINATION
----------------------

Warning: in a DFT calculation there is little theoretical justification to 
         calculate <S**2> as in Hartree-Fock theory. We will do it anyways
         but you should keep in mind that the values have only limited relevance

Expectation value of <S**2>     :     0.761580
Ideal value S*(S+1) for S=0.5   :     0.750000
Deviation                       :     0.011580

             **** THE GBW FILE WAS UPDATED (Cu03N0_LIN.gbw) ****
             **** DENSITY FILE WAS UPDATED (Cu03N0_LIN.scfp) ****
----------------
ORBITAL ENERGIES
----------------
                 SPIN UP ORBITALS
  NO   OCC          E(Eh)            E(eV) 
   0   1.0000    -322.753092     -8782.5581 
   1   1.0000    -322.753088     -8782.5580 
   2   1.0000    -322.739895     -8782.1990 
   3   1.0000     -38.625026     -1051.0404 
   4   1.0000     -38.625005     -1051.0398 
   5   1.0000     -38.616052     -1050.7962 
   6   1.0000     -33.802991      -919.8261 
   7   1.0000     -33.802988      -919.8261 
   8   1.0000     -33.801108      -919.7749 
   9   1.0000     -33.801108      -919.7749 
  10   1.0000     -33.801105      -919.7748 
  11   1.0000     -33.801105      -919.7748 
  12   1.0000     -33.793487      -919.5675 
  13   1.0000     -33.791816      -919.5221 
  14   1.0000     -33.791816      -919.5221 
  15   1.0000      -4.226548      -115.0102 
  16   1.0000      -4.226535      -115.0099 
  17   1.0000      -4.215426      -114.7076 
  18   1.0000      -2.722124       -74.0728 
  19   1.0000      -2.721478       -74.0552 
  20   1.0000      -2.716045       -73.9073 
  21   1.0000      -2.716045       -73.9073 
  22   1.0000      -2.716041       -73.9072 
  23   1.0000      -2.716041       -73.9072 
  24   1.0000      -2.709489       -73.7289 
  25   1.0000      -2.704412       -73.5908 
  26   1.0000      -2.704412       -73.5908 
  27   1.0000      -0.279732        -7.6119 
  28   1.0000      -0.248689        -6.7672 
  29   1.0000      -0.248689        -6.7672 
  30   1.0000      -0.236238        -6.4284 
  31   1.0000      -0.233734        -6.3602 
  32   1.0000      -0.233734        -6.3602 
  33   1.0000      -0.229223        -6.2375 
  34   1.0000      -0.229216        -6.2373 
  35   1.0000      -0.227629        -6.1941 
  36   1.0000      -0.227622        -6.1939 
  37   1.0000      -0.218847        -5.9551 
  38   1.0000      -0.210702        -5.7335 
  39   1.0000      -0.210691        -5.7332 
  40   1.0000      -0.202079        -5.4989 
  41   1.0000      -0.202079        -5.4989 
  42   1.0000      -0.197441        -5.3726 
  43   1.0000      -0.185956        -5.0601 
  44   0.0000      -0.076075        -2.0701 
  45   0.0000      -0.044335        -1.2064 
  46   0.0000      -0.044335        -1.2064 
  47   0.0000      -0.016301        -0.4436 
  48   0.0000      -0.004431        -0.1206 
  49   0.0000      -0.004431        -0.1206 
  50   0.0000       0.050116         1.3637 
  51   0.0000       0.055485         1.5098 
  52   0.0000       0.061252         1.6668 
  53   0.0000       0.061252         1.6668 
  54   0.0000       0.076970         2.0945 
  55   0.0000       0.107455         2.9240 
  56   0.0000       0.107455         2.9240 
  57   0.0000       0.120098         3.2680 
  58   0.0000       0.126099         3.4313 
  59   0.0000       0.126099         3.4313 
  60   0.0000       0.154307         4.1989 
  61   0.0000       0.154307         4.1989 
  62   0.0000       0.175743         4.7822 
  63   0.0000       0.188539         5.1304 
  64   0.0000       0.188539         5.1304 
  65   0.0000       0.188562         5.1310 
  66   0.0000       0.188562         5.1310 
  67   0.0000       0.203762         5.5446 
  68   0.0000       0.221722         6.0334 
  69   0.0000       0.221722         6.0334 
  70   0.0000       0.230621         6.2755 
  71   0.0000       0.278909         7.5895 
  72   0.0000       0.278910         7.5895 
  73   0.0000       0.283338         7.7100 
  74   0.0000       0.330647         8.9974 
  75   0.0000       0.330647         8.9974 
  76   0.0000       0.357036         9.7154 
  77   0.0000       0.445147        12.1131 
  78   0.0000       0.445147        12.1131 
  79   0.0000       0.476486        12.9658 
  80   0.0000       0.541944        14.7470 
  81   0.0000       0.600925        16.3520 
  82   0.0000       0.647418        17.6171 
  83   0.0000       0.647418        17.6171 
  84   0.0000       0.670732        18.2515 
  85   0.0000       0.670732        18.2515 
  86   0.0000       0.736050        20.0289 
  87   0.0000       0.736050        20.0289 
  88   0.0000       0.753892        20.5144 
  89   0.0000       0.841454        22.8971 
  90   0.0000       0.841455        22.8972 
  91   0.0000       0.881159        23.9776 
  92   0.0000       0.881161        23.9776 
  93   0.0000       0.881649        23.9909 
  94   0.0000       0.883483        24.0408 
  95   0.0000       0.883483        24.0408 
  96   0.0000       0.939026        25.5522 
  97   0.0000       0.940862        25.6021 
  98   0.0000       0.940862        25.6021 
  99   0.0000       0.957864        26.0648 
 100   0.0000       0.957868        26.0649 
 101   0.0000       1.151935        31.3457 
 102   0.0000       1.151935        31.3457 
 103   0.0000       1.185136        32.2492 
 104   0.0000       1.472490        40.0685 
 105   0.0000       2.935891        79.8897 
 106   0.0000       2.947724        80.2117 
 107   0.0000       2.947724        80.2117 
 108   0.0000       3.042168        82.7816 
 109   0.0000       3.047458        82.9255 
 110   0.0000       3.047458        82.9255 
 111   0.0000       3.072769        83.6143 
 112   0.0000       3.072769        83.6143 
 113   0.0000       3.116722        84.8103 
 114   0.0000       3.193795        86.9076 
 115   0.0000       3.332787        90.6897 
 116   0.0000       3.361321        91.4662 
 117   0.0000       3.396766        92.4307 
 118   0.0000       3.396766        92.4307 
 119   0.0000       3.401224        92.5520 
 120   0.0000       3.401224        92.5520 
 121   0.0000       3.413054        92.8739 
 122   0.0000       3.413064        92.8742 
 123   0.0000       3.414122        92.9030 
 124   0.0000       3.414132        92.9033 
 125   0.0000       3.416299        92.9622 
 126   0.0000       3.416299        92.9622 
 127   0.0000       3.416301        92.9623 
 128   0.0000       3.416301        92.9623 
 129   0.0000       3.435722        93.4908 
 130   0.0000       3.435738        93.4912 
 131   0.0000       3.439526        93.5943 
 132   0.0000       3.439526        93.5943 
 133   0.0000       3.455757        94.0359 
 134   0.0000       3.455757        94.0359 
 135   0.0000       3.462231        94.2121 
 136   0.0000       3.553496        96.6955 
 137   0.0000       3.628534        98.7374 
 138   0.0000       3.628594        98.7391 
 139   0.0000       3.652506        99.3897 
 140   0.0000       3.652560        99.3912 
 141   0.0000       3.696303       100.5815 
 142   0.0000       3.696303       100.5815 
 143   0.0000       3.703211       100.7695 
 144   0.0000       3.703272       100.7712 
 145   0.0000       3.756030       102.2068 
 146   0.0000       3.760811       102.3369 
 147   0.0000       3.760811       102.3369 
 148   0.0000       3.858383       104.9920 
 149   0.0000       3.858383       104.9920 
 150   0.0000       3.989373       108.5564 
 151   0.0000       4.083843       111.1270 
 152   0.0000       4.431906       120.5983 
 153   0.0000      12.990010       353.4762 
 154   0.0000      12.990010       353.4762 
 155   0.0000      12.990788       353.4973 
 156   0.0000      12.990788       353.4973 
 157   0.0000      12.990835       353.4986 
 158   0.0000      12.990894       353.5002 
 159   0.0000      12.990980       353.5025 
 160   0.0000      12.991283       353.5108 
 161   0.0000      12.991748       353.5234 
 162   0.0000      12.991809       353.5251 
 163   0.0000      12.993232       353.5638 
 164   0.0000      12.993232       353.5638 
 165   0.0000      12.993242       353.5641 
 166   0.0000      12.993242       353.5641 
 167   0.0000      12.994921       353.6098 
 168   0.0000      12.994922       353.6098 
 169   0.0000      12.995123       353.6153 
 170   0.0000      12.995123       353.6153 
 171   0.0000      13.003113       353.8327 
 172   0.0000      13.003113       353.8327 
 173   0.0000      13.003297       353.8377 
 174   0.0000      13.004752       353.8773 
 175   0.0000      13.006050       353.9126 
 176   0.0000      13.006455       353.9236 
 177   0.0000      13.006455       353.9236 
 178   0.0000      13.008883       353.9897 
 179   0.0000      13.009157       353.9972 
 180   0.0000      13.093480       356.2917 
 181   0.0000      13.093480       356.2917 
 182   0.0000      13.096136       356.3640 
 183   0.0000      13.096339       356.3695 
 184   0.0000      13.097288       356.3953 
 185   0.0000      13.097489       356.4008 
 186   0.0000      13.099295       356.4499 
 187   0.0000      13.099295       356.4499 
 188   0.0000      13.099295       356.4499 
 189   0.0000      13.099295       356.4499 
 190   0.0000      13.099508       356.4557 
 191   0.0000      13.107812       356.6817 
 192   0.0000      13.108073       356.6888 
 193   0.0000      13.109348       356.7235 
 194   0.0000      13.109348       356.7235 
 195   0.0000      13.110674       356.7596 
 196   0.0000      13.110674       356.7596 
 197   0.0000      13.124904       357.1468 
 198   0.0000      13.124904       357.1468 
 199   0.0000      13.190722       358.9378 
 200   0.0000      13.228025       359.9529 

                 SPIN DOWN ORBITALS
  NO   OCC          E(Eh)            E(eV) 
   0   1.0000    -322.752464     -8782.5411 
   1   1.0000    -322.752461     -8782.5410 
   2   1.0000    -322.739844     -8782.1976 
   3   1.0000     -38.625618     -1051.0565 
   4   1.0000     -38.625597     -1051.0559 
   5   1.0000     -38.616453     -1050.8071 
   6   1.0000     -33.803730      -919.8463 
   7   1.0000     -33.803727      -919.8462 
   8   1.0000     -33.801551      -919.7870 
   9   1.0000     -33.801551      -919.7870 
  10   1.0000     -33.801548      -919.7869 
  11   1.0000     -33.801548      -919.7869 
  12   1.0000     -33.793713      -919.5737 
  13   1.0000     -33.792066      -919.5289 
  14   1.0000     -33.792066      -919.5289 
  15   1.0000      -4.227287      -115.0303 
  16   1.0000      -4.227277      -115.0301 
  17   1.0000      -4.216215      -114.7291 
  18   1.0000      -2.721756       -74.0627 
  19   1.0000      -2.721066       -74.0440 
  20   1.0000      -2.717628       -73.9504 
  21   1.0000      -2.717628       -73.9504 
  22   1.0000      -2.717622       -73.9503 
  23   1.0000      -2.717622       -73.9503 
  24   1.0000      -2.710082       -73.7451 
  25   1.0000      -2.705205       -73.6124 
  26   1.0000      -2.705205       -73.6124 
  27   1.0000      -0.273767        -7.4496 
  28   1.0000      -0.246493        -6.7074 
  29   1.0000      -0.246493        -6.7074 
  30   1.0000      -0.233547        -6.3551 
  31   1.0000      -0.231096        -6.2884 
  32   1.0000      -0.231096        -6.2884 
  33   1.0000      -0.226569        -6.1653 
  34   1.0000      -0.226561        -6.1650 
  35   1.0000      -0.224785        -6.1167 
  36   1.0000      -0.224778        -6.1165 
  37   1.0000      -0.211318        -5.7503 
  38   1.0000      -0.211307        -5.7499 
  39   1.0000      -0.202086        -5.4991 
  40   1.0000      -0.202086        -5.4991 
  41   1.0000      -0.200457        -5.4547 
  42   1.0000      -0.197599        -5.3769 
  43   0.0000      -0.141913        -3.8616 
  44   0.0000      -0.059454        -1.6178 
  45   0.0000      -0.032680        -0.8893 
  46   0.0000      -0.032680        -0.8893 
  47   0.0000      -0.001416        -0.0385 
  48   0.0000       0.012029         0.3273 
  49   0.0000       0.012029         0.3273 
  50   0.0000       0.062165         1.6916 
  51   0.0000       0.067557         1.8383 
  52   0.0000       0.068039         1.8514 
  53   0.0000       0.068039         1.8514 
  54   0.0000       0.082195         2.2366 
  55   0.0000       0.117839         3.2066 
  56   0.0000       0.117839         3.2066 
  57   0.0000       0.128353         3.4927 
  58   0.0000       0.143552         3.9062 
  59   0.0000       0.143552         3.9063 
  60   0.0000       0.160785         4.3752 
  61   0.0000       0.160786         4.3752 
  62   0.0000       0.184540         5.0216 
  63   0.0000       0.197736         5.3807 
  64   0.0000       0.197736         5.3807 
  65   0.0000       0.199100         5.4178 
  66   0.0000       0.199100         5.4178 
  67   0.0000       0.213876         5.8199 
  68   0.0000       0.230775         6.2797 
  69   0.0000       0.230775         6.2797 
  70   0.0000       0.241875         6.5818 
  71   0.0000       0.283466         7.7135 
  72   0.0000       0.283467         7.7135 
  73   0.0000       0.291845         7.9415 
  74   0.0000       0.339737         9.2447 
  75   0.0000       0.339737         9.2447 
  76   0.0000       0.364400         9.9158 
  77   0.0000       0.454729        12.3738 
  78   0.0000       0.454729        12.3738 
  79   0.0000       0.482051        13.1173 
  80   0.0000       0.551610        15.0101 
  81   0.0000       0.610435        16.6108 
  82   0.0000       0.655348        17.8329 
  83   0.0000       0.655348        17.8329 
  84   0.0000       0.682697        18.5771 
  85   0.0000       0.682697        18.5771 
  86   0.0000       0.741578        20.1794 
  87   0.0000       0.741578        20.1794 
  88   0.0000       0.761863        20.7313 
  89   0.0000       0.853573        23.2269 
  90   0.0000       0.853576        23.2270 
  91   0.0000       0.890189        24.2233 
  92   0.0000       0.894463        24.3396 
  93   0.0000       0.894463        24.3396 
  94   0.0000       0.902161        24.5490 
  95   0.0000       0.902164        24.5491 
  96   0.0000       0.952502        25.9189 
  97   0.0000       0.956596        26.0303 
  98   0.0000       0.956596        26.0303 
  99   0.0000       0.965228        26.2652 
 100   0.0000       0.965234        26.2653 
 101   0.0000       1.161632        31.6096 
 102   0.0000       1.161632        31.6096 
 103   0.0000       1.197969        32.5984 
 104   0.0000       1.480837        40.2956 
 105   0.0000       2.940405        80.0125 
 106   0.0000       2.952047        80.3293 
 107   0.0000       2.952047        80.3293 
 108   0.0000       3.044902        82.8560 
 109   0.0000       3.053411        83.0875 
 110   0.0000       3.053411        83.0875 
 111   0.0000       3.074336        83.6569 
 112   0.0000       3.074336        83.6569 
 113   0.0000       3.121005        84.9269 
 114   0.0000       3.197768        87.0157 
 115   0.0000       3.337612        90.8210 
 116   0.0000       3.363982        91.5386 
 117   0.0000       3.397916        92.4620 
 118   0.0000       3.397916        92.4620 
 119   0.0000       3.403923        92.6255 
 120   0.0000       3.403923        92.6255 
 121   0.0000       3.416448        92.9663 
 122   0.0000       3.416452        92.9664 
 123   0.0000       3.417693        93.0001 
 124   0.0000       3.417697        93.0003 
 125   0.0000       3.421435        93.1020 
 126   0.0000       3.421435        93.1020 
 127   0.0000       3.421438        93.1020 
 128   0.0000       3.421438        93.1020 
 129   0.0000       3.435493        93.4845 
 130   0.0000       3.435507        93.4849 
 131   0.0000       3.438988        93.5796 
 132   0.0000       3.438988        93.5796 
 133   0.0000       3.458018        94.0974 
 134   0.0000       3.458018        94.0974 
 135   0.0000       3.463996        94.2601 
 136   0.0000       3.555453        96.7488 
 137   0.0000       3.631160        98.8089 
 138   0.0000       3.631215        98.8104 
 139   0.0000       3.656748        99.5052 
 140   0.0000       3.656797        99.5065 
 141   0.0000       3.699442       100.6669 
 142   0.0000       3.699442       100.6669 
 143   0.0000       3.704219       100.7969 
 144   0.0000       3.704278       100.7985 
 145   0.0000       3.758837       102.2832 
 146   0.0000       3.763785       102.4178 
 147   0.0000       3.763785       102.4178 
 148   0.0000       3.859126       105.0122 
 149   0.0000       3.859126       105.0122 
 150   0.0000       3.992880       108.6518 
 151   0.0000       4.086888       111.2099 
 152   0.0000       4.434533       120.6698 
 153   0.0000      12.989046       353.4499 
 154   0.0000      12.989046       353.4499 
 155   0.0000      12.989678       353.4671 
 156   0.0000      12.989737       353.4687 
 157   0.0000      12.989818       353.4709 
 158   0.0000      12.989818       353.4709 
 159   0.0000      12.990093       353.4784 
 160   0.0000      12.990400       353.4868 
 161   0.0000      12.990595       353.4920 
 162   0.0000      12.990655       353.4937 
 163   0.0000      12.991888       353.5272 
 164   0.0000      12.991888       353.5272 
 165   0.0000      12.991901       353.5276 
 166   0.0000      12.991901       353.5276 
 167   0.0000      12.993583       353.5734 
 168   0.0000      12.993583       353.5734 
 169   0.0000      12.993784       353.5788 
 170   0.0000      12.993784       353.5788 
 171   0.0000      13.002478       353.8154 
 172   0.0000      13.002478       353.8154 
 173   0.0000      13.002503       353.8161 
 174   0.0000      13.003960       353.8557 
 175   0.0000      13.005504       353.8977 
 176   0.0000      13.005629       353.9011 
 177   0.0000      13.005629       353.9011 
 178   0.0000      13.008481       353.9788 
 179   0.0000      13.008755       353.9862 
 180   0.0000      13.093267       356.2859 
 181   0.0000      13.093267       356.2859 
 182   0.0000      13.094919       356.3309 
 183   0.0000      13.095121       356.3363 
 184   0.0000      13.096067       356.3621 
 185   0.0000      13.096266       356.3675 
 186   0.0000      13.097076       356.3896 
 187   0.0000      13.097076       356.3896 
 188   0.0000      13.097077       356.3896 
 189   0.0000      13.097077       356.3896 
 190   0.0000      13.099611       356.4585 
 191   0.0000      13.106612       356.6490 
 192   0.0000      13.106872       356.6561 
 193   0.0000      13.108657       356.7047 
 194   0.0000      13.108657       356.7047 
 195   0.0000      13.110491       356.7546 
 196   0.0000      13.110491       356.7546 
 197   0.0000      13.124336       357.1313 
 198   0.0000      13.124336       357.1313 
 199   0.0000      13.190862       358.9416 
 200   0.0000      13.227860       359.9484 

                    ********************************
                    * MULLIKEN POPULATION ANALYSIS *
                    ********************************

--------------------------------------------
MULLIKEN ATOMIC CHARGES AND SPIN POPULATIONS
--------------------------------------------
   0 Cu:   -0.315313   -0.160012
   1 Cu:    0.157658    0.580009
   2 Cu:    0.157655    0.580003
Sum of atomic charges         :   -0.0000000
Sum of atomic spin populations:    1.0000000

-----------------------------------------------------
MULLIKEN REDUCED ORBITAL CHARGES AND SPIN POPULATIONS
-----------------------------------------------------
CHARGE
  0 Cus       :     7.391039  s :     7.391039
      pz      :     3.963773  p :    12.003415
      px      :     4.019821
      py      :     4.019821
      dz2     :     1.975915  d :     9.920572
      dxz     :     1.972568
      dyz     :     1.972568
      dx2y2   :     1.999761
      dxy     :     1.999761
      f0      :     0.000117  f :     0.000285
      f+1     :     0.000075
      f-1     :     0.000075
      f+2     :     0.000009
      f-2     :     0.000009
      f+3     :     0.000000
      f-3     :     0.000000
      g0      :     0.000000  g :     0.000001
      g+1     :     0.000000
      g-1     :     0.000000
      g+2     :     0.000000
      g-2     :     0.000000
      g+3     :     0.000000
      g-3     :     0.000000
      g+4     :     0.000000
      g-4     :     0.000000
  1 Cus       :     6.902847  s :     6.902847
      pz      :     3.975839  p :    12.002932
      px      :     4.013546
      py      :     4.013546
      dz2     :     1.955836  d :     9.936401
      dxz     :     1.990178
      dyz     :     1.990178
      dx2y2   :     2.000105
      dxy     :     2.000105
      f0      :     0.000055  f :     0.000162
      f+1     :     0.000044
      f-1     :     0.000044
      f+2     :     0.000010
      f-2     :     0.000010
      f+3     :     0.000000
      f-3     :     0.000000
      g0      :     0.000000  g :     0.000001
      g+1     :     0.000000
      g-1     :     0.000000
      g+2     :     0.000000
      g-2     :     0.000000
      g+3     :     0.000000
      g-3     :     0.000000
      g+4     :     0.000000
      g-4     :     0.000000
  2 Cus       :     6.902850  s :     6.902850
      pz      :     3.975839  p :    12.002932
      px      :     4.013546
      py      :     4.013546
      dz2     :     1.955836  d :     9.936401
      dxz     :     1.990178
      dyz     :     1.990178
      dx2y2   :     2.000105
      dxy     :     2.000105
      f0      :     0.000055  f :     0.000162
      f+1     :     0.000044
      f-1     :     0.000044
      f+2     :     0.000010
      f-2     :     0.000010
      f+3     :     0.000000
      f-3     :     0.000000
      g0      :     0.000000  g :     0.000001
      g+1     :     0.000000
      g-1     :     0.000000
      g+2     :     0.000000
      g-2     :     0.000000
      g+3     :     0.000000
      g-3     :     0.000000
      g+4     :     0.000000
      g-4     :     0.000000

SPIN
  0 Cus       :    -0.135882  s :    -0.135882
      pz      :    -0.012794  p :    -0.013378
      px      :    -0.000292
      py      :    -0.000292
      dz2     :    -0.000244  d :    -0.010760
      dxz     :    -0.005073
      dyz     :    -0.005073
      dx2y2   :    -0.000185
      dxy     :    -0.000185
      f0      :     0.000004  f :     0.000009
      f+1     :     0.000002
      f-1     :     0.000002
      f+2     :     0.000000
      f-2     :     0.000000
      f+3     :    -0.000000
      f-3     :    -0.000000
      g0      :     0.000000  g :     0.000000
      g+1     :     0.000000
      g-1     :     0.000000
      g+2     :    -0.000000
      g-2     :    -0.000000
      g+3     :    -0.000000
      g-3     :    -0.000000
      g+4     :    -0.000000
      g-4     :     0.000000
  1 Cus       :     0.570761  s :     0.570761
      pz      :     0.002572  p :     0.007520
      px      :     0.002474
      py      :     0.002474
      dz2     :     0.001128  d :     0.001727
      dxz     :     0.000207
      dyz     :     0.000207
      dx2y2   :     0.000092
      dxy     :     0.000092
      f0      :    -0.000000  f :     0.000001
      f+1     :     0.000000
      f-1     :     0.000000
      f+2     :     0.000000
      f-2     :     0.000000
      f+3     :    -0.000000
      f-3     :    -0.000000
      g0      :     0.000000  g :     0.000000
      g+1     :     0.000000
      g-1     :     0.000000
      g+2     :    -0.000000
      g-2     :    -0.000000
      g+3     :    -0.000000
      g-3     :    -0.000000
      g+4     :     0.000000
      g-4     :    -0.000000
  2 Cus       :     0.570758  s :     0.570758
      pz      :     0.002570  p :     0.007517
      px      :     0.002474
      py      :     0.002474
      dz2     :     0.001128  d :     0.001727
      dxz     :     0.000207
      dyz     :     0.000207
      dx2y2   :     0.000092
      dxy     :     0.000092
      f0      :    -0.000000  f :     0.000001
      f+1     :     0.000000
      f-1     :     0.000000
      f+2     :     0.000000
      f-2     :     0.000000
      f+3     :    -0.000000
      f-3     :    -0.000000
      g0      :     0.000000  g :     0.000000
      g+1     :     0.000000
      g-1     :     0.000000
      g+2     :    -0.000000
      g-2     :    -0.000000
      g+3     :    -0.000000
      g-3     :    -0.000000
      g+4     :     0.000000
      g-4     :    -0.000000


                     *******************************
                     * LOEWDIN POPULATION ANALYSIS *
                     *******************************

-------------------------------------------
LOEWDIN ATOMIC CHARGES AND SPIN POPULATIONS
-------------------------------------------
   0 Cu:   -0.248513    0.368647
   1 Cu:    0.124257    0.315677
   2 Cu:    0.124256    0.315676

----------------------------------------------------
LOEWDIN REDUCED ORBITAL CHARGES AND SPIN POPULATIONS
----------------------------------------------------
CHARGE
  0 Cus       :     6.735398  s :     6.735398
      pz      :     4.453325  p :    12.493980
      px      :     4.020327
      py      :     4.020327
      dz2     :     2.075176  d :    10.018376
      dxz     :     1.971827
      dyz     :     1.971827
      dx2y2   :     1.999773
      dxy     :     1.999773
      f0      :     0.000411  f :     0.000757
      f+1     :     0.000161
      f-1     :     0.000161
      f+2     :     0.000012
      f-2     :     0.000012
      f+3     :     0.000000
      f-3     :     0.000000
      g0      :     0.000001  g :     0.000002
      g+1     :     0.000001
      g-1     :     0.000001
      g+2     :     0.000000
      g-2     :     0.000000
      g+3     :     0.000000
      g-3     :     0.000000
      g+4     :     0.000000
      g-4     :     0.000000
  1 Cus       :     6.726968  s :     6.726968
      pz      :     4.131154  p :    12.161559
      px      :     4.015202
      py      :     4.015202
      dz2     :     2.009570  d :     9.986850
      dxz     :     1.988546
      dyz     :     1.988546
      dx2y2   :     2.000094
      dxy     :     2.000094
      f0      :     0.000153  f :     0.000365
      f+1     :     0.000094
      f-1     :     0.000094
      f+2     :     0.000013
      f-2     :     0.000013
      f+3     :     0.000000
      f-3     :     0.000000
      g0      :     0.000000  g :     0.000001
      g+1     :     0.000000
      g-1     :     0.000000
      g+2     :     0.000000
      g-2     :     0.000000
      g+3     :     0.000000
      g-3     :     0.000000
      g+4     :     0.000000
      g-4     :     0.000000
  2 Cus       :     6.726968  s :     6.726968
      pz      :     4.131154  p :    12.161559
      px      :     4.015202
      py      :     4.015202
      dz2     :     2.009570  d :     9.986850
      dxz     :     1.988546
      dyz     :     1.988546
      dx2y2   :     2.000094
      dxy     :     2.000094
      f0      :     0.000153  f :     0.000365
      f+1     :     0.000094
      f-1     :     0.000094
      f+2     :     0.000013
      f-2     :     0.000013
      f+3     :     0.000000
      f-3     :     0.000000
      g0      :     0.000000  g :     0.000001
      g+1     :     0.000000
      g-1     :     0.000000
      g+2     :     0.000000
      g-2     :     0.000000
      g+3     :     0.000000
      g-3     :     0.000000
      g+4     :     0.000000
      g-4     :     0.000000

SPIN
  0 Cus       :    -0.029538  s :    -0.029538
      pz      :     0.388768  p :     0.389956
      px      :     0.000594
      py      :     0.000594
      dz2     :     0.015281  d :     0.008145
      dxz     :    -0.003673
      dyz     :    -0.003673
      dx2y2   :     0.000105
      dxy     :     0.000105
      f0      :     0.000068  f :     0.000083
      f+1     :     0.000007
      f-1     :     0.000007
      f+2     :     0.000001
      f-2     :     0.000001
      f+3     :    -0.000000
      f-3     :    -0.000000
      g0      :     0.000000  g :     0.000000
      g+1     :     0.000000
      g-1     :     0.000000
      g+2     :    -0.000000
      g-2     :    -0.000000
      g+3     :    -0.000000
      g-3     :    -0.000000
      g+4     :    -0.000000
      g-4     :     0.000000
  1 Cus       :     0.309376  s :     0.309376
      pz      :    -0.002523  p :     0.001607
      px      :     0.002065
      py      :     0.002065
      dz2     :     0.005864  d :     0.004699
      dxz     :    -0.000529
      dyz     :    -0.000529
      dx2y2   :    -0.000053
      dxy     :    -0.000053
      f0      :    -0.000006  f :    -0.000006
      f+1     :     0.000000
      f-1     :     0.000000
      f+2     :     0.000000
      f-2     :     0.000000
      f+3     :    -0.000000
      f-3     :    -0.000000
      g0      :     0.000000  g :     0.000000
      g+1     :     0.000000
      g-1     :     0.000000
      g+2     :    -0.000000
      g-2     :    -0.000000
      g+3     :    -0.000000
      g-3     :    -0.000000
      g+4     :     0.000000
      g-4     :    -0.000000
  2 Cus       :     0.309376  s :     0.309376
      pz      :    -0.002523  p :     0.001607
      px      :     0.002065
      py      :     0.002065
      dz2     :     0.005864  d :     0.004699
      dxz     :    -0.000529
      dyz     :    -0.000529
      dx2y2   :    -0.000053
      dxy     :    -0.000053
      f0      :    -0.000006  f :    -0.000006
      f+1     :     0.000000
      f-1     :     0.000000
      f+2     :     0.000000
      f-2     :     0.000000
      f+3     :    -0.000000
      f-3     :    -0.000000
      g0      :     0.000000  g :     0.000000
      g+1     :     0.000000
      g-1     :     0.000000
      g+2     :    -0.000000
      g-2     :    -0.000000
      g+3     :    -0.000000
      g-3     :    -0.000000
      g+4     :     0.000000
      g-4     :    -0.000000


                      *****************************
                      * MAYER POPULATION ANALYSIS *
                      *****************************

  NA   - Mulliken gross atomic population
  ZA   - Total nuclear charge
  QA   - Mulliken gross atomic charge
  VA   - Mayer's total valence
  BVA  - Mayer's bonded valence
  FA   - Mayer's free valence

  ATOM       NA         ZA         QA         VA         BVA        FA
  0 Cu    29.3153    29.0000    -0.3153     0.9293     0.9107     0.0186
  1 Cu    28.8423    29.0000     0.1577     1.0070     0.6725     0.3344
  2 Cu    28.8423    29.0000     0.1577     1.0070     0.6726     0.3344

  Mayer bond orders larger than 0.100000
B(  0-Cu,  1-Cu) :   0.4553 B(  0-Cu,  2-Cu) :   0.4553 B(  1-Cu,  2-Cu) :   0.2172 


-------
TIMINGS
-------

Total SCF time: 0 days 0 hours 0 min 8 sec 

Total time                  ....       8.906 sec
Sum of individual times     ....       8.627 sec  ( 96.9%)

Fock matrix formation       ....       7.926 sec  ( 89.0%)
  XC integration            ....       0.949 sec  ( 12.0% of F)
    Basis function eval.    ....       0.055 sec  (  5.7% of XC)
    Density eval.           ....       0.136 sec  ( 14.3% of XC)
    XC-Functional eval.     ....       0.040 sec  (  4.2% of XC)
    XC-Potential eval.      ....       0.307 sec  ( 32.3% of XC)
Diagonalization             ....       0.199 sec  (  2.2%)
Density matrix formation    ....       0.024 sec  (  0.3%)
Population analysis         ....       0.013 sec  (  0.1%)
Initial guess               ....       0.099 sec  (  1.1%)
Orbital Transformation      ....       0.000 sec  (  0.0%)
Orbital Orthonormalization  ....       0.000 sec  (  0.0%)
DIIS solution               ....       0.075 sec  (  0.8%)
Grid generation             ....       0.291 sec  (  3.3%)


-------------------------------------------------------------------------------
                          DFT DISPERSION CORRECTION                            
                                                                               
                              DFTD3 V3.1  Rev 1                                
                          USING Becke-Johnson damping                          
-------------------------------------------------------------------------------
The TPSSH functional is recognized
Active option DFTDOPT                   ...         4   

molecular C6(AA) [au] = 1595.875645 


            DFT-D V3
 parameters
 s6 scaling factor         :     1.0000 
 a1 scaling factor         :     0.4529 
 s8 scaling factor         :     2.2382 
 a2 scaling factor         :     4.6550 
 ad hoc parameters k1-k3   :    16.0000     1.3333    -4.0000 

 Edisp/kcal,au: -2.099464852985  -0.003345709851 
 E6   /kcal   :  -0.614086841 
 E8   /kcal   :  -1.485378012 
 % E8         :  70.750315722 

-------------------------   ----------------
Dispersion correction           -0.003345710
-------------------------   ----------------


-------------------------   --------------------
FINAL SINGLE POINT ENERGY     -4921.581955257436
-------------------------   --------------------



           ************************************************************
           *        Program running with 24 parallel MPI-processes    *
           *              working on a common directory               *
           ************************************************************
------------------------------------------------------------------------------
                         ORCA SCF GRADIENT CALCULATION
------------------------------------------------------------------------------

Gradient of the Kohn-Sham DFT energy:
Kohn-Sham wavefunction type      ... UKS
Hartree-Fock exchange scaling    ...    0.100
Number of operators              ...    2
Number of atoms                  ...    3
Basis set dimensions             ...  201
Integral neglect threshold       ... 2.5e-11
Integral primitive cutoff        ... 2.5e-12

Nuclear repulsion gradient       ... done
One Electron Gradient            ... done
Pre-screening matrix             ... done
Starting the two electron gradient:
Two electron gradient done
Exchange-correlation gradient    ... done
Dispersion correction            ... done

------------------
CARTESIAN GRADIENT
------------------

   1   Cu  :    0.000000021   -0.000000017    0.000000014
   2   Cu  :    0.000000002    0.000000006   -0.002826872
   3   Cu  :   -0.000000002    0.000000005    0.002826872

Difference to translation invariance:
           :    0.0000000202   -0.0000000062    0.0000000137

Norm of the cartesian gradient     ...    0.0039978008
RMS gradient                       ...    0.0013326003
MAX gradient                       ...    0.0028268724

-------
TIMINGS
-------

Total SCF gradient time            ...        3.426 sec

One electron gradient       ....       0.005 sec  (  0.1%)
Prescreening matrices       ....       0.138 sec  (  4.0%)
Two electron gradient       ....       2.901 sec  ( 84.7%)
XC gradient                 ....       0.062 sec  (  1.8%)
------------------------------------------------------------------------------
                         ORCA GEOMETRY RELAXATION STEP
------------------------------------------------------------------------------

Reading the OPT-File                    .... done
Getting information on internals        .... done
Copying old internal coords+grads       .... done
Making the new internal coordinates     .... (new redundants).... done
Validating the new internal coordinates .... (new redundants).... done
Calculating the B-matrix                .... done
Calculating the G,G- and P matrices     .... done
Transforming gradient to internals      .... done
Projecting the internal gradient        .... done
Number of atoms                         ....   3
Number of internal coordinates          ....   4
Current Energy                          .... -4921.581955257 Eh
Current gradient norm                   ....     0.003997801 Eh/bohr
Maximum allowed component of the step   ....  0.300
Current trust radius                    ....  0.300
Evaluating the initial hessian          ....  (Almloef) done
Projecting the Hessian                  .... done
Forming the augmented Hessian           .... done
Diagonalizing the augmented Hessian     .... done
Last element of RFO vector              ....  0.999998535
Lowest eigenvalues of augmented Hessian:
 -0.000006844  1.128240028  1.128240028  2.335297409
Length of the computed step             ....  0.001711897
The final length of the internal step   ....  0.001711897
Converting the step to cartesian space:
 Initial RMS(Int)=    0.0008559486
Transforming coordinates:
 Iter   0:  RMS(Cart)=    0.0005706324 RMS(Int)=    0.0008559486
 Iter   1:  RMS(Cart)=    0.0000000028 RMS(Int)=    0.0000000298
done
Storing new coordinates                 .... done

                                .--------------------.
          ----------------------|Geometry convergence|-------------------------
          Item                value                   Tolerance       Converged
          ---------------------------------------------------------------------
          RMS gradient        0.0019989004            0.0001000000      NO
          MAX gradient        0.0028268770            0.0003000000      NO
          RMS step            0.0008559486            0.0020000000      YES
          MAX step            0.0012104962            0.0040000000      YES
          ........................................................
          Max(Bonds)      0.0006      Max(Angles)    0.00
          Max(Dihed)        0.00      Max(Improp)    0.00
          ---------------------------------------------------------------------

The optimization has not yet converged - more geometry cycles are needed


    ---------------------------------------------------------------------------
                         Redundant Internal Coordinates
                            (Angstroem and degrees)

        Definition                    Value    dE/dq     Step     New-Value
    ----------------------------------------------------------------------------
     1. B(Cu  1,Cu  0)                2.2911 -0.002827  0.0006    2.2917   
     2. B(Cu  2,Cu  0)                2.2911 -0.002827  0.0006    2.2917   
     3. L(Cu  1,Cu  0,Cu  2, 2)       180.00 -0.000000    0.00    180.00   
     4. L(Cu  1,Cu  0,Cu  2, 1)       180.00 -0.000000    0.00    180.00   
    ----------------------------------------------------------------------------

         *************************************************************
         *                GEOMETRY OPTIMIZATION CYCLE   2            *
         *************************************************************
---------------------------------
CARTESIAN COORDINATES (ANGSTROEM)
---------------------------------
  Cu     0.000000   -0.000000   -0.000000
  Cu    -0.000000    0.000000    2.291740
  Cu    -0.000000    0.000000   -2.291740

----------------------------
CARTESIAN COORDINATES (A.U.)
----------------------------
  NO LB      ZA    FRAG     MASS         X           Y           Z
   0 Cu   29.0000    0    63.550    0.000000   -0.000000   -0.000000
   1 Cu   29.0000    0    63.550   -0.000000    0.000000    4.330760
   2 Cu   29.0000    0    63.550   -0.000000    0.000000   -4.330760

--------------------------------
INTERNAL COORDINATES (ANGSTROEM)
--------------------------------
 Cu     0   0   0     0.000000000000     0.00000000     0.00000000
 Cu     1   0   0     2.291739567006     0.00000000     0.00000000
 Cu     1   2   0     2.291739564796   179.99999879     0.00000000

---------------------------
INTERNAL COORDINATES (A.U.)
---------------------------
 Cu     0   0   0     0.000000000000     0.00000000     0.00000000
 Cu     1   0   0     4.330760151913     0.00000000     0.00000000
 Cu     1   2   0     4.330760147736   179.99999879     0.00000000



           ************************************************************
           *        Program running with 24 parallel MPI-processes    *
           *              working on a common directory               *
           ************************************************************


           ************************************************************
           *        Program running with 24 parallel MPI-processes    *
           *              working on a common directory               *
           ************************************************************

Diagonalization of the overlap matrix:
Smallest eigenvalue                        ... 3.324e-04
Time for diagonalization                   ...    0.008 sec
Threshold for overlap eigenvalues          ... 1.000e-08
Number of eigenvalues below threshold      ... 0
Time for construction of square roots      ...    0.005 sec
Total time needed                          ...    0.014 sec

-------------------
DFT GRID GENERATION
-------------------

General Integration Accuracy     IntAcc      ...  4.670
Radial Grid Type                 RadialGrid  ... Gauss-Chebyshev
Angular Grid (max. acc.)         AngularGrid ... Lebedev-302
Angular grid pruning method      GridPruning ... 3 (G Style)
Weight generation scheme         WeightScheme... Becke
Basis function cutoff            BFCut       ...    1.0000e-11
Integration weight cutoff        WCut        ...    1.0000e-14
Grids for H and He will be reduced by one unit

# of grid points (after initial pruning)     ...  28668 (   0.0 sec)
# of grid points (after weights+screening)   ...  28508 (   0.0 sec)
nearest neighbour list constructed           ...    0.0 sec
Grid point re-assignment to atoms done       ...    0.0 sec
Grid point division into batches done        ...    0.2 sec
Reduced shell lists constructed in    0.2 sec

Total number of grid points                  ...    28508
Total number of batches                      ...      447
Average number of points per batch           ...       63
Average number of grid points per atom       ...     9503
Average number of shells per batch           ...    19.10 (33.51%)
Average number of basis functions per batch  ...    56.10 (27.91%)
Average number of large shells per batch     ...    16.15 (84.55%)
Average number of large basis fcns per batch ...    46.85 (83.51%)
Maximum spatial batch extension              ...  26.18, 26.18,  4.32 au
Average spatial batch extension              ...   0.43,  0.42,  0.18 au

Time for grid setup =    0.261 sec

--------------
SCF ITERATIONS
--------------
ITER       Energy         Delta-E        Max-DP      RMS-DP      [F,P]     Damp
               ***  Starting incremental Fock matrix formation  ***
  0  -4921.5786174695   0.000000000000 0.00005132  0.00000083  0.0004299 0.7000
  1  -4921.5786174797  -0.000000010197 0.00005097  0.00000081  0.0003011 0.7000
                               ***Turning on DIIS***
  2  -4921.5786174865  -0.000000006718 0.00014573  0.00000226  0.0002107 0.0000
  3  -4921.5786175017  -0.000000015283 0.00003917  0.00000044  0.0000107 0.0000
  4  -4921.5786175010   0.000000000795 0.00001876  0.00000020  0.0000243 0.0000
  5  -4921.5786175017  -0.000000000756 0.00000481  0.00000008  0.0000115 0.0000
  6  -4921.5786175026  -0.000000000896 0.00000985  0.00000010  0.0000013 0.0000
  7  -4921.5786175022   0.000000000370 0.00000134  0.00000002  0.0000015 0.0000
                 **** Energy Check signals convergence ****

               *****************************************************
               *                     SUCCESS                       *
               *           SCF CONVERGED AFTER   8 CYCLES          *
               *****************************************************

Total Energy       :        -4921.57861750 Eh         -133922.96269 eV
  Last Energy change         ...   -2.2919e-10  Tolerance :   1.0000e-08
  Last MAX-Density change    ...    3.8389e-06  Tolerance :   1.0000e-07
             **** THE GBW FILE WAS UPDATED (Cu03N0_LIN.gbw) ****
             **** DENSITY FILE WAS UPDATED (Cu03N0_LIN.scfp) ****
             **** ENERGY FILE WAS UPDATED (Cu03N0_LIN.en.tmp) ****
----------------------
UHF SPIN CONTAMINATION
----------------------

Warning: in a DFT calculation there is little theoretical justification to 
         calculate <S**2> as in Hartree-Fock theory. We will do it anyways
         but you should keep in mind that the values have only limited relevance

Expectation value of <S**2>     :     0.761589
Ideal value S*(S+1) for S=0.5   :     0.750000
Deviation                       :     0.011589

             **** THE GBW FILE WAS UPDATED (Cu03N0_LIN.gbw) ****
             **** DENSITY FILE WAS UPDATED (Cu03N0_LIN.scfp) ****
Total SCF time: 0 days 0 hours 0 min 4 sec 


-------------------------------------------------------------------------------
                          DFT DISPERSION CORRECTION                            
                                                                               
                              DFTD3 V3.1  Rev 1                                
                          USING Becke-Johnson damping                          
-------------------------------------------------------------------------------
-------------------------   ----------------
Dispersion correction           -0.003345065
-------------------------   ----------------


-------------------------   --------------------
FINAL SINGLE POINT ENERGY     -4921.581962567959
-------------------------   --------------------



           ************************************************************
           *        Program running with 24 parallel MPI-processes    *
           *              working on a common directory               *
           ************************************************************
------------------------------------------------------------------------------
                         ORCA SCF GRADIENT CALCULATION
------------------------------------------------------------------------------

Gradient of the Kohn-Sham DFT energy:
Kohn-Sham wavefunction type      ... UKS
Hartree-Fock exchange scaling    ...    0.100
Number of operators              ...    2
Number of atoms                  ...    3
Basis set dimensions             ...  201
Integral neglect threshold       ... 2.5e-11
Integral primitive cutoff        ... 2.5e-12

Nuclear repulsion gradient       ... done
One Electron Gradient            ... done
Pre-screening matrix             ... done
Starting the two electron gradient:
Two electron gradient done
Exchange-correlation gradient    ... done
Dispersion correction            ... done

------------------
CARTESIAN GRADIENT
------------------

   1   Cu  :   -0.000000006   -0.000000012   -0.000000159
   2   Cu  :   -0.000000001    0.000000004   -0.002746608
   3   Cu  :   -0.000000009   -0.000000018    0.002746608

Difference to translation invariance:
           :   -0.0000000158   -0.0000000255   -0.0000001587

Norm of the cartesian gradient     ...    0.0038842900
RMS gradient                       ...    0.0012947633
MAX gradient                       ...    0.0027466079

-------
TIMINGS
-------

Total SCF gradient time            ...        3.420 sec

One electron gradient       ....       0.007 sec  (  0.2%)
Prescreening matrices       ....       0.138 sec  (  4.0%)
Two electron gradient       ....       2.925 sec  ( 85.5%)
XC gradient                 ....       0.062 sec  (  1.8%)
------------------------------------------------------------------------------
                         ORCA GEOMETRY RELAXATION STEP
------------------------------------------------------------------------------

Reading the OPT-File                    .... done
Getting information on internals        .... done
Copying old internal coords+grads       .... done
Making the new internal coordinates     .... (new redundants).... done
Validating the new internal coordinates .... (new redundants).... done
Calculating the B-matrix                .... done
Calculating the G,G- and P matrices     .... done
Transforming gradient to internals      .... done
Projecting the internal gradient        .... done
Number of atoms                         ....   3
Number of internal coordinates          ....   4
Current Energy                          .... -4921.581962568 Eh
Current gradient norm                   ....     0.003884290 Eh/bohr
Maximum allowed component of the step   ....  0.300
Current trust radius                    ....  0.300
Updating the Hessian (BFGS)             .... done
Forming the augmented Hessian           .... done
Diagonalizing the augmented Hessian     .... done
Last element of RFO vector              ....  0.998300191
Lowest eigenvalues of augmented Hessian:
 -0.000226768  0.066533798  1.128240028  1.128240029
Length of the computed step             ....  0.058380705
The final length of the internal step   ....  0.058380705
Converting the step to cartesian space:
 Initial RMS(Int)=    0.0291903523
Transforming coordinates:
 Iter   0:  RMS(Cart)=    0.0194602349 RMS(Int)=    0.0291903523
 Iter   1:  RMS(Cart)=    0.0000001390 RMS(Int)=    0.0000001166
 Iter   2:  RMS(Cart)=    0.0000001073 RMS(Int)=    0.0000000898
 Iter   3:  RMS(Cart)=    0.0000000829 RMS(Int)=    0.0000000696
done
Storing new coordinates                 .... done

                                .--------------------.
          ----------------------|Geometry convergence|-------------------------
          Item                value                   Tolerance       Converged
          ---------------------------------------------------------------------
          Energy change      -0.0000073105            0.0000050000      NO
          RMS gradient        0.0019421450            0.0001000000      NO
          MAX gradient        0.0027466608            0.0003000000      NO
          RMS step            0.0291903523            0.0020000000      NO
          MAX step            0.0412821887            0.0040000000      NO
          ........................................................
          Max(Bonds)      0.0218      Max(Angles)    0.00
          Max(Dihed)        0.00      Max(Improp)    0.00
          ---------------------------------------------------------------------

The optimization has not yet converged - more geometry cycles are needed


    ---------------------------------------------------------------------------
                         Redundant Internal Coordinates
                            (Angstroem and degrees)

        Definition                    Value    dE/dq     Step     New-Value
    ----------------------------------------------------------------------------
     1. B(Cu  1,Cu  0)                2.2917 -0.002747  0.0218    2.3136   
     2. B(Cu  2,Cu  0)                2.2917 -0.002747  0.0218    2.3136   
     3. L(Cu  1,Cu  0,Cu  2, 2)       180.00  0.000000   -0.00    180.00   
     4. L(Cu  1,Cu  0,Cu  2, 1)       180.00 -0.000000   -0.00    180.00   
    ----------------------------------------------------------------------------

         *************************************************************
         *                GEOMETRY OPTIMIZATION CYCLE   3            *
         *************************************************************
---------------------------------
CARTESIAN COORDINATES (ANGSTROEM)
---------------------------------
  Cu     0.000000   -0.000000    0.000000
  Cu    -0.000000    0.000000    2.313585
  Cu    -0.000000    0.000000   -2.313585

----------------------------
CARTESIAN COORDINATES (A.U.)
----------------------------
  NO LB      ZA    FRAG     MASS         X           Y           Z
   0 Cu   29.0000    0    63.550    0.000001   -0.000001    0.000001
   1 Cu   29.0000    0    63.550   -0.000000    0.000000    4.372041
   2 Cu   29.0000    0    63.550   -0.000000    0.000000   -4.372042

--------------------------------
INTERNAL COORDINATES (ANGSTROEM)
--------------------------------
 Cu     0   0   0     0.000000000000     0.00000000     0.00000000
 Cu     1   0   0     2.313584317308     0.00000000     0.00000000
 Cu     1   2   0     2.313585158157   179.99995123     0.00000000

---------------------------
INTERNAL COORDINATES (A.U.)
---------------------------
 Cu     0   0   0     0.000000000000     0.00000000     0.00000000
 Cu     1   0   0     4.372040747447     0.00000000     0.00000000
 Cu     1   2   0     4.372042336422   179.99995123     0.00000000



           ************************************************************
           *        Program running with 24 parallel MPI-processes    *
           *              working on a common directory               *
           ************************************************************


           ************************************************************
           *        Program running with 24 parallel MPI-processes    *
           *              working on a common directory               *
           ************************************************************

Diagonalization of the overlap matrix:
Smallest eigenvalue                        ... 3.430e-04
Time for diagonalization                   ...    0.006 sec
Threshold for overlap eigenvalues          ... 1.000e-08
Number of eigenvalues below threshold      ... 0
Time for construction of square roots      ...    0.005 sec
Total time needed                          ...    0.012 sec

-------------------
DFT GRID GENERATION
-------------------

General Integration Accuracy     IntAcc      ...  4.670
Radial Grid Type                 RadialGrid  ... Gauss-Chebyshev
Angular Grid (max. acc.)         AngularGrid ... Lebedev-302
Angular grid pruning method      GridPruning ... 3 (G Style)
Weight generation scheme         WeightScheme... Becke
Basis function cutoff            BFCut       ...    1.0000e-11
Integration weight cutoff        WCut        ...    1.0000e-14
Grids for H and He will be reduced by one unit

# of grid points (after initial pruning)     ...  28668 (   0.0 sec)
# of grid points (after weights+screening)   ...  28508 (   0.0 sec)
nearest neighbour list constructed           ...    0.0 sec
Grid point re-assignment to atoms done       ...    0.0 sec
Grid point division into batches done        ...    0.2 sec
Reduced shell lists constructed in    0.2 sec

Total number of grid points                  ...    28508
Total number of batches                      ...      447
Average number of points per batch           ...       63
Average number of grid points per atom       ...     9503
Average number of shells per batch           ...    19.10 (33.51%)
Average number of basis functions per batch  ...    56.10 (27.91%)
Average number of large shells per batch     ...    16.15 (84.55%)
Average number of large basis fcns per batch ...    46.85 (83.51%)
Maximum spatial batch extension              ...  26.18, 26.18,  4.32 au
Average spatial batch extension              ...   0.42,  0.42,  0.18 au

Time for grid setup =    0.269 sec

--------------
SCF ITERATIONS
--------------
ITER       Energy         Delta-E        Max-DP      RMS-DP      [F,P]     Damp
               ***  Starting incremental Fock matrix formation  ***
  0  -4921.5787360507   0.000000000000 0.00167857  0.00002737  0.0145863 0.7000
  1  -4921.5787476497  -0.000011598961 0.00167117  0.00002697  0.0102143 0.7000
                               ***Turning on DIIS***
  2  -4921.5787555741  -0.000007924429 0.00448159  0.00007166  0.0071502 0.0000
  3  -4921.5787728850  -0.000017310941 0.00116821  0.00001661  0.0003386 0.0000
  4  -4921.5787726149   0.000000270123 0.00085233  0.00000754  0.0005713 0.0000
  5  -4921.5787737107  -0.000001095767 0.00008472  0.00000160  0.0006528 0.0000
  6  -4921.5787740515  -0.000000340777 0.00007636  0.00000102  0.0001378 0.0000
  7  -4921.5787740544  -0.000000002970 0.00004508  0.00000048  0.0001046 0.0000
  8  -4921.5787740736  -0.000000019173 0.00002299  0.00000025  0.0000072 0.0000
  9  -4921.5787740737  -0.000000000130 0.00000998  0.00000011  0.0000035 0.0000
                            ***DIIS convergence achieved***

               *****************************************************
               *                     SUCCESS                       *
               *           SCF CONVERGED AFTER  10 CYCLES          *
               *****************************************************

Total Energy       :        -4921.57877407 Eh         -133922.96695 eV
  Last Energy change         ...    8.0672e-10  Tolerance :   1.0000e-08
  Last MAX-Density change    ...    2.8709e-06  Tolerance :   1.0000e-07
             **** THE GBW FILE WAS UPDATED (Cu03N0_LIN.gbw) ****
             **** DENSITY FILE WAS UPDATED (Cu03N0_LIN.scfp) ****
             **** ENERGY FILE WAS UPDATED (Cu03N0_LIN.en.tmp) ****
----------------------
UHF SPIN CONTAMINATION
----------------------

Warning: in a DFT calculation there is little theoretical justification to 
         calculate <S**2> as in Hartree-Fock theory. We will do it anyways
         but you should keep in mind that the values have only limited relevance

Expectation value of <S**2>     :     0.761923
Ideal value S*(S+1) for S=0.5   :     0.750000
Deviation                       :     0.011923

             **** THE GBW FILE WAS UPDATED (Cu03N0_LIN.gbw) ****
             **** DENSITY FILE WAS UPDATED (Cu03N0_LIN.scfp) ****
[...]
      dxy     :    -0.000176
      f0      :     0.000004  f :     0.000009
      f+1     :     0.000002
      f-1     :     0.000002
      f+2     :     0.000000
      f-2     :     0.000000
      f+3     :    -0.000000
      f-3     :    -0.000000
      g0      :     0.000000  g :     0.000000
      g+1     :     0.000000
      g-1     :     0.000000
      g+2     :    -0.000000
      g-2     :    -0.000000
      g+3     :    -0.000000
      g-3     :    -0.000000
      g+4     :    -0.000000
      g-4     :     0.000000
  1 Cus       :     0.561971  s :     0.561971
      pz      :     0.003854  p :     0.008587
      px      :     0.002367
      py      :     0.002367
      dz2     :     0.001372  d :     0.001962
      dxz     :     0.000207
      dyz     :     0.000207
      dx2y2   :     0.000088
      dxy     :     0.000088
      f0      :    -0.000000  f :     0.000001
      f+1     :     0.000000
      f-1     :     0.000000
      f+2     :     0.000000
      f-2     :     0.000000
      f+3     :    -0.000000
      f-3     :    -0.000000
      g0      :     0.000000  g :     0.000000
      g+1     :     0.000000
      g-1     :     0.000000
      g+2     :    -0.000000
      g-2     :    -0.000000
      g+3     :    -0.000000
      g-3     :    -0.000000
      g+4     :     0.000000
      g-4     :     0.000000
  2 Cus       :     0.561970  s :     0.561970
      pz      :     0.003853  p :     0.008587
      px      :     0.002367
      py      :     0.002367
      dz2     :     0.001372  d :     0.001962
      dxz     :     0.000207
      dyz     :     0.000207
      dx2y2   :     0.000088
      dxy     :     0.000088
      f0      :    -0.000000  f :     0.000001
      f+1     :     0.000000
      f-1     :     0.000000
      f+2     :     0.000000
      f-2     :     0.000000
      f+3     :    -0.000000
      f-3     :    -0.000000
      g0      :     0.000000  g :     0.000000
      g+1     :     0.000000
      g-1     :     0.000000
      g+2     :    -0.000000
      g-2     :    -0.000000
      g+3     :    -0.000000
      g-3     :    -0.000000
      g+4     :     0.000000
      g-4     :    -0.000000


                     *******************************
                     * LOEWDIN POPULATION ANALYSIS *
                     *******************************

-------------------------------------------
LOEWDIN ATOMIC CHARGES AND SPIN POPULATIONS
-------------------------------------------
   0 Cu:   -0.246152    0.364640
   1 Cu:    0.123076    0.317680
   2 Cu:    0.123076    0.317680

----------------------------------------------------
LOEWDIN REDUCED ORBITAL CHARGES AND SPIN POPULATIONS
----------------------------------------------------
CHARGE
  0 Cus       :     6.738017  s :     6.738017
      pz      :     4.448513  p :    12.487161
      px      :     4.019324
      py      :     4.019324
      dz2     :     2.074756  d :    10.020291
      dxz     :     1.972995
      dyz     :     1.972995
      dx2y2   :     1.999772
      dxy     :     1.999772
      f0      :     0.000373  f :     0.000681
      f+1     :     0.000143
      f-1     :     0.000143
      f+2     :     0.000011
      f-2     :     0.000011
      f+3     :     0.000000
      f-3     :     0.000000
      g0      :     0.000001  g :     0.000002
      g+1     :     0.000001
      g-1     :     0.000001
      g+2     :     0.000000
      g-2     :     0.000000
      g+3     :     0.000000
      g-3     :     0.000000
      g+4     :     0.000000
      g-4     :     0.000000
  1 Cus       :     6.730729  s :     6.730729
      pz      :     4.128814  p :    12.157882
      px      :     4.014534
      py      :     4.014534
      dz2     :     2.009489  d :     9.987981
      dxz     :     1.989149
      dyz     :     1.989149
      dx2y2   :     2.000097
      dxy     :     2.000097
      f0      :     0.000138  f :     0.000332
      f+1     :     0.000085
      f-1     :     0.000085
      f+2     :     0.000012
      f-2     :     0.000012
      f+3     :     0.000000
      f-3     :     0.000000
      g0      :     0.000000  g :     0.000001
      g+1     :     0.000000
      g-1     :     0.000000
      g+2     :     0.000000
      g-2     :     0.000000
      g+3     :     0.000000
      g-3     :     0.000000
      g+4     :     0.000000
      g-4     :     0.000000
  2 Cus       :     6.730729  s :     6.730729
      pz      :     4.128814  p :    12.157882
      px      :     4.014534
      py      :     4.014534
      dz2     :     2.009489  d :     9.987981
      dxz     :     1.989149
      dyz     :     1.989149
      dx2y2   :     2.000097
      dxy     :     2.000097
      f0      :     0.000138  f :     0.000332
      f+1     :     0.000085
      f-1     :     0.000085
      f+2     :     0.000012
      f-2     :     0.000012
      f+3     :     0.000000
      f-3     :     0.000000
      g0      :     0.000000  g :     0.000001
      g+1     :     0.000000
      g-1     :     0.000000
      g+2     :     0.000000
      g-2     :     0.000000
      g+3     :     0.000000
      g-3     :     0.000000
      g+4     :     0.000000
      g-4     :     0.000000

SPIN
  0 Cus       :    -0.030971  s :    -0.030971
      pz      :     0.385668  p :     0.386826
      px      :     0.000579
      py      :     0.000579
      dz2     :     0.015547  d :     0.008703
      dxz     :    -0.003524
      dyz     :    -0.003524
      dx2y2   :     0.000102
      dxy     :     0.000102
      f0      :     0.000067  f :     0.000081
      f+1     :     0.000006
      f-1     :     0.000006
      f+2     :     0.000001
      f-2     :     0.000001
      f+3     :    -0.000000
      f-3     :    -0.000000
      g0      :     0.000000  g :     0.000000
      g+1     :     0.000000
      g-1     :     0.000000
      g+2     :    -0.000000
      g-2     :    -0.000000
      g+3     :    -0.000000
      g-3     :    -0.000000
      g+4     :    -0.000000
      g-4     :     0.000000
  1 Cus       :     0.312753  s :     0.312753
      pz      :    -0.003265  p :     0.000702
      px      :     0.001983
      py      :     0.001983
      dz2     :     0.005362  d :     0.004231
      dxz     :    -0.000514
      dyz     :    -0.000514
      dx2y2   :    -0.000051
      dxy     :    -0.000051
      f0      :    -0.000006  f :    -0.000006
      f+1     :     0.000000
      f-1     :     0.000000
      f+2     :     0.000000
      f-2     :     0.000000
      f+3     :    -0.000000
      f-3     :    -0.000000
      g0      :     0.000000  g :     0.000000
      g+1     :     0.000000
      g-1     :     0.000000
      g+2     :    -0.000000
      g-2     :    -0.000000
      g+3     :    -0.000000
      g-3     :    -0.000000
      g+4     :     0.000000
      g-4     :     0.000000
  2 Cus       :     0.312754  s :     0.312754
      pz      :    -0.003265  p :     0.000702
      px      :     0.001983
      py      :     0.001983
      dz2     :     0.005362  d :     0.004231
      dxz     :    -0.000514
      dyz     :    -0.000514
      dx2y2   :    -0.000051
      dxy     :    -0.000051
      f0      :    -0.000006  f :    -0.000006
      f+1     :     0.000000
      f-1     :     0.000000
      f+2     :     0.000000
      f-2     :     0.000000
      f+3     :    -0.000000
      f-3     :    -0.000000
      g0      :     0.000000  g :     0.000000
      g+1     :     0.000000
      g-1     :     0.000000
      g+2     :    -0.000000
      g-2     :    -0.000000
      g+3     :    -0.000000
      g-3     :    -0.000000
      g+4     :     0.000000
      g-4     :    -0.000000


                      *****************************
                      * MAYER POPULATION ANALYSIS *
                      *****************************

  NA   - Mulliken gross atomic population
  ZA   - Total nuclear charge
  QA   - Mulliken gross atomic charge
  VA   - Mayer's total valence
  BVA  - Mayer's bonded valence
  FA   - Mayer's free valence

  ATOM       NA         ZA         QA         VA         BVA        FA
  0 Cu    29.3183    29.0000    -0.3183     0.9715     0.9527     0.0187
  1 Cu    28.8409    29.0000     0.1591     1.0091     0.6833     0.3258
  2 Cu    28.8409    29.0000     0.1591     1.0091     0.6833     0.3258

  Mayer bond orders larger than 0.100000
B(  0-Cu,  1-Cu) :   0.4764 B(  0-Cu,  2-Cu) :   0.4764 B(  1-Cu,  2-Cu) :   0.2069 


-------
TIMINGS
-------

Total SCF time: 0 days 0 hours 0 min 3 sec 

Total time                  ....       3.417 sec
Sum of individual times     ....       3.134 sec  ( 91.7%)

Fock matrix formation       ....       2.719 sec  ( 79.6%)
  XC integration            ....       0.257 sec  (  9.4% of F)
    Basis function eval.    ....       0.023 sec  (  8.8% of XC)
    Density eval.           ....       0.055 sec  ( 21.4% of XC)
    XC-Functional eval.     ....       0.016 sec  (  6.3% of XC)
    XC-Potential eval.      ....       0.089 sec  ( 34.7% of XC)
Diagonalization             ....       0.079 sec  (  2.3%)
Density matrix formation    ....       0.010 sec  (  0.3%)
Population analysis         ....       0.012 sec  (  0.3%)
Initial guess               ....       0.024 sec  (  0.7%)
Orbital Transformation      ....       0.000 sec  (  0.0%)
Orbital Orthonormalization  ....       0.017 sec  (  0.5%)
DIIS solution               ....       0.023 sec  (  0.7%)
Grid generation             ....       0.268 sec  (  7.8%)


-------------------------------------------------------------------------------
                          DFT DISPERSION CORRECTION                            
                                                                               
                              DFTD3 V3.1  Rev 1                                
                          USING Becke-Johnson damping                          
-------------------------------------------------------------------------------
The TPSSH functional is recognized
Active option DFTDOPT                   ...         4   

molecular C6(AA) [au] = 1597.745390 


            DFT-D V3
 parameters
 s6 scaling factor         :     1.0000 
 a1 scaling factor         :     0.4529 
 s8 scaling factor         :     2.2382 
 a2 scaling factor         :     4.6550 
 ad hoc parameters k1-k3   :    16.0000     1.3333    -4.0000 

 Edisp/kcal,au: -2.084667100308  -0.003322128134 
 E6   /kcal   :  -0.610418802 
 E8   /kcal   :  -1.474248299 
 % E8         :  70.718643680 

-------------------------   ----------------
Dispersion correction           -0.003322128
-------------------------   ----------------


-------------------------   --------------------
FINAL SINGLE POINT ENERGY     -4921.582098786036
-------------------------   --------------------

                                *** OPTIMIZATION RUN DONE ***

                            ***************************************
                            *     ORCA property calculations      *
                            ***************************************

                                    ---------------------
                                    Active property flags
                                    ---------------------
   (+) Dipole Moment


------------------------------------------------------------------------------
                       ORCA ELECTRIC PROPERTIES CALCULATION
------------------------------------------------------------------------------

Dipole Moment Calculation                       ... on
Quadrupole Moment Calculation                   ... off
Polarizability Calculation                      ... off
GBWName                                         ... Cu03N0_LIN.gbw
Electron density file                           ... Cu03N0_LIN.scfp
The origin for moment calculation is the CENTER OF MASS  = (-0.000000,  0.000000  0.000000)

-------------
DIPOLE MOMENT
-------------
                                X             Y             Z
Electronic contribution:     -0.00000       0.00000      -0.00000
Nuclear contribution   :     -0.00000       0.00000      -0.00000
                        -----------------------------------------
Total Dipole Moment    :     -0.00000       0.00000      -0.00000
                        -----------------------------------------
Magnitude (a.u.)       :      0.00000
Magnitude (Debye)      :      0.00000



--------------------
Rotational spectrum 
--------------------
 
Rotational constants in cm-1:     0.000000     0.024750     0.024750 
Rotational constants in MHz :     0.000000   741.981427   741.981427 

 Dipole components along the rotational axes: 
x,y,z [a.u.] :    -0.000000     0.000000     0.000000 
x,y,z [Debye]:    -0.000001     0.000001     0.000000 

 

----------------------------------------------------------------------------
                           ORCA NUMERICAL FREQUENCIES
                              (24-process run)
----------------------------------------------------------------------------

Number of atoms                ... 3
Central differences            ... used
Number of displacements        ... 18
Numerical increment            ... 5.000e-03 bohr
IR-spectrum generation         ... on
Raman-spectrum generation      ... off
Surface Crossing Hessian       ... off

 WARNING: There are more processes than displacements to do
  ====> : Reducing number of processes to   9

The output will be reduced. Please look at the following files:
SCF program output             ... >Cu03N0_LIN.lastscf
Integral program output        ... >Cu03N0_LIN.lastint
Gradient program output        ... >Cu03N0_LIN.lastgrad
Dipole moment program output   ... >Cu03N0_LIN.lastmom
AutoCI program output          ... >Cu03N0_LIN.lastautoci


         <<< Energy and Gradient at the input geometry >>>

        <<< Energy and Gradient at displaced geometries >>>
             <<<Displacing   2/coordinate 1 (+)>>>
             <<<Displacing   2/coordinate 2 (+)>>>
             <<<Displacing   2/coordinate 3 (+)>>>
             <<<Displacing   3/coordinate 3 (+)>>>
             <<<Displacing   3/coordinate 1 (+)>>>
             <<<Displacing   1/coordinate 3 (+)>>>
             <<<Displacing   1/coordinate 2 (+)>>>
             <<<Displacing   3/coordinate 2 (+)>>>
             <<<Displacing   1/coordinate 1 (+)>>>
             <<<Displacing   2/coordinate 1 (-)>>>
             <<<Displacing   3/coordinate 1 (-)>>>
             <<<Displacing   1/coordinate 3 (-)>>>
             <<<Displacing   3/coordinate 2 (-)>>>
             <<<Displacing   2/coordinate 2 (-)>>>
             <<<Displacing   1/coordinate 1 (-)>>>
             <<<Displacing   1/coordinate 2 (-)>>>
             <<<Displacing   2/coordinate 3 (-)>>>
             <<<Displacing   3/coordinate 3 (-)>>>

-----------------------
VIBRATIONAL FREQUENCIES
-----------------------

Scaling factor for frequencies =  1.000000000 (already applied!)

   0:         0.00 cm**-1
   1:         0.00 cm**-1
   2:         0.00 cm**-1
   3:         0.00 cm**-1
   4:         0.00 cm**-1
   5:         0.00 cm**-1
   6:       -37.53 cm**-1 ***imaginary mode***
   7:       158.15 cm**-1
   8:       257.08 cm**-1


------------
NORMAL MODES
------------

These modes are the cartesian displacements weighted by the diagonal matrix
M(i,i)=1/sqrt(m[i]) where m[i] is the mass of the displaced atom
Thus, these vectors are normalized but *not* orthogonal

                  0          1          2          3          4          5    
      0       0.000000   0.000000   0.000000   0.000000   0.000000   0.000000
      1       0.000000   0.000000   0.000000   0.000000   0.000000   0.000000
      2       0.000000   0.000000   0.000000   0.000000   0.000000   0.000000
      3       0.000000   0.000000   0.000000   0.000000   0.000000   0.000000
      4       0.000000   0.000000   0.000000   0.000000   0.000000   0.000000
      5       0.000000   0.000000   0.000000   0.000000   0.000000   0.000000
      6       0.000000   0.000000   0.000000   0.000000   0.000000   0.000000
      7       0.000000   0.000000   0.000000   0.000000   0.000000   0.000000
      8       0.000000   0.000000   0.000000   0.000000   0.000000   0.000000
                   6          7          8    
      0      -0.592716   0.000025   0.000018
      1       0.561564  -0.000024  -0.000017
      2      -0.000025   0.000002  -0.816497
      3       0.296358  -0.000013  -0.000009
      4      -0.280782   0.000012   0.000009
      5       0.000043   0.707106   0.408250
      6       0.296358  -0.000013  -0.000009
      7      -0.280782   0.000012   0.000009
      8      -0.000018  -0.707108   0.408247


-----------
IR SPECTRUM  
-----------

 Mode    freq (cm**-1)   T**2         TX         TY         TZ
-------------------------------------------------------------------
   7:       158.15    0.000039  ( -0.000020   0.000030   0.006233)
   8:       257.08    2.124091  ( -0.000019   0.000022   1.457426)

The first frequency considered to be a vibration is 7
The total number of vibrations considered is 2


--------------------------
THERMOCHEMISTRY AT 298.15K
--------------------------

Temperature         ... 298.15 K
Pressure            ... 1.00 atm
Total Mass          ... 190.65 AMU
The molecule is recognized as being linear

Throughout the following assumptions are being made:
  (1) The electronic state is orbitally nondegenerate
      but the spin degeneracy is treated
  (2) There are no thermally accessible electronically excited states
  (3) Hindered rotations indicated by low frequency modes are not
      treated as such but are treated as vibrations and this may
      cause some error
  (4) All equations used are the standard statistical mechanics
      equations for an ideal gas
  (5) All vibrations are strictly harmonic

freq.     158.15  E(vib)   ...       0.39 
freq.     257.08  E(vib)   ...       0.30 

------------
INNER ENERGY
------------

The inner energy is: U= E(el) + E(ZPE) + E(vib) + E(rot) + E(trans)
    E(el)   - is the total energy from the electronic structure calculation
              = E(kin-el) + E(nuc-el) + E(el-el) + E(nuc-nuc)
    E(ZPE)  - the the zero temperature vibrational energy from the frequency calculation
    E(vib)  - the the finite temperature correction to E(ZPE) due to population
              of excited vibrational states
    E(rot)  - is the rotational thermal energy
    E(trans)- is the translational thermal energy

Summary of contributions to the inner energy U:
Electronic energy                ...  -4921.58209879 Eh
Zero point energy                ...      0.00094598 Eh       0.59 kcal/mol
Thermal vibrational correction   ...      0.00110593 Eh       0.69 kcal/mol
Thermal rotational correction    ...      0.00094418 Eh       0.59 kcal/mol
Thermal translational correction ...      0.00141627 Eh       0.89 kcal/mol
-----------------------------------------------------------------------
Total thermal energy                  -4921.57768643 Eh


Summary of corrections to the electronic energy:
(perhaps to be used in another calculation)
Total thermal correction                  0.00346638 Eh       2.18 kcal/mol
Non-thermal (ZPE) correction              0.00094598 Eh       0.59 kcal/mol
-----------------------------------------------------------------------
Total correction                          0.00441236 Eh       2.77 kcal/mol


--------
ENTHALPY
--------

The enthalpy is H = U + kB*T
                kB is Boltzmann's constant
Total free energy                 ...  -4921.57768643 Eh 
Thermal Enthalpy correction       ...      0.00094421 Eh       0.59 kcal/mol
-----------------------------------------------------------------------
Total Enthalpy                    ...  -4921.57674222 Eh

[file orca_tools/Tool-Symmetry/symmain.cpp, line 3070]: Error (ORCA_SYM): TMoleculeSymmetry::CleanUp molecule is linear but not aligned to z axis!

[file orca_tools/Tool-Symmetry/symmain.cpp, line 3070]: Error (ORCA_SYM): TMoleculeSymmetry::CleanUp molecule is linear but not aligned to z axis!

