
                                 *****************
                                 * O   R   C   A *
                                 *****************

           --- An Ab Initio, DFT and Semiempirical electronic structure package ---

                  #######################################################
                  #                        -***-                        #
                  #          Department of theory and spectroscopy      #
                  #               Directorship: Frank Neese             #
                  #        Max Planck Institute fuer Kohlenforschung    #
                  #                Kaiser Wilhelm Platz 1               #
                  #                 D-45470 Muelheim/Ruhr               #
                  #                      Germany                        #
                  #                                                     #
                  #                  All rights reserved                #
                  #                        -***-                        #
                  #######################################################


                         Program Version 4.2.0 -  RELEASE  -


 With contributions from (in alphabetic order):
   Daniel Aravena         : Magnetic Suceptibility
   Michael Atanasov       : Ab Initio Ligand Field Theory (pilot matlab implementation)
   Alexander A. Auer      : GIAO ZORA, VPT2
   Ute Becker             : Parallelization
   Giovanni Bistoni       : ED, misc. LED, open-shell LED, HFLED
   Martin Brehm           : Molecular dynamics
   Dmytro Bykov           : SCF Hessian
   Vijay G. Chilkuri      : MRCI spin determinant printing, contributions to CSF-ICE
   Dipayan Datta          : RHF DLPNO-CCSD density
   Achintya Kumar Dutta   : EOM-CC, STEOM-CC
   Dmitry Ganyushin       : Spin-Orbit,Spin-Spin,Magnetic field MRCI
   Miquel Garcia          : C-PCM Hessian, Gaussian charge scheme
   Yang Guo               : DLPNO-NEVPT2, CIM, IAO-localization
   Andreas Hansen         : Spin unrestricted coupled pair/coupled cluster methods
   Benjamin Helmich-Paris : CASSCF linear response (MC-RPA)
   Lee Huntington         : MR-EOM, pCC
   Robert Izsak           : Overlap fitted RIJCOSX, COSX-SCS-MP3, EOM
   Christian Kollmar      : KDIIS, OOCD, Brueckner-CCSD(T), CCSD density
   Simone Kossmann        : Meta GGA functionals, TD-DFT gradient, OOMP2, MP2 Hessian
   Martin Krupicka        : AUTO-CI
   Lucas Lang             : DCDCAS
   Dagmar Lenk            : GEPOL surface, SMD
   Dimitrios Liakos       : Extrapolation schemes; Compound Job, initial MDCI parallelization
   Dimitrios Manganas     : Further ROCIS development; embedding schemes
   Dimitrios Pantazis     : SARC Basis sets
   Taras Petrenko         : DFT Hessian,TD-DFT gradient, ASA, ECA, R-Raman, ABS, FL, XAS/XES, NRVS
   Peter Pinski           : DLPNO-MP2, DLPNO-MP2 Gradient
   Christoph Reimann      : Effective Core Potentials
   Marius Retegan         : Local ZFS, SOC
   Christoph Riplinger    : Optimizer, TS searches, QM/MM, DLPNO-CCSD(T), (RO)-DLPNO pert. Triples
   Tobias Risthaus        : Range-separated hybrids, TD-DFT gradient, RPA, STAB
   Michael Roemelt        : Original ROCIS implementation
   Masaaki Saitow         : Open-shell DLPNO-CCSD energy and density
   Barbara Sandhoefer     : DKH picture change effects
   Avijit Sen             : IP-ROCIS
   Kantharuban Sivalingam : CASSCF convergence, NEVPT2, FIC-MRCI
   Bernardo de Souza      : ESD, SOC TD-DFT
   Georgi Stoychev        : AutoAux, RI-MP2 NMR
   Willem Van den Heuvel  : Paramagnetic NMR
   Boris Wezisla          : Elementary symmetry handling
   Frank Wennmohs         : Technical directorship


 We gratefully acknowledge several colleagues who have allowed us to
 interface, adapt or use parts of their codes:
   Stefan Grimme, W. Hujo, H. Kruse,             : VdW corrections, initial TS optimization,
                  C. Bannwarth                     DFT functionals, gCP, sTDA/sTD-DF
   Ed Valeev, F. Pavosevic, A. Kumar             : LibInt (2-el integral package), F12 methods
   Garnet Chan, S. Sharma, J. Yang, R. Olivares  : DMRG
   Ulf Ekstrom                                   : XCFun DFT Library
   Mihaly Kallay                                 : mrcc  (arbitrary order and MRCC methods)
   Andreas Klamt, Michael Diedenhofen            : otool_cosmo (COSMO solvation model)
   Jiri Pittner, Ondrej Demel                    : Mk-CCSD
   Frank Weinhold                                : gennbo (NPA and NBO analysis)
   Christopher J. Cramer and Donald G. Truhlar   : smd solvation model
   Lars Goerigk                                  : TD-DFT with DH, B97 family of functionals
   V. Asgeirsson, H. Jonsson                     : NEB implementation
   FAccTs GmbH                                   : IRC, NEB, NEB-TS, Multilevel, MM, QM/MM, CI optimization
   S Lehtola, MJT Oliveira, MAL Marques          : LibXC Library


 Your calculation uses the libint2 library for the computation of 2-el integrals
 For citations please refer to: http://libint.valeyev.net

 Your ORCA version has been built with support for libXC version: 4.2.3
 For citations please refer to: https://tddft.org/programs/libxc/

 This ORCA versions uses:
   CBLAS   interface :  Fast vector & matrix operations
   LAPACKE interface :  Fast linear algebra routines
   SCALAPACK package :  Parallel linear algebra routines


Your calculation utilizes the DFT-NL dispersion correction.
Cite in your paper:
Vydrov, O. A.; Van Voorhis, T. J. Chem. Phys. 2010, 133, 244103
Hujo, W.; Grimme, S. J. Chem. Theory Comput. 2011, 7, 3866 
   

----- Orbital basis set information -----
Your calculation utilizes the basis: def2-TZVPPD
   F. Weigend and R. Ahlrichs, Phys. Chem. Chem. Phys. 7, 3297 (2005).
   D. Rappoport and F. Furche, J. Chem. Phys. 133 134105 (2010).

----- AuxJK basis set information -----
Your calculation utilizes the auxiliary basis: def2/JK
   H-Ba, Hf-Rn: F. Weigend, J. Comput. Chem. 29, 167 (2008).

cite the ECPs for Ag [Def2-ECP] as follows:
Ce-Yb(ecp-28): M. Dolg, H. Stoll, H.Preuss, J. Chem. Phys., 1989, 90, 1730-1734.
Y-Cd(ecp-28), Hf-Hg(ecp-46): D. Andrae,U. Haeussermann, M. Dolg, H. Stoll, H. Preuss, Theor. Chim. Acta, 1990, 77, 123-141.
In-Sb(ecp-28), Tl-Bi(ecp-46): B. Metz, H. Stoll, M. Dolg, J. Chem. Phys., 2000, 113, 2563-2569.
Te-Xe(ecp-28), Po-Rn(ecp-46): K. A. Peterson, D. Figgen, E. Goll, H. Stoll, M. Dolg, J. Chem. Phys., 2003, 119, 11113-11123.
Rb(ecp-28), Cs(ecp-46): T. Leininger, A. Nicklass, W. Kuechle, H. Stoll, M. Dolg, A. Bergner, Chem. Phys. Lett., 1996, 255, 274-280.
Sr(ecp-28), Ba(ecp-46): M. Kaupp, P. V. Schleyer, H. Stoll and H. Preuss, J. Chem. Phys., 1991, 94, 1360-1366.
La(ecp-46): M. Dolg, H. Stoll, A. Savin, H. Preuss, Theor. Chim. Acta, 1989, 75, 173-194.
Lu(ecp-28): X. Cao, M. Dolg, J. Chem. Phys., 2001, 115, 7348-7355.

ECP parameters for Ag [Def2-ECP] have been obtained from:
TURBOMOLE (7.0.2)

================================================================================
                                        WARNINGS
                       Please study these warnings very carefully!
================================================================================


INFO   : the flag for use of LIBINT has been found!

================================================================================
                                       INPUT FILE
================================================================================
NAME = Ag02N0.in
|  1> #
|  2> # Ag02N0 wB97M-V/Def2-TZVPPD
|  3> #
|  4> ! wb97m-v def2-tzvppd def2/jk grid4 nofinalgrid
|  5> 
|  6> *xyz 0 1
|  7> Ag       0.000000    0.000000    1.261821 
|  8> Ag       0.000000    0.000000   -1.261821 
|  9> *
| 10> 
| 11> %maxcore 5000
| 12> 
| 13> %pal
| 14> nprocs = 24
| 15> end
| 16> 
| 17> 
| 18>                          ****END OF INPUT****
================================================================================

                       ****************************
                       * Single Point Calculation *
                       ****************************

---------------------------------
CARTESIAN COORDINATES (ANGSTROEM)
---------------------------------
  Ag     0.000000    0.000000    1.261821
  Ag     0.000000    0.000000   -1.261821

----------------------------
CARTESIAN COORDINATES (A.U.)
----------------------------
  NO LB      ZA    FRAG     MASS         X           Y           Z
   0 Ag   19.0000*   0   107.870    0.000000    0.000000    2.384496
   1 Ag   19.0000*   0   107.870    0.000000    0.000000   -2.384496
* core charge reduced due to ECP

--------------------------------
INTERNAL COORDINATES (ANGSTROEM)
--------------------------------
 Ag     0   0   0     0.000000000000     0.00000000     0.00000000
 Ag     1   0   0     2.523642000000     0.00000000     0.00000000

---------------------------
INTERNAL COORDINATES (A.U.)
---------------------------
 Ag     0   0   0     0.000000000000     0.00000000     0.00000000
 Ag     1   0   0     4.768992240061     0.00000000     0.00000000

---------------------
BASIS SET INFORMATION
---------------------
There are 1 groups of distinct atoms

 Group   1 Type Ag  : 7s7p6d2f1g contracted to 6s4p3d2f1g pattern {211111/4111/411/11/1}

Atom   0Ag   basis set group =>   1
Atom   1Ag   basis set group =>   1
----------------------------------
AUXILIARY/JK BASIS SET INFORMATION
----------------------------------
There are 1 groups of distinct atoms

 Group   1 Type Ag  : 13s12p10d9f6g3h2i contracted to 11s10p9d8f6g3h2i pattern {31111111111/3111111111/211111111/21111111/111111/111/11}

Atom   0Ag   basis set group =>   1
Atom   1Ag   basis set group =>   1
-------------------------
ECP PARAMETER INFORMATION
-------------------------

 Group 1, Type Ag ECP Def2-ECP (replacing 28 core electrons, lmax=3)

Atom   0Ag   ECP group =>   1
Atom   1Ag   ECP group =>   1



           ************************************************************
           *        Program running with 24 parallel MPI-processes    *
           *              working on a common directory               *
           ************************************************************
------------------------------------------------------------------------------
                           ORCA GTO INTEGRAL CALCULATION
------------------------------------------------------------------------------

                         BASIS SET STATISTICS AND STARTUP INFO

 # of primitive gaussian shells          ...   46
 # of primitive gaussian functions       ...  162
 # of contracted shells                  ...   32
 # of contracted basis functions         ...  112
 Highest angular momentum                ...    4
 Maximum contraction depth               ...    4
 Integral package used                   ... LIBINT
 Integral threshhold            Thresh   ...  1.000e-10
 Primitive cut-off              TCut     ...  1.000e-11


------------------------------ INTEGRAL EVALUATION ----------------------------


 * One electron integrals 

   ECP integrals                         ... done
 Pre-screening matrix                    ... done
 Shell pair data                         ... done (   0.000 sec)



           ************************************************************
           *        Program running with 24 parallel MPI-processes    *
           *              working on a common directory               *
           ************************************************************
-------------------------------------------------------------------------------
                                 ORCA SCF
-------------------------------------------------------------------------------

------------
SCF SETTINGS
------------
Hamiltonian:
 Density Functional     Method          .... DFT(GTOs)
 Exchange Functional    Exchange        .... WB97M-V
 Correlation Functional Correlation     .... WB97M-V
 Gradients option       PostSCFGGA      .... off
 Hybrid DFT is turned on
   Fraction HF Exchange ScalHFX         ....  0.150000
   Scaling of DF-GGA-X  ScalDFX         ....  0.000000
   Scaling of DF-GGA-C  ScalDFC         ....  1.000000
   Scaling of DF-LDA-C  ScalLDAC        ....  1.000000
   Perturbative correction              ....  0.000000
   Density functional embedding theory  .... OFF
 Long-range corrected/Screened/Range-Separated Hybrid DFT is turned on
   Amount of maximum screened exact exchange              ....  0.850000
   Range separation parameter mu (erf(mu*r12)/r12)        ....  0.300000
   NL short-range parameter             ....  6.000000
   NL long-range parameter              ....  0.010000


General Settings:
 Integral files         IntName         .... Ag02N0
 Hartree-Fock type      HFTyp           .... RHF
 Total Charge           Charge          ....    0
 Multiplicity           Mult            ....    1
 Number of Electrons    NEL             ....   38
 Basis Dimension        Dim             ....  112
 Nuclear Repulsion      ENuc            ....     75.6973343273 Eh

Convergence Acceleration:
 DIIS                   CNVDIIS         .... on
   Start iteration      DIISMaxIt       ....    12
   Startup error        DIISStart       ....  0.200000
   # of expansion vecs  DIISMaxEq       ....     5
   Bias factor          DIISBfac        ....   1.050
   Max. coefficient     DIISMaxC        ....  10.000
 Newton-Raphson         CNVNR           .... off
 SOSCF                  CNVSOSCF        .... off
 Level Shifting         CNVShift        .... on
   Level shift para.    LevelShift      ....    0.2500
   Turn off err/grad.   ShiftErr        ....    0.0010
 Zerner damping         CNVZerner       .... off
 Static damping         CNVDamp         .... on
   Fraction old density DampFac         ....    0.7000
   Max. Damping (<1)    DampMax         ....    0.9800
   Min. Damping (>=0)   DampMin         ....    0.0000
   Turn off err/grad.   DampErr         ....    0.1000
 Fernandez-Rico         CNVRico         .... off

SCF Procedure:
 Maximum # iterations   MaxIter         ....   125
 SCF integral mode      SCFMode         .... Direct
   Integral package                     .... LIBINT
 Reset frequency        DirectResetFreq ....    20
 Integral Threshold     Thresh          ....  1.000e-10 Eh
 Primitive CutOff       TCut            ....  1.000e-11 Eh

Convergence Tolerance:
 Convergence Check Mode ConvCheckMode   .... Total+1el-Energy
 Convergence forced     ConvForced      .... 0
 Energy Change          TolE            ....  1.000e-06 Eh
 1-El. energy change                    ....  1.000e-03 Eh
 DIIS Error             TolErr          ....  1.000e-06


Diagonalization of the overlap matrix:
Smallest eigenvalue                        ... 4.183e-03
Time for diagonalization                   ...    0.003 sec
Threshold for overlap eigenvalues          ... 1.000e-08
Number of eigenvalues below threshold      ... 0
Time for construction of square roots      ...    0.001 sec
Total time needed                          ...    0.004 sec

-------------------
DFT GRID GENERATION
-------------------

General Integration Accuracy     IntAcc      ...  4.670
Radial Grid Type                 RadialGrid  ... Gauss-Chebyshev
Angular Grid (max. acc.)         AngularGrid ... Lebedev-302
Angular grid pruning method      GridPruning ... 3 (G Style)
Weight generation scheme         WeightScheme... Becke
Basis function cutoff            BFCut       ...    1.0000e-10
Integration weight cutoff        WCut        ...    1.0000e-14
Grids for H and He will be reduced by one unit

# of grid points (after initial pruning)     ...  21316 (   0.0 sec)
# of grid points (after weights+screening)   ...  21280 (   0.0 sec)
nearest neighbour list constructed           ...    0.0 sec
Grid point re-assignment to atoms done       ...    0.0 sec
Grid point division into batches done        ...    0.2 sec
Reduced shell lists constructed in    0.2 sec

Total number of grid points                  ...    21280
Total number of batches                      ...      334
Average number of points per batch           ...       63
Average number of grid points per atom       ...    10640
Average number of shells per batch           ...     1.47 ( 4.58%)
Average number of basis functions per batch  ...     2.93 ( 2.62%)
Average number of large shells per batch     ...     1.27 (86.36%)
Average number of large basis fcns per batch ...     2.73 (93.18%)
Maximum spatial batch extension              ...  31.14, 31.14, 19.99 au
Average spatial batch extension              ...   0.98,  0.98,  0.74 au

Time for grid setup =    0.231 sec

------------------------------
INITIAL GUESS: MODEL POTENTIAL
------------------------------
Loading Hartree-Fock densities                     ... done
  calling /sw/apps/orca/orca_4_2_0_linux_x86-64_openmpi314/orca Ag02N0_atom47.inp > Ag02N0_atom47.out in order to generate an atomic fitting density for atom 0 (Ag with ECP) on-the-fly... 
    atom 0 (Ag), assumed electronic state with S=2: 1s2 2s2 2p6 3s2 3p6 4s2 3d10 4p6 5s2 4d9           ... done
Calculating cut-offs                               ... done
Setting up the integral package                    ... done
Initializing the effective Hamiltonian             ... done
Starting the Coulomb interaction                   ... done (   0.0 sec)
Reading the grid                                   ... done
Mapping shells                                     ... done
Starting the XC term evaluation                    ... done (   0.0 sec)
  promolecular density results
     # of electrons  =     94.001400707
     EX              =   -286.846358084
     EC              =     -4.972493760
     EX+EC           =   -291.818851844
Transforming the Hamiltonian                       ... done (   0.0 sec)
Diagonalizing the Hamiltonian                      ... done (   0.0 sec)
Back transforming the eigenvectors                 ... done (   0.0 sec)
Now organizing SCF variables                       ... done
                      ------------------
                      INITIAL GUESS DONE (   1.5 sec)
                      ------------------
--------------
SCF ITERATIONS
--------------
ITER       Energy         Delta-E        Max-DP      RMS-DP      [F,P]     Damp
               ***  Starting incremental Fock matrix formation  ***
  0   -293.8002760043   0.000000000000 0.10607342  0.00302414  0.5150849 0.7000
  1   -293.8909767704  -0.090700766136 0.05720353  0.00200511  0.3405850 0.7000
  2   -293.9291402088  -0.038163438328 0.03916059  0.00112476  0.2265603 0.7000
                               ***Turning on DIIS***
  3   -293.9519849813  -0.022844772526 0.02749583  0.00066186  0.1545093 0.7000
  4   -293.9679422643  -0.015957283002 0.02071110  0.00044908  0.1073696 0.7000
  5   -293.9791865801  -0.011244315808 0.05627433  0.00120233  0.0762129 0.0000
  6   -294.0057416902  -0.026555110147 0.00750752  0.00016085  0.0013993 0.0000
  7   -294.0057660404  -0.000024350191 0.00566184  0.00011422  0.0009979 0.0000
  8   -294.0057775768  -0.000011536371 0.00413605  0.00008213  0.0003105 0.0000
  9   -294.0057799525  -0.000002375657 0.00024541  0.00000583  0.0000478 0.0000
                 **** Energy Check signals convergence ****

               *****************************************************
               *                     SUCCESS                       *
               *           SCF CONVERGED AFTER  10 CYCLES          *
               *****************************************************


Setting up the DFT-NL grid :

General Integration Accuracy     IntAcc      ...  4.340
Radial Grid Type                 RadialGrid  ... Gauss-Chebyshev
Angular Grid (max. acc.)         AngularGrid ... Lebedev-110
Angular grid pruning method      GridPruning ... 3 (G Style)
Weight generation scheme         WeightScheme... Becke
Basis function cutoff            BFCut       ...    1.0000e-10
Integration weight cutoff        WCut        ...    1.0000e-14
Grids for H and He will be reduced by one unit

# of grid points (after initial pruning)     ...   6516 (   0.0 sec)
# of grid points (after weights+screening)   ...   6484 (   0.0 sec)
nearest neighbour list constructed           ...    0.0 sec
Grid point re-assignment to atoms done       ...    0.0 sec
Grid point division into batches done        ...    0.0 sec
Reduced shell lists constructed in    0.0 sec

Total number of grid points                  ...     6484
Total number of batches                      ...      102
Average number of points per batch           ...       63
Average number of grid points per atom       ...     3242
Average number of shells per batch           ...     7.83 (24.48%)
Average number of basis functions per batch  ...    20.17 (18.01%)
Average number of large shells per batch     ...     5.67 (72.34%)
Average number of large basis fcns per batch ...    10.67 (52.89%)
Maximum spatial batch extension              ...  24.86, 37.49, 24.53 au
Average spatial batch extension              ...   1.14,  1.42,  1.07 au

Final grid set up in    0.0 sec

-------------------------------------------------------------------------------
                         DFT-NL dispersion correction                          
-------------------------------------------------------------------------------

SC Energy -294.005780003 
NL    Energy 0.146790116 
SC+NL Energy -293.858989888 
NL done in    0.0 sec
-------------------------------------------------------------------------------

----------------
TOTAL SCF ENERGY
----------------

Total Energy       :         -293.85898989 Eh           -7996.30964 eV

Components:
Nuclear Repulsion  :           75.69733433 Eh            2059.82919 eV
Electronic Energy  :         -369.55632421 Eh          -10056.13883 eV
One Electron Energy:         -674.21929251 Eh          -18346.43966 eV
Two Electron Energy:          304.66296830 Eh            8290.30084 eV

Virial components:
Potential Energy   :         -406.68342275 Eh          -11066.41854 eV
Kinetic Energy     :          112.82443286 Eh            3070.10890 eV
Virial Ratio       :            3.60456873


DFT components:
N(Alpha)           :       18.999989539022 electrons
N(Beta)            :       18.999989539022 electrons
N(Total)           :       37.999979078044 electrons
E(X)               :      -17.887283268098 Eh       
E(C)               :       -1.389430996140 Eh       
NL Energy, E(C,NL) :        0.146790115865 Eh       
E(XC)              :      -19.129924148373 Eh       
DFET-embed. en.    :        0.000000000000 Eh       

---------------
SCF CONVERGENCE
---------------

  Last Energy change         ...   -5.0935e-08  Tolerance :   1.0000e-06
  Last MAX-Density change    ...    7.6064e-05  Tolerance :   1.0000e-05
  Last RMS-Density change    ...    2.5217e-06  Tolerance :   1.0000e-06
  Last DIIS Error            ...    2.1962e-05  Tolerance :   1.0000e-06

             **** THE GBW FILE WAS UPDATED (Ag02N0.gbw) ****
             **** DENSITY FILE WAS UPDATED (Ag02N0.scfp) ****
             **** ENERGY FILE WAS UPDATED (Ag02N0.en.tmp) ****
             **** THE GBW FILE WAS UPDATED (Ag02N0.gbw) ****
             **** DENSITY FILE WAS UPDATED (Ag02N0.scfp) ****
----------------
ORBITAL ENERGIES
----------------

  NO   OCC          E(Eh)            E(eV) 
   0   2.0000      -3.853767      -104.8663 
   1   2.0000      -3.853161      -104.8498 
   2   2.0000      -2.445847       -66.5549 
   3   2.0000      -2.439090       -66.3710 
   4   2.0000      -2.439090       -66.3710 
   5   2.0000      -2.438772       -66.3624 
   6   2.0000      -2.438524       -66.3556 
   7   2.0000      -2.438524       -66.3556 
   8   2.0000      -0.462660       -12.5896 
   9   2.0000      -0.445000       -12.1091 
  10   2.0000      -0.445000       -12.1091 
  11   2.0000      -0.423103       -11.5132 
  12   2.0000      -0.423101       -11.5132 
  13   2.0000      -0.414839       -11.2883 
  14   2.0000      -0.414836       -11.2883 
  15   2.0000      -0.401489       -10.9251 
  16   2.0000      -0.401489       -10.9251 
  17   2.0000      -0.393548       -10.7090 
  18   2.0000      -0.271081        -7.3765 
  19   0.0000      -0.028275        -0.7694 
  20   0.0000       0.028291         0.7698 
  21   0.0000       0.028291         0.7698 
  22   0.0000       0.042952         1.1688 
  23   0.0000       0.081272         2.2115 
  24   0.0000       0.081272         2.2115 
  25   0.0000       0.121535         3.3071 
  26   0.0000       0.153822         4.1857 
  27   0.0000       0.188996         5.1428 
  28   0.0000       0.240677         6.5492 
  29   0.0000       0.242275         6.5927 
  30   0.0000       0.242275         6.5927 
  31   0.0000       0.309064         8.4101 
  32   0.0000       0.309064         8.4101 
  33   0.0000       0.459655        12.5078 
  34   0.0000       0.462951        12.5975 
  35   0.0000       0.462951        12.5975 
  36   0.0000       0.506758        13.7896 
  37   0.0000       0.506758        13.7896 
  38   0.0000       0.551436        15.0053 
  39   0.0000       0.551439        15.0054 
  40   0.0000       0.660340        17.9688 
  41   0.0000       0.665477        18.1085 
  42   0.0000       0.665477        18.1085 
  43   0.0000       0.795681        21.6516 
  44   0.0000       1.513939        41.1964 
  45   0.0000       1.658793        45.1381 
  46   0.0000       1.658793        45.1381 
  47   0.0000       1.708350        46.4866 
  48   0.0000       1.708353        46.4867 
  49   0.0000       1.725024        46.9403 
  50   0.0000       1.725024        46.9403 
  51   0.0000       1.726372        46.9770 
  52   0.0000       1.726372        46.9770 
  53   0.0000       1.727425        47.0056 
  54   0.0000       1.727425        47.0056 
  55   0.0000       1.736426        47.2505 
  56   0.0000       1.736426        47.2505 
  57   0.0000       1.741130        47.3786 
  58   0.0000       1.741133        47.3786 
  59   0.0000       1.750036        47.6209 
  60   0.0000       1.834518        49.9198 
  61   0.0000       1.860031        50.6140 
  62   0.0000       1.860031        50.6140 
  63   0.0000       1.889357        51.4120 
  64   0.0000       2.062052        56.1113 
  65   0.0000       2.157117        58.6981 
  66   0.0000       2.157133        58.6986 
  67   0.0000       2.173203        59.1359 
  68   0.0000       2.173203        59.1359 
  69   0.0000       2.193829        59.6971 
  70   0.0000       2.193844        59.6975 
  71   0.0000       2.252739        61.3001 
  72   0.0000       2.261225        61.5311 
  73   0.0000       2.261225        61.5311 
  74   0.0000       2.429690        66.1152 
  75   0.0000       2.481936        67.5369 
  76   0.0000       4.945414       134.5716 
  77   0.0000       4.945414       134.5716 
  78   0.0000       4.954004       134.8053 
  79   0.0000       4.986008       135.6762 
  80   0.0000       4.986287       135.6838 
  81   0.0000       4.998437       136.0144 
  82   0.0000       4.998437       136.0144 
  83   0.0000       5.000368       136.0669 
  84   0.0000       5.000368       136.0669 
  85   0.0000       5.012938       136.4090 
  86   0.0000       5.013219       136.4166 
  87   0.0000       5.098762       138.7444 
  88   0.0000       5.098762       138.7444 
  89   0.0000       5.296803       144.1333 
  90   0.0000       5.720101       155.6519 
  91   0.0000       5.720101       155.6519 
  92   0.0000       5.722144       155.7074 
  93   0.0000       5.722160       155.7079 
  94   0.0000       5.722202       155.7090 
  95   0.0000       5.722756       155.7241 
  96   0.0000       5.722810       155.7256 
  97   0.0000       5.724212       155.7637 
  98   0.0000       5.724212       155.7637 
  99   0.0000       5.724253       155.7648 
 100   0.0000       5.724253       155.7648 
 101   0.0000       5.725181       155.7901 
 102   0.0000       5.725181       155.7901 
 103   0.0000       5.726015       155.8128 
 104   0.0000       5.726017       155.8128 
 105   0.0000       5.726552       155.8274 
 106   0.0000       5.726553       155.8274 
 107   0.0000       5.741178       156.2254 
 108   0.0000      33.520696       912.1445 
 109   0.0000      33.765778       918.8135 
 110   0.0000     110.847120      3016.3035 
 111   0.0000     110.926422      3018.4614 

                    ********************************
                    * MULLIKEN POPULATION ANALYSIS *
                    ********************************

-----------------------
MULLIKEN ATOMIC CHARGES
-----------------------
   0 Ag:   -0.000001
   1 Ag:    0.000001
Sum of atomic charges:    0.0000000

--------------------------------
MULLIKEN REDUCED ORBITAL CHARGES
--------------------------------
  0 Ags       :     2.965222  s :     2.965222
      pz      :     2.055651  p :     6.068033
      px      :     2.006191
      py      :     2.006191
      dz2     :     1.978437  d :     9.965223
      dxz     :     1.993461
      dyz     :     1.993461
      dx2y2   :     1.999932
      dxy     :     1.999932
      f0      :     0.000682  f :     0.001503
      f+1     :     0.000343
      f-1     :     0.000343
      f+2     :     0.000068
      f-2     :     0.000068
      f+3     :     0.000000
      f-3     :     0.000000
      g0      :     0.000009  g :     0.000019
      g+1     :     0.000005
      g-1     :     0.000005
      g+2     :     0.000001
      g-2     :     0.000001
      g+3     :     0.000000
      g-3     :     0.000000
      g+4     :     0.000000
      g-4     :     0.000000
  1 Ags       :     2.965221  s :     2.965221
      pz      :     2.055650  p :     6.068033
      px      :     2.006191
      py      :     2.006191
      dz2     :     1.978437  d :     9.965223
      dxz     :     1.993461
      dyz     :     1.993461
      dx2y2   :     1.999932
      dxy     :     1.999932
      f0      :     0.000682  f :     0.001503
      f+1     :     0.000343
      f-1     :     0.000343
      f+2     :     0.000068
      f-2     :     0.000068
      f+3     :     0.000000
      f-3     :     0.000000
      g0      :     0.000009  g :     0.000019
      g+1     :     0.000005
      g-1     :     0.000005
      g+2     :     0.000001
      g-2     :     0.000001
      g+3     :     0.000000
      g-3     :     0.000000
      g+4     :     0.000000
      g-4     :     0.000000


                     *******************************
                     * LOEWDIN POPULATION ANALYSIS *
                     *******************************

----------------------
LOEWDIN ATOMIC CHARGES
----------------------
   0 Ag:   -0.000000
   1 Ag:    0.000000

-------------------------------
LOEWDIN REDUCED ORBITAL CHARGES
-------------------------------
  0 Ags       :     2.894092  s :     2.894092
      pz      :     2.110277  p :     6.127515
      px      :     2.008619
      py      :     2.008619
      dz2     :     1.994655  d :     9.976210
      dxz     :     1.990856
      dyz     :     1.990856
      dx2y2   :     1.999922
      dxy     :     1.999922
      f0      :     0.000964  f :     0.002157
      f+1     :     0.000519
      f-1     :     0.000519
      f+2     :     0.000078
      f-2     :     0.000078
      f+3     :     0.000000
      f-3     :     0.000000
      g0      :     0.000012  g :     0.000026
      g+1     :     0.000006
      g-1     :     0.000006
      g+2     :     0.000001
      g-2     :     0.000001
      g+3     :     0.000000
      g-3     :     0.000000
      g+4     :     0.000000
      g-4     :     0.000000
  1 Ags       :     2.894092  s :     2.894092
      pz      :     2.110276  p :     6.127515
      px      :     2.008619
      py      :     2.008619
      dz2     :     1.994655  d :     9.976210
      dxz     :     1.990856
      dyz     :     1.990856
      dx2y2   :     1.999922
      dxy     :     1.999922
      f0      :     0.000964  f :     0.002157
      f+1     :     0.000519
      f-1     :     0.000519
      f+2     :     0.000078
      f-2     :     0.000078
      f+3     :     0.000000
      f-3     :     0.000000
      g0      :     0.000012  g :     0.000026
      g+1     :     0.000006
      g-1     :     0.000006
      g+2     :     0.000001
      g-2     :     0.000001
      g+3     :     0.000000
      g-3     :     0.000000
      g+4     :     0.000000
      g-4     :     0.000000


                      *****************************
                      * MAYER POPULATION ANALYSIS *
                      *****************************

  NA   - Mulliken gross atomic population
  ZA   - Total nuclear charge
  QA   - Mulliken gross atomic charge
  VA   - Mayer's total valence
  BVA  - Mayer's bonded valence
  FA   - Mayer's free valence

  ATOM       NA         ZA         QA         VA         BVA        FA
  0 Ag    19.0000    19.0000    -0.0000     1.0265     1.0265     0.0000
  1 Ag    19.0000    19.0000     0.0000     1.0265     1.0265     0.0000

  Mayer bond orders larger than 0.100000
B(  0-Ag,  1-Ag) :   1.0265 

-------
TIMINGS
-------

Total SCF time: 0 days 0 hours 0 min 4 sec 

Total time                  ....       4.570 sec
Sum of individual times     ....       4.379 sec  ( 95.8%)

Fock matrix formation       ....       2.859 sec  ( 62.6%)
  XC integration            ....       0.263 sec  (  9.2% of F)
    Basis function eval.    ....       0.020 sec  (  7.6% of XC)
    Density eval.           ....       0.027 sec  ( 10.4% of XC)
    XC-Functional eval.     ....       0.016 sec  (  6.1% of XC)
    XC-Potential eval.      ....       0.047 sec  ( 17.6% of XC)
Diagonalization             ....       0.018 sec  (  0.4%)
Density matrix formation    ....       0.003 sec  (  0.1%)
Population analysis         ....       0.003 sec  (  0.1%)
Initial guess               ....       1.236 sec  ( 27.0%)
Orbital Transformation      ....       0.000 sec  (  0.0%)
Orbital Orthonormalization  ....       0.000 sec  (  0.0%)
DIIS solution               ....       0.008 sec  (  0.2%)
Grid generation             ....       0.251 sec  (  5.5%)

-------------------------   --------------------
FINAL SINGLE POINT ENERGY      -293.858989887530
-------------------------   --------------------


                            ***************************************
                            *     ORCA property calculations      *
                            ***************************************

                                    ---------------------
                                    Active property flags
                                    ---------------------
   (+) Dipole Moment


------------------------------------------------------------------------------
                       ORCA ELECTRIC PROPERTIES CALCULATION
------------------------------------------------------------------------------

Dipole Moment Calculation                       ... on
Quadrupole Moment Calculation                   ... off
Polarizability Calculation                      ... off
GBWName                                         ... Ag02N0.gbw
Electron density file                           ... Ag02N0.scfp
The origin for moment calculation is the CENTER OF MASS  = ( 0.000000,  0.000000  0.000000)

-------------
DIPOLE MOMENT
-------------
                                X             Y             Z
Electronic contribution:      0.00000      -0.00000       0.00000
Nuclear contribution   :      0.00000       0.00000       0.00000
                        -----------------------------------------
Total Dipole Moment    :      0.00000      -0.00000       0.00000
                        -----------------------------------------
Magnitude (a.u.)       :      0.00000
Magnitude (Debye)      :      0.00000



--------------------
Rotational spectrum 
--------------------
 
Rotational constants in cm-1:     0.000000     0.049076     0.049076 
Rotational constants in MHz :     0.000000  1471.266775  1471.266775 

 Dipole components along the rotational axes: 
x,y,z [a.u.] :     0.000000    -0.000000     0.000000 
x,y,z [Debye]:     0.000001    -0.000000     0.000001 

 

Timings for individual modules:

Sum of individual times         ...        5.704 sec (=   0.095 min)
GTO integral calculation        ...        0.765 sec (=   0.013 min)  13.4 %
SCF iterations                  ...        4.939 sec (=   0.082 min)  86.6 %
                             ****ORCA TERMINATED NORMALLY****
TOTAL RUN TIME: 0 days 0 hours 0 minutes 6 seconds 140 msec
