
                                 *****************
                                 * O   R   C   A *
                                 *****************

           --- An Ab Initio, DFT and Semiempirical electronic structure package ---

                  #######################################################
                  #                        -***-                        #
                  #          Department of theory and spectroscopy      #
                  #               Directorship: Frank Neese             #
                  #        Max Planck Institute fuer Kohlenforschung    #
                  #                Kaiser Wilhelm Platz 1               #
                  #                 D-45470 Muelheim/Ruhr               #
                  #                      Germany                        #
                  #                                                     #
                  #                  All rights reserved                #
                  #                        -***-                        #
                  #######################################################


                         Program Version 4.2.0 -  RELEASE  -


 With contributions from (in alphabetic order):
   Daniel Aravena         : Magnetic Suceptibility
   Michael Atanasov       : Ab Initio Ligand Field Theory (pilot matlab implementation)
   Alexander A. Auer      : GIAO ZORA, VPT2
   Ute Becker             : Parallelization
   Giovanni Bistoni       : ED, misc. LED, open-shell LED, HFLED
   Martin Brehm           : Molecular dynamics
   Dmytro Bykov           : SCF Hessian
   Vijay G. Chilkuri      : MRCI spin determinant printing, contributions to CSF-ICE
   Dipayan Datta          : RHF DLPNO-CCSD density
   Achintya Kumar Dutta   : EOM-CC, STEOM-CC
   Dmitry Ganyushin       : Spin-Orbit,Spin-Spin,Magnetic field MRCI
   Miquel Garcia          : C-PCM Hessian, Gaussian charge scheme
   Yang Guo               : DLPNO-NEVPT2, CIM, IAO-localization
   Andreas Hansen         : Spin unrestricted coupled pair/coupled cluster methods
   Benjamin Helmich-Paris : CASSCF linear response (MC-RPA)
   Lee Huntington         : MR-EOM, pCC
   Robert Izsak           : Overlap fitted RIJCOSX, COSX-SCS-MP3, EOM
   Christian Kollmar      : KDIIS, OOCD, Brueckner-CCSD(T), CCSD density
   Simone Kossmann        : Meta GGA functionals, TD-DFT gradient, OOMP2, MP2 Hessian
   Martin Krupicka        : AUTO-CI
   Lucas Lang             : DCDCAS
   Dagmar Lenk            : GEPOL surface, SMD
   Dimitrios Liakos       : Extrapolation schemes; Compound Job, initial MDCI parallelization
   Dimitrios Manganas     : Further ROCIS development; embedding schemes
   Dimitrios Pantazis     : SARC Basis sets
   Taras Petrenko         : DFT Hessian,TD-DFT gradient, ASA, ECA, R-Raman, ABS, FL, XAS/XES, NRVS
   Peter Pinski           : DLPNO-MP2, DLPNO-MP2 Gradient
   Christoph Reimann      : Effective Core Potentials
   Marius Retegan         : Local ZFS, SOC
   Christoph Riplinger    : Optimizer, TS searches, QM/MM, DLPNO-CCSD(T), (RO)-DLPNO pert. Triples
   Tobias Risthaus        : Range-separated hybrids, TD-DFT gradient, RPA, STAB
   Michael Roemelt        : Original ROCIS implementation
   Masaaki Saitow         : Open-shell DLPNO-CCSD energy and density
   Barbara Sandhoefer     : DKH picture change effects
   Avijit Sen             : IP-ROCIS
   Kantharuban Sivalingam : CASSCF convergence, NEVPT2, FIC-MRCI
   Bernardo de Souza      : ESD, SOC TD-DFT
   Georgi Stoychev        : AutoAux, RI-MP2 NMR
   Willem Van den Heuvel  : Paramagnetic NMR
   Boris Wezisla          : Elementary symmetry handling
   Frank Wennmohs         : Technical directorship


 We gratefully acknowledge several colleagues who have allowed us to
 interface, adapt or use parts of their codes:
   Stefan Grimme, W. Hujo, H. Kruse,             : VdW corrections, initial TS optimization,
                  C. Bannwarth                     DFT functionals, gCP, sTDA/sTD-DF
   Ed Valeev, F. Pavosevic, A. Kumar             : LibInt (2-el integral package), F12 methods
   Garnet Chan, S. Sharma, J. Yang, R. Olivares  : DMRG
   Ulf Ekstrom                                   : XCFun DFT Library
   Mihaly Kallay                                 : mrcc  (arbitrary order and MRCC methods)
   Andreas Klamt, Michael Diedenhofen            : otool_cosmo (COSMO solvation model)
   Jiri Pittner, Ondrej Demel                    : Mk-CCSD
   Frank Weinhold                                : gennbo (NPA and NBO analysis)
   Christopher J. Cramer and Donald G. Truhlar   : smd solvation model
   Lars Goerigk                                  : TD-DFT with DH, B97 family of functionals
   V. Asgeirsson, H. Jonsson                     : NEB implementation
   FAccTs GmbH                                   : IRC, NEB, NEB-TS, Multilevel, MM, QM/MM, CI optimization
   S Lehtola, MJT Oliveira, MAL Marques          : LibXC Library


 Your calculation uses the libint2 library for the computation of 2-el integrals
 For citations please refer to: http://libint.valeyev.net

 Your ORCA version has been built with support for libXC version: 4.2.3
 For citations please refer to: https://tddft.org/programs/libxc/

 This ORCA versions uses:
   CBLAS   interface :  Fast vector & matrix operations
   LAPACKE interface :  Fast linear algebra routines
   SCALAPACK package :  Parallel linear algebra routines


Your calculation utilizes the DFT-NL dispersion correction.
Cite in your paper:
Vydrov, O. A.; Van Voorhis, T. J. Chem. Phys. 2010, 133, 244103
Hujo, W.; Grimme, S. J. Chem. Theory Comput. 2011, 7, 3866 
   

----- Orbital basis set information -----
Your calculation utilizes the basis: def2-TZVPPD
   F. Weigend and R. Ahlrichs, Phys. Chem. Chem. Phys. 7, 3297 (2005).
   D. Rappoport and F. Furche, J. Chem. Phys. 133 134105 (2010).

----- AuxJK basis set information -----
Your calculation utilizes the auxiliary basis: def2/JK
   H-Ba, Hf-Rn: F. Weigend, J. Comput. Chem. 29, 167 (2008).

cite the ECPs for Ag [Def2-ECP] as follows:
Ce-Yb(ecp-28): M. Dolg, H. Stoll, H.Preuss, J. Chem. Phys., 1989, 90, 1730-1734.
Y-Cd(ecp-28), Hf-Hg(ecp-46): D. Andrae,U. Haeussermann, M. Dolg, H. Stoll, H. Preuss, Theor. Chim. Acta, 1990, 77, 123-141.
In-Sb(ecp-28), Tl-Bi(ecp-46): B. Metz, H. Stoll, M. Dolg, J. Chem. Phys., 2000, 113, 2563-2569.
Te-Xe(ecp-28), Po-Rn(ecp-46): K. A. Peterson, D. Figgen, E. Goll, H. Stoll, M. Dolg, J. Chem. Phys., 2003, 119, 11113-11123.
Rb(ecp-28), Cs(ecp-46): T. Leininger, A. Nicklass, W. Kuechle, H. Stoll, M. Dolg, A. Bergner, Chem. Phys. Lett., 1996, 255, 274-280.
Sr(ecp-28), Ba(ecp-46): M. Kaupp, P. V. Schleyer, H. Stoll and H. Preuss, J. Chem. Phys., 1991, 94, 1360-1366.
La(ecp-46): M. Dolg, H. Stoll, A. Savin, H. Preuss, Theor. Chim. Acta, 1989, 75, 173-194.
Lu(ecp-28): X. Cao, M. Dolg, J. Chem. Phys., 2001, 115, 7348-7355.

ECP parameters for Ag [Def2-ECP] have been obtained from:
TURBOMOLE (7.0.2)

================================================================================
                                        WARNINGS
                       Please study these warnings very carefully!
================================================================================


INFO   : the flag for use of LIBINT has been found!

================================================================================
                                       INPUT FILE
================================================================================
NAME = Ag03C1_LIN.in
|  1> #
|  2> # Ag03C1_LIN wB97M-V/Def2-TZVPPD
|  3> #
|  4> ! wb97m-v def2-tzvppd def2/jk grid4 nofinalgrid
|  5> 
|  6> *xyz 1 1
|  7> Ag       0.000000    0.000000    0.000000 
|  8> Ag       0.000000    0.000000    2.629319 
|  9> Ag       0.000000    0.000000   -2.629319 
| 10> *
| 11> 
| 12> %maxcore 5000
| 13> 
| 14> %pal
| 15> nprocs = 24
| 16> end
| 17> 
| 18> 
| 19>                          ****END OF INPUT****
================================================================================

                       ****************************
                       * Single Point Calculation *
                       ****************************

---------------------------------
CARTESIAN COORDINATES (ANGSTROEM)
---------------------------------
  Ag     0.000000    0.000000    0.000000
  Ag     0.000000    0.000000    2.629319
  Ag     0.000000    0.000000   -2.629319

----------------------------
CARTESIAN COORDINATES (A.U.)
----------------------------
  NO LB      ZA    FRAG     MASS         X           Y           Z
   0 Ag   19.0000*   0   107.870    0.000000    0.000000    0.000000
   1 Ag   19.0000*   0   107.870    0.000000    0.000000    4.968693
   2 Ag   19.0000*   0   107.870    0.000000    0.000000   -4.968693
* core charge reduced due to ECP

--------------------------------
INTERNAL COORDINATES (ANGSTROEM)
--------------------------------
 Ag     0   0   0     0.000000000000     0.00000000     0.00000000
 Ag     1   0   0     2.629319000000     0.00000000     0.00000000
 Ag     1   2   0     2.629319000000   180.00000000     0.00000000

---------------------------
INTERNAL COORDINATES (A.U.)
---------------------------
 Ag     0   0   0     0.000000000000     0.00000000     0.00000000
 Ag     1   0   0     4.968692828716     0.00000000     0.00000000
 Ag     1   2   0     4.968692828716   180.00000000     0.00000000

---------------------
BASIS SET INFORMATION
---------------------
There are 1 groups of distinct atoms

 Group   1 Type Ag  : 7s7p6d2f1g contracted to 6s4p3d2f1g pattern {211111/4111/411/11/1}

Atom   0Ag   basis set group =>   1
Atom   1Ag   basis set group =>   1
Atom   2Ag   basis set group =>   1
----------------------------------
AUXILIARY/JK BASIS SET INFORMATION
----------------------------------
There are 1 groups of distinct atoms

 Group   1 Type Ag  : 13s12p10d9f6g3h2i contracted to 11s10p9d8f6g3h2i pattern {31111111111/3111111111/211111111/21111111/111111/111/11}

Atom   0Ag   basis set group =>   1
Atom   1Ag   basis set group =>   1
Atom   2Ag   basis set group =>   1
-------------------------
ECP PARAMETER INFORMATION
-------------------------

 Group 1, Type Ag ECP Def2-ECP (replacing 28 core electrons, lmax=3)

Atom   0Ag   ECP group =>   1
Atom   1Ag   ECP group =>   1
Atom   2Ag   ECP group =>   1



           ************************************************************
           *        Program running with 24 parallel MPI-processes    *
           *              working on a common directory               *
           ************************************************************
------------------------------------------------------------------------------
                           ORCA GTO INTEGRAL CALCULATION
------------------------------------------------------------------------------

                         BASIS SET STATISTICS AND STARTUP INFO

 # of primitive gaussian shells          ...   69
 # of primitive gaussian functions       ...  243
 # of contracted shells                  ...   48
 # of contracted basis functions         ...  168
 Highest angular momentum                ...    4
 Maximum contraction depth               ...    4
 Integral package used                   ... LIBINT
 Integral threshhold            Thresh   ...  1.000e-10
 Primitive cut-off              TCut     ...  1.000e-11


------------------------------ INTEGRAL EVALUATION ----------------------------


 * One electron integrals 

   ECP integrals                         ... done
 Pre-screening matrix                    ... done
 Shell pair data                         ... done (   0.000 sec)



           ************************************************************
           *        Program running with 24 parallel MPI-processes    *
           *              working on a common directory               *
           ************************************************************
-------------------------------------------------------------------------------
                                 ORCA SCF
-------------------------------------------------------------------------------

------------
SCF SETTINGS
------------
Hamiltonian:
 Density Functional     Method          .... DFT(GTOs)
 Exchange Functional    Exchange        .... WB97M-V
 Correlation Functional Correlation     .... WB97M-V
 Gradients option       PostSCFGGA      .... off
 Hybrid DFT is turned on
   Fraction HF Exchange ScalHFX         ....  0.150000
   Scaling of DF-GGA-X  ScalDFX         ....  0.000000
   Scaling of DF-GGA-C  ScalDFC         ....  1.000000
   Scaling of DF-LDA-C  ScalLDAC        ....  1.000000
   Perturbative correction              ....  0.000000
   Density functional embedding theory  .... OFF
 Long-range corrected/Screened/Range-Separated Hybrid DFT is turned on
   Amount of maximum screened exact exchange              ....  0.850000
   Range separation parameter mu (erf(mu*r12)/r12)        ....  0.300000
   NL short-range parameter             ....  6.000000
   NL long-range parameter              ....  0.010000


General Settings:
 Integral files         IntName         .... Ag03C1_LIN
 Hartree-Fock type      HFTyp           .... RHF
 Total Charge           Charge          ....    1
 Multiplicity           Mult            ....    1
 Number of Electrons    NEL             ....   56
 Basis Dimension        Dim             ....  168
 Nuclear Repulsion      ENuc            ....    181.6373100756 Eh

Convergence Acceleration:
 DIIS                   CNVDIIS         .... on
   Start iteration      DIISMaxIt       ....    12
   Startup error        DIISStart       ....  0.200000
   # of expansion vecs  DIISMaxEq       ....     5
   Bias factor          DIISBfac        ....   1.050
   Max. coefficient     DIISMaxC        ....  10.000
 Newton-Raphson         CNVNR           .... off
 SOSCF                  CNVSOSCF        .... off
 Level Shifting         CNVShift        .... on
   Level shift para.    LevelShift      ....    0.2500
   Turn off err/grad.   ShiftErr        ....    0.0010
 Zerner damping         CNVZerner       .... off
 Static damping         CNVDamp         .... on
   Fraction old density DampFac         ....    0.7000
   Max. Damping (<1)    DampMax         ....    0.9800
   Min. Damping (>=0)   DampMin         ....    0.0000
   Turn off err/grad.   DampErr         ....    0.1000
 Fernandez-Rico         CNVRico         .... off

SCF Procedure:
 Maximum # iterations   MaxIter         ....   125
 SCF integral mode      SCFMode         .... Direct
   Integral package                     .... LIBINT
 Reset frequency        DirectResetFreq ....    20
 Integral Threshold     Thresh          ....  1.000e-10 Eh
 Primitive CutOff       TCut            ....  1.000e-11 Eh

Convergence Tolerance:
 Convergence Check Mode ConvCheckMode   .... Total+1el-Energy
 Convergence forced     ConvForced      .... 0
 Energy Change          TolE            ....  1.000e-06 Eh
 1-El. energy change                    ....  1.000e-03 Eh
 DIIS Error             TolErr          ....  1.000e-06


Diagonalization of the overlap matrix:
Smallest eigenvalue                        ... 1.322e-03
Time for diagonalization                   ...    0.007 sec
Threshold for overlap eigenvalues          ... 1.000e-08
Number of eigenvalues below threshold      ... 0
Time for construction of square roots      ...    0.003 sec
Total time needed                          ...    0.010 sec

-------------------
DFT GRID GENERATION
-------------------

General Integration Accuracy     IntAcc      ...  4.670
Radial Grid Type                 RadialGrid  ... Gauss-Chebyshev
Angular Grid (max. acc.)         AngularGrid ... Lebedev-302
Angular grid pruning method      GridPruning ... 3 (G Style)
Weight generation scheme         WeightScheme... Becke
Basis function cutoff            BFCut       ...    1.0000e-10
Integration weight cutoff        WCut        ...    1.0000e-14
Grids for H and He will be reduced by one unit

# of grid points (after initial pruning)     ...  31974 (   0.0 sec)
# of grid points (after weights+screening)   ...  31770 (   0.0 sec)
nearest neighbour list constructed           ...    0.0 sec
Grid point re-assignment to atoms done       ...    0.0 sec
Grid point division into batches done        ...    0.2 sec
Reduced shell lists constructed in    0.3 sec

Total number of grid points                  ...    31770
Total number of batches                      ...      498
Average number of points per batch           ...       63
Average number of grid points per atom       ...    10590
Average number of shells per batch           ...    11.91 (24.81%)
Average number of basis functions per batch  ...    30.45 (18.13%)
Average number of large shells per batch     ...     9.77 (82.06%)
Average number of large basis fcns per batch ...    24.32 (79.85%)
Maximum spatial batch extension              ...  36.77, 36.77,  4.93 au
Average spatial batch extension              ...   0.56,  0.56,  0.20 au

Time for grid setup =    0.318 sec

------------------------------
INITIAL GUESS: MODEL POTENTIAL
------------------------------
Loading Hartree-Fock densities                     ... done
  calling /sw/apps/orca/orca_4_2_0_linux_x86-64_openmpi314/orca Ag03C1_LIN_atom47.inp > Ag03C1_LIN_atom47.out in order to generate an atomic fitting density for atom 0 (Ag with ECP) on-the-fly... 
    atom 0 (Ag), assumed electronic state with S=2: 1s2 2s2 2p6 3s2 3p6 4s2 3d10 4p6 5s2 4d9           ... done
Calculating cut-offs                               ... done
Setting up the integral package                    ... done
Initializing the effective Hamiltonian             ... done
Starting the Coulomb interaction                   ... done (   0.0 sec)
Reading the grid                                   ... done
Mapping shells                                     ... done
Starting the XC term evaluation                    ... done (   0.0 sec)
  promolecular density results
     # of electrons  =    141.001742024
     EX              =   -430.278299066
     EC              =     -7.462501433
     EX+EC           =   -437.740800499
Transforming the Hamiltonian                       ... done (   0.0 sec)
Diagonalizing the Hamiltonian                      ... done (   0.0 sec)
Back transforming the eigenvectors                 ... done (   0.0 sec)
Now organizing SCF variables                       ... done
                      ------------------
                      INITIAL GUESS DONE (   1.6 sec)
                      ------------------
--------------
SCF ITERATIONS
--------------
ITER       Energy         Delta-E        Max-DP      RMS-DP      [F,P]     Damp
               ***  Starting incremental Fock matrix formation  ***
  0   -440.5182623041   0.000000000000 0.10852400  0.00205243  0.5250238 0.7000
  1   -440.6186079864  -0.100345682379 0.06406844  0.00125465  0.3503756 0.7000
  2   -440.6618488664  -0.043240879961 0.04129470  0.00063780  0.2347174 0.7000
                               ***Turning on DIIS***
  3   -440.6877902755  -0.025941409127 0.02475811  0.00034168  0.1602817 0.7000
  4   -440.7057851225  -0.017994846940 0.01534878  0.00021198  0.1110954 0.7000
  5   -440.7184330709  -0.012647948413 0.03797742  0.00056371  0.0786717 0.0000
  6   -440.7483004816  -0.029867410746 0.00313657  0.00008148  0.0017989 0.0000
  7   -440.7483516906  -0.000051208944 0.00199141  0.00004342  0.0013327 0.0000
  8   -440.7483750200  -0.000023329451 0.00412529  0.00008734  0.0009373 0.0000
  9   -440.7483962673  -0.000021247273 0.00111715  0.00001397  0.0001284 0.0000
                 **** Energy Check signals convergence ****

               *****************************************************
               *                     SUCCESS                       *
               *           SCF CONVERGED AFTER  10 CYCLES          *
               *****************************************************


Setting up the DFT-NL grid :

General Integration Accuracy     IntAcc      ...  4.340
Radial Grid Type                 RadialGrid  ... Gauss-Chebyshev
Angular Grid (max. acc.)         AngularGrid ... Lebedev-110
Angular grid pruning method      GridPruning ... 3 (G Style)
Weight generation scheme         WeightScheme... Becke
Basis function cutoff            BFCut       ...    1.0000e-10
Integration weight cutoff        WCut        ...    1.0000e-14
Grids for H and He will be reduced by one unit

# of grid points (after initial pruning)     ...   9774 (   0.0 sec)
# of grid points (after weights+screening)   ...   9710 (   0.0 sec)
nearest neighbour list constructed           ...    0.0 sec
Grid point re-assignment to atoms done       ...    0.0 sec
Grid point division into batches done        ...    0.0 sec
Reduced shell lists constructed in    0.0 sec

Total number of grid points                  ...     9710
Total number of batches                      ...      153
Average number of points per batch           ...       63
Average number of grid points per atom       ...     3237
Average number of shells per batch           ...    16.12 (33.59%)
Average number of basis functions per batch  ...    46.12 (27.46%)
Average number of large shells per batch     ...    13.00 (80.62%)
Average number of large basis fcns per batch ...    33.50 (72.63%)
Maximum spatial batch extension              ...  48.08, 37.49,  4.61 au
Average spatial batch extension              ...   1.11,  0.98,  0.19 au

Final grid set up in    0.0 sec

-------------------------------------------------------------------------------
                         DFT-NL dispersion correction                          
-------------------------------------------------------------------------------

SC Energy -440.748396632 
NL    Energy 0.217440492 
SC+NL Energy -440.530956140 
NL done in    0.0 sec
-------------------------------------------------------------------------------

----------------
TOTAL SCF ENERGY
----------------

Total Energy       :         -440.53095614 Eh          -11987.45675 eV

Components:
Nuclear Repulsion  :          181.63731008 Eh            4942.60248 eV
Electronic Energy  :         -622.16826622 Eh          -16930.05923 eV
One Electron Energy:        -1136.27221407 Eh          -30919.53886 eV
Two Electron Energy:          514.10394785 Eh           13989.47963 eV

Virial components:
Potential Energy   :         -609.88629538 Eh          -16595.84981 eV
Kinetic Energy     :          169.35533924 Eh            4608.39307 eV
Virial Ratio       :            3.60122272


DFT components:
N(Alpha)           :       27.999976198406 electrons
N(Beta)            :       27.999976198406 electrons
N(Total)           :       55.999952396811 electrons
E(X)               :      -26.807005855397 Eh       
E(C)               :       -2.050934233781 Eh       
NL Energy, E(C,NL) :        0.217440491584 Eh       
E(XC)              :      -28.640499597594 Eh       
DFET-embed. en.    :        0.000000000000 Eh       

---------------
SCF CONVERGENCE
---------------

  Last Energy change         ...   -3.6438e-07  Tolerance :   1.0000e-06
  Last MAX-Density change    ...    1.4650e-04  Tolerance :   1.0000e-05
  Last RMS-Density change    ...    2.4952e-06  Tolerance :   1.0000e-06
  Last DIIS Error            ...    1.3438e-04  Tolerance :   1.0000e-06

             **** THE GBW FILE WAS UPDATED (Ag03C1_LIN.gbw) ****
             **** DENSITY FILE WAS UPDATED (Ag03C1_LIN.scfp) ****
             **** ENERGY FILE WAS UPDATED (Ag03C1_LIN.en.tmp) ****
             **** THE GBW FILE WAS UPDATED (Ag03C1_LIN.gbw) ****
             **** DENSITY FILE WAS UPDATED (Ag03C1_LIN.scfp) ****
----------------
ORBITAL ENERGIES
----------------

  NO   OCC          E(Eh)            E(eV) 
   0   2.0000      -4.067220      -110.6747 
   1   2.0000      -4.067220      -110.6747 
   2   2.0000      -4.017293      -109.3161 
   3   2.0000      -2.656468       -72.2862 
   4   2.0000      -2.656255       -72.2804 
   5   2.0000      -2.654209       -72.2247 
   6   2.0000      -2.654209       -72.2247 
   7   2.0000      -2.654185       -72.2240 
   8   2.0000      -2.654185       -72.2240 
   9   2.0000      -2.608549       -70.9822 
  10   2.0000      -2.600828       -70.7721 
  11   2.0000      -2.600828       -70.7721 
  12   2.0000      -0.668900       -18.2017 
  13   2.0000      -0.647192       -17.6110 
  14   2.0000      -0.647192       -17.6110 
  15   2.0000      -0.640570       -17.4308 
  16   2.0000      -0.638252       -17.3677 
  17   2.0000      -0.638252       -17.3677 
  18   2.0000      -0.634827       -17.2745 
  19   2.0000      -0.634827       -17.2745 
  20   2.0000      -0.634494       -17.2655 
  21   2.0000      -0.634494       -17.2654 
  22   2.0000      -0.578387       -15.7387 
  23   2.0000      -0.578385       -15.7387 
  24   2.0000      -0.577750       -15.7214 
  25   2.0000      -0.577750       -15.7214 
  26   2.0000      -0.571467       -15.5504 
  27   2.0000      -0.442824       -12.0499 
  28   0.0000      -0.254098        -6.9144 
  29   0.0000      -0.159822        -4.3490 
  30   0.0000      -0.127945        -3.4816 
  31   0.0000      -0.127945        -3.4816 
  32   0.0000      -0.099783        -2.7152 
  33   0.0000      -0.090315        -2.4576 
  34   0.0000      -0.090315        -2.4576 
  35   0.0000      -0.028013        -0.7623 
  36   0.0000      -0.028013        -0.7623 
  37   0.0000      -0.014626        -0.3980 
  38   0.0000       0.000417         0.0113 
  39   0.0000       0.002515         0.0684 
  40   0.0000       0.046048         1.2530 
  41   0.0000       0.080163         2.1814 
  42   0.0000       0.080163         2.1814 
  43   0.0000       0.080833         2.1996 
  44   0.0000       0.114777         3.1232 
  45   0.0000       0.114777         3.1232 
  46   0.0000       0.163890         4.4597 
  47   0.0000       0.173348         4.7170 
  48   0.0000       0.173348         4.7171 
  49   0.0000       0.210219         5.7204 
  50   0.0000       0.281349         7.6559 
  51   0.0000       0.281349         7.6559 
  52   0.0000       0.312178         8.4948 
  53   0.0000       0.312178         8.4948 
  54   0.0000       0.317854         8.6492 
  55   0.0000       0.317855         8.6493 
  56   0.0000       0.353296         9.6137 
  57   0.0000       0.407683        11.0936 
  58   0.0000       0.407684        11.0936 
  59   0.0000       0.411192        11.1891 
  60   0.0000       0.411192        11.1891 
  61   0.0000       0.518437        14.1074 
  62   0.0000       0.590021        16.0553 
  63   0.0000       0.593962        16.1625 
  64   0.0000       0.593962        16.1625 
  65   0.0000       0.671417        18.2702 
  66   0.0000       1.386928        37.7402 
  67   0.0000       1.466379        39.9022 
  68   0.0000       1.466379        39.9022 
  69   0.0000       1.501778        40.8655 
  70   0.0000       1.501794        40.8659 
  71   0.0000       1.506746        41.0007 
  72   0.0000       1.506746        41.0007 
  73   0.0000       1.506761        41.0010 
  74   0.0000       1.506761        41.0010 
  75   0.0000       1.507940        41.0331 
  76   0.0000       1.507955        41.0335 
  77   0.0000       1.517997        41.3068 
  78   0.0000       1.517997        41.3068 
  79   0.0000       1.523279        41.4505 
  80   0.0000       1.523279        41.4505 
  81   0.0000       1.529490        41.6195 
  82   0.0000       1.565601        42.6022 
  83   0.0000       1.565623        42.6028 
  84   0.0000       1.569061        42.6963 
  85   0.0000       1.569061        42.6963 
  86   0.0000       1.570845        42.7449 
  87   0.0000       1.570845        42.7449 
  88   0.0000       1.584679        43.1213 
  89   0.0000       1.589337        43.2481 
  90   0.0000       1.589337        43.2481 
  91   0.0000       1.594518        43.3891 
  92   0.0000       1.679529        45.7023 
  93   0.0000       1.682058        45.7711 
  94   0.0000       1.682058        45.7711 
  95   0.0000       1.808978        49.2248 
  96   0.0000       1.866452        50.7887 
  97   0.0000       1.958045        53.2811 
  98   0.0000       1.958051        53.2813 
  99   0.0000       1.961568        53.3770 
 100   0.0000       1.961574        53.3771 
 101   0.0000       1.985927        54.0398 
 102   0.0000       1.985927        54.0398 
 103   0.0000       2.028999        55.2119 
 104   0.0000       2.028999        55.2119 
 105   0.0000       2.034115        55.3511 
 106   0.0000       2.034120        55.3512 
 107   0.0000       2.079158        56.5768 
 108   0.0000       2.094978        57.0072 
 109   0.0000       2.147433        58.4346 
 110   0.0000       2.147433        58.4346 
 111   0.0000       2.249947        61.2242 
 112   0.0000       2.274321        61.8874 
 113   0.0000       2.613901        71.1279 
 114   0.0000       4.738426       128.9391 
 115   0.0000       4.754619       129.3798 
 116   0.0000       4.754619       129.3798 
 117   0.0000       4.781285       130.1054 
 118   0.0000       4.781586       130.1136 
 119   0.0000       4.784628       130.1964 
 120   0.0000       4.784628       130.1964 
 121   0.0000       4.784638       130.1966 
 122   0.0000       4.784638       130.1966 
 123   0.0000       4.786543       130.2485 
 124   0.0000       4.786838       130.2565 
 125   0.0000       4.824713       131.2871 
 126   0.0000       4.824713       131.2871 
 127   0.0000       4.838669       131.6669 
 128   0.0000       4.838718       131.6682 
 129   0.0000       4.838718       131.6682 
 130   0.0000       4.839102       131.6787 
 131   0.0000       4.900034       133.3367 
 132   0.0000       4.900034       133.3367 
 133   0.0000       4.940997       134.4514 
 134   0.0000       5.098942       138.7493 
 135   0.0000       5.504332       149.7805 
 136   0.0000       5.504332       149.7805 
 137   0.0000       5.504525       149.7857 
 138   0.0000       5.504670       149.7897 
 139   0.0000       5.504847       149.7945 
 140   0.0000       5.504992       149.7984 
 141   0.0000       5.505571       149.8142 
 142   0.0000       5.505571       149.8142 
 143   0.0000       5.505649       149.8163 
 144   0.0000       5.505649       149.8163 
 145   0.0000       5.505781       149.8199 
 146   0.0000       5.505781       149.8199 
 147   0.0000       5.506445       149.8380 
 148   0.0000       5.506446       149.8380 
 149   0.0000       5.506913       149.8507 
 150   0.0000       5.506913       149.8507 
 151   0.0000       5.508593       149.8964 
 152   0.0000       5.509145       149.9115 
 153   0.0000       5.558889       151.2651 
 154   0.0000       5.559080       151.2702 
 155   0.0000       5.559080       151.2702 
 156   0.0000       5.559120       151.2713 
 157   0.0000       5.562844       151.3727 
 158   0.0000       5.562844       151.3727 
 159   0.0000       5.567396       151.4966 
 160   0.0000       5.568057       151.5145 
 161   0.0000       5.572718       151.6414 
 162   0.0000      33.315817       906.5695 
 163   0.0000      33.450814       910.2429 
 164   0.0000      33.863716       921.4786 
 165   0.0000     110.641312      3010.7032 
 166   0.0000     110.680275      3011.7634 
 167   0.0000     110.841577      3016.1526 

                    ********************************
                    * MULLIKEN POPULATION ANALYSIS *
                    ********************************

-----------------------
MULLIKEN ATOMIC CHARGES
-----------------------
   0 Ag:   -0.126650
   1 Ag:    0.563327
   2 Ag:    0.563323
Sum of atomic charges:    1.0000000

--------------------------------
MULLIKEN REDUCED ORBITAL CHARGES
--------------------------------
  0 Ags       :     3.150204  s :     3.150204
      pz      :     2.001260  p :     6.014809
      px      :     2.006774
      py      :     2.006774
      dz2     :     1.983474  d :     9.960011
      dxz     :     1.988572
      dyz     :     1.988572
      dx2y2   :     1.999697
      dxy     :     1.999697
      f0      :     0.000842  f :     0.001595
      f+1     :     0.000354
      f-1     :     0.000354
      f+2     :     0.000023
      f-2     :     0.000023
      f+3     :     0.000000
      f-3     :     0.000000
      g0      :     0.000013  g :     0.000030
      g+1     :     0.000007
      g-1     :     0.000007
      g+2     :     0.000001
      g-2     :     0.000001
      g+3     :     0.000000
      g-3     :     0.000000
      g+4     :     0.000000
      g-4     :     0.000000
  1 Ags       :     2.390829  s :     2.390829
      pz      :     2.057835  p :     6.067795
      px      :     2.004980
      py      :     2.004980
      dz2     :     1.982951  d :     9.977034
      dxz     :     1.996931
      dyz     :     1.996931
      dx2y2   :     2.000110
      dxy     :     2.000110
      f0      :     0.000480  f :     0.001003
      f+1     :     0.000233
      f-1     :     0.000233
      f+2     :     0.000029
      f-2     :     0.000029
      f+3     :     0.000000
      f-3     :     0.000000
      g0      :     0.000006  g :     0.000012
      g+1     :     0.000003
      g-1     :     0.000003
      g+2     :     0.000000
      g-2     :     0.000000
      g+3     :     0.000000
      g-3     :     0.000000
      g+4     :     0.000000
      g-4     :     0.000000
  2 Ags       :     2.390833  s :     2.390833
      pz      :     2.057836  p :     6.067796
      px      :     2.004980
      py      :     2.004980
      dz2     :     1.982951  d :     9.977034
      dxz     :     1.996931
      dyz     :     1.996931
      dx2y2   :     2.000110
      dxy     :     2.000110
      f0      :     0.000480  f :     0.001003
      f+1     :     0.000233
      f-1     :     0.000233
      f+2     :     0.000029
      f-2     :     0.000029
      f+3     :     0.000000
      f-3     :     0.000000
      g0      :     0.000006  g :     0.000012
      g+1     :     0.000003
      g-1     :     0.000003
      g+2     :     0.000000
      g-2     :     0.000000
      g+3     :     0.000000
      g-3     :     0.000000
      g+4     :     0.000000
      g-4     :     0.000000


                     *******************************
                     * LOEWDIN POPULATION ANALYSIS *
                     *******************************

----------------------
LOEWDIN ATOMIC CHARGES
----------------------
   0 Ag:    0.100363
   1 Ag:    0.449819
   2 Ag:    0.449818

-------------------------------
LOEWDIN REDUCED ORBITAL CHARGES
-------------------------------
  0 Ags       :     2.892945  s :     2.892945
      pz      :     2.025950  p :     6.045245
      px      :     2.009648
      py      :     2.009648
      dz2     :     1.993467  d :     9.959139
      dxz     :     1.983156
      dyz     :     1.983156
      dx2y2   :     1.999680
      dxy     :     1.999680
      f0      :     0.001225  f :     0.002274
      f+1     :     0.000495
      f-1     :     0.000495
      f+2     :     0.000030
      f-2     :     0.000030
      f+3     :     0.000000
      f-3     :     0.000000
      g0      :     0.000015  g :     0.000034
      g+1     :     0.000008
      g-1     :     0.000008
      g+2     :     0.000001
      g-2     :     0.000001
      g+3     :     0.000000
      g-3     :     0.000000
      g+4     :     0.000000
      g-4     :     0.000000
  1 Ags       :     2.411261  s :     2.411261
      pz      :     2.133442  p :     6.148034
      px      :     2.007296
      py      :     2.007296
      dz2     :     1.997796  d :     9.989421
      dxz     :     1.995701
      dyz     :     1.995701
      dx2y2   :     2.000111
      dxy     :     2.000111
      f0      :     0.000692  f :     0.001450
      f+1     :     0.000345
      f-1     :     0.000345
      f+2     :     0.000033
      f-2     :     0.000033
      f+3     :     0.000000
      f-3     :     0.000000
      g0      :     0.000007  g :     0.000016
      g+1     :     0.000004
      g-1     :     0.000004
      g+2     :     0.000000
      g-2     :     0.000000
      g+3     :     0.000000
      g-3     :     0.000000
      g+4     :     0.000000
      g-4     :     0.000000
  2 Ags       :     2.411261  s :     2.411261
      pz      :     2.133442  p :     6.148035
      px      :     2.007296
      py      :     2.007296
      dz2     :     1.997796  d :     9.989421
      dxz     :     1.995701
      dyz     :     1.995701
      dx2y2   :     2.000111
      dxy     :     2.000111
      f0      :     0.000692  f :     0.001450
      f+1     :     0.000345
      f-1     :     0.000345
      f+2     :     0.000033
      f-2     :     0.000033
      f+3     :     0.000000
      f-3     :     0.000000
      g0      :     0.000007  g :     0.000016
      g+1     :     0.000004
      g-1     :     0.000004
      g+2     :     0.000000
      g-2     :     0.000000
      g+3     :     0.000000
      g-3     :     0.000000
      g+4     :     0.000000
      g-4     :     0.000000


                      *****************************
                      * MAYER POPULATION ANALYSIS *
                      *****************************

  NA   - Mulliken gross atomic population
  ZA   - Total nuclear charge
  QA   - Mulliken gross atomic charge
  VA   - Mayer's total valence
  BVA  - Mayer's bonded valence
  FA   - Mayer's free valence

  ATOM       NA         ZA         QA         VA         BVA        FA
  0 Ag    19.1266    19.0000    -0.1266     1.1017     1.1017     0.0000
  1 Ag    18.4367    19.0000     0.5633     0.7617     0.7617     0.0000
  2 Ag    18.4367    19.0000     0.5633     0.7618     0.7618     0.0000

  Mayer bond orders larger than 0.100000
B(  0-Ag,  1-Ag) :   0.5508 B(  0-Ag,  2-Ag) :   0.5508 B(  1-Ag,  2-Ag) :   0.2109 


-------
TIMINGS
-------

Total SCF time: 0 days 0 hours 0 min 6 sec 

Total time                  ....       6.945 sec
Sum of individual times     ....       6.735 sec  ( 97.0%)

Fock matrix formation       ....       5.009 sec  ( 72.1%)
  XC integration            ....       0.404 sec  (  8.1% of F)
    Basis function eval.    ....       0.034 sec  (  8.4% of XC)
    Density eval.           ....       0.046 sec  ( 11.3% of XC)
    XC-Functional eval.     ....       0.022 sec  (  5.5% of XC)
    XC-Potential eval.      ....       0.087 sec  ( 21.6% of XC)
Diagonalization             ....       0.038 sec  (  0.5%)
Density matrix formation    ....       0.007 sec  (  0.1%)
Population analysis         ....       0.004 sec  (  0.1%)
Initial guess               ....       1.315 sec  ( 18.9%)
Orbital Transformation      ....       0.000 sec  (  0.0%)
Orbital Orthonormalization  ....       0.000 sec  (  0.0%)
DIIS solution               ....       0.016 sec  (  0.2%)
Grid generation             ....       0.347 sec  (  5.0%)

-------------------------   --------------------
FINAL SINGLE POINT ENERGY      -440.530956140084
-------------------------   --------------------


                            ***************************************
                            *     ORCA property calculations      *
                            ***************************************

                                    ---------------------
                                    Active property flags
                                    ---------------------
   (+) Dipole Moment


------------------------------------------------------------------------------
                       ORCA ELECTRIC PROPERTIES CALCULATION
------------------------------------------------------------------------------

Dipole Moment Calculation                       ... on
Quadrupole Moment Calculation                   ... off
Polarizability Calculation                      ... off
GBWName                                         ... Ag03C1_LIN.gbw
Electron density file                           ... Ag03C1_LIN.scfp
The origin for moment calculation is the CENTER OF MASS  = ( 0.000000,  0.000000  0.000000)

-------------
DIPOLE MOMENT
-------------
                                X             Y             Z
Electronic contribution:      0.00000      -0.00000      -0.00000
Nuclear contribution   :      0.00000       0.00000       0.00000
                        -----------------------------------------
Total Dipole Moment    :      0.00000      -0.00000      -0.00000
                        -----------------------------------------
Magnitude (a.u.)       :      0.00000
Magnitude (Debye)      :      0.00000



--------------------
Rotational spectrum 
--------------------
 
Rotational constants in cm-1:     0.000000     0.011303     0.011303 
Rotational constants in MHz :     0.000000   338.844445   338.844445 

 Dipole components along the rotational axes: 
x,y,z [a.u.] :    -0.000000    -0.000000     0.000000 
x,y,z [Debye]:    -0.000000    -0.000000     0.000000 

 

Timings for individual modules:

Sum of individual times         ...        8.212 sec (=   0.137 min)
GTO integral calculation        ...        0.906 sec (=   0.015 min)  11.0 %
SCF iterations                  ...        7.306 sec (=   0.122 min)  89.0 %
                             ****ORCA TERMINATED NORMALLY****
TOTAL RUN TIME: 0 days 0 hours 0 minutes 8 seconds 658 msec
