
                                 *****************
                                 * O   R   C   A *
                                 *****************

           --- An Ab Initio, DFT and Semiempirical electronic structure package ---

                  #######################################################
                  #                        -***-                        #
                  #          Department of theory and spectroscopy      #
                  #               Directorship: Frank Neese             #
                  #        Max Planck Institute fuer Kohlenforschung    #
                  #                Kaiser Wilhelm Platz 1               #
                  #                 D-45470 Muelheim/Ruhr               #
                  #                      Germany                        #
                  #                                                     #
                  #                  All rights reserved                #
                  #                        -***-                        #
                  #######################################################


                         Program Version 4.2.0 -  RELEASE  -


 With contributions from (in alphabetic order):
   Daniel Aravena         : Magnetic Suceptibility
   Michael Atanasov       : Ab Initio Ligand Field Theory (pilot matlab implementation)
   Alexander A. Auer      : GIAO ZORA, VPT2
   Ute Becker             : Parallelization
   Giovanni Bistoni       : ED, misc. LED, open-shell LED, HFLED
   Martin Brehm           : Molecular dynamics
   Dmytro Bykov           : SCF Hessian
   Vijay G. Chilkuri      : MRCI spin determinant printing, contributions to CSF-ICE
   Dipayan Datta          : RHF DLPNO-CCSD density
   Achintya Kumar Dutta   : EOM-CC, STEOM-CC
   Dmitry Ganyushin       : Spin-Orbit,Spin-Spin,Magnetic field MRCI
   Miquel Garcia          : C-PCM Hessian, Gaussian charge scheme
   Yang Guo               : DLPNO-NEVPT2, CIM, IAO-localization
   Andreas Hansen         : Spin unrestricted coupled pair/coupled cluster methods
   Benjamin Helmich-Paris : CASSCF linear response (MC-RPA)
   Lee Huntington         : MR-EOM, pCC
   Robert Izsak           : Overlap fitted RIJCOSX, COSX-SCS-MP3, EOM
   Christian Kollmar      : KDIIS, OOCD, Brueckner-CCSD(T), CCSD density
   Simone Kossmann        : Meta GGA functionals, TD-DFT gradient, OOMP2, MP2 Hessian
   Martin Krupicka        : AUTO-CI
   Lucas Lang             : DCDCAS
   Dagmar Lenk            : GEPOL surface, SMD
   Dimitrios Liakos       : Extrapolation schemes; Compound Job, initial MDCI parallelization
   Dimitrios Manganas     : Further ROCIS development; embedding schemes
   Dimitrios Pantazis     : SARC Basis sets
   Taras Petrenko         : DFT Hessian,TD-DFT gradient, ASA, ECA, R-Raman, ABS, FL, XAS/XES, NRVS
   Peter Pinski           : DLPNO-MP2, DLPNO-MP2 Gradient
   Christoph Reimann      : Effective Core Potentials
   Marius Retegan         : Local ZFS, SOC
   Christoph Riplinger    : Optimizer, TS searches, QM/MM, DLPNO-CCSD(T), (RO)-DLPNO pert. Triples
   Tobias Risthaus        : Range-separated hybrids, TD-DFT gradient, RPA, STAB
   Michael Roemelt        : Original ROCIS implementation
   Masaaki Saitow         : Open-shell DLPNO-CCSD energy and density
   Barbara Sandhoefer     : DKH picture change effects
   Avijit Sen             : IP-ROCIS
   Kantharuban Sivalingam : CASSCF convergence, NEVPT2, FIC-MRCI
   Bernardo de Souza      : ESD, SOC TD-DFT
   Georgi Stoychev        : AutoAux, RI-MP2 NMR
   Willem Van den Heuvel  : Paramagnetic NMR
   Boris Wezisla          : Elementary symmetry handling
   Frank Wennmohs         : Technical directorship


 We gratefully acknowledge several colleagues who have allowed us to
 interface, adapt or use parts of their codes:
   Stefan Grimme, W. Hujo, H. Kruse,             : VdW corrections, initial TS optimization,
                  C. Bannwarth                     DFT functionals, gCP, sTDA/sTD-DF
   Ed Valeev, F. Pavosevic, A. Kumar             : LibInt (2-el integral package), F12 methods
   Garnet Chan, S. Sharma, J. Yang, R. Olivares  : DMRG
   Ulf Ekstrom                                   : XCFun DFT Library
   Mihaly Kallay                                 : mrcc  (arbitrary order and MRCC methods)
   Andreas Klamt, Michael Diedenhofen            : otool_cosmo (COSMO solvation model)
   Jiri Pittner, Ondrej Demel                    : Mk-CCSD
   Frank Weinhold                                : gennbo (NPA and NBO analysis)
   Christopher J. Cramer and Donald G. Truhlar   : smd solvation model
   Lars Goerigk                                  : TD-DFT with DH, B97 family of functionals
   V. Asgeirsson, H. Jonsson                     : NEB implementation
   FAccTs GmbH                                   : IRC, NEB, NEB-TS, Multilevel, MM, QM/MM, CI optimization
   S Lehtola, MJT Oliveira, MAL Marques          : LibXC Library


 Your calculation uses the libint2 library for the computation of 2-el integrals
 For citations please refer to: http://libint.valeyev.net

 Your ORCA version has been built with support for libXC version: 4.2.3
 For citations please refer to: https://tddft.org/programs/libxc/

 This ORCA versions uses:
   CBLAS   interface :  Fast vector & matrix operations
   LAPACKE interface :  Fast linear algebra routines
   SCALAPACK package :  Parallel linear algebra routines


Your calculation utilizes the DFT-NL dispersion correction.
Cite in your paper:
Vydrov, O. A.; Van Voorhis, T. J. Chem. Phys. 2010, 133, 244103
Hujo, W.; Grimme, S. J. Chem. Theory Comput. 2011, 7, 3866 
   

----- Orbital basis set information -----
Your calculation utilizes the basis: def2-TZVPPD
   F. Weigend and R. Ahlrichs, Phys. Chem. Chem. Phys. 7, 3297 (2005).
   D. Rappoport and F. Furche, J. Chem. Phys. 133 134105 (2010).

----- AuxJK basis set information -----
Your calculation utilizes the auxiliary basis: def2/JK
   H-Ba, Hf-Rn: F. Weigend, J. Comput. Chem. 29, 167 (2008).

cite the ECPs for Ag [Def2-ECP] as follows:
Ce-Yb(ecp-28): M. Dolg, H. Stoll, H.Preuss, J. Chem. Phys., 1989, 90, 1730-1734.
Y-Cd(ecp-28), Hf-Hg(ecp-46): D. Andrae,U. Haeussermann, M. Dolg, H. Stoll, H. Preuss, Theor. Chim. Acta, 1990, 77, 123-141.
In-Sb(ecp-28), Tl-Bi(ecp-46): B. Metz, H. Stoll, M. Dolg, J. Chem. Phys., 2000, 113, 2563-2569.
Te-Xe(ecp-28), Po-Rn(ecp-46): K. A. Peterson, D. Figgen, E. Goll, H. Stoll, M. Dolg, J. Chem. Phys., 2003, 119, 11113-11123.
Rb(ecp-28), Cs(ecp-46): T. Leininger, A. Nicklass, W. Kuechle, H. Stoll, M. Dolg, A. Bergner, Chem. Phys. Lett., 1996, 255, 274-280.
Sr(ecp-28), Ba(ecp-46): M. Kaupp, P. V. Schleyer, H. Stoll and H. Preuss, J. Chem. Phys., 1991, 94, 1360-1366.
La(ecp-46): M. Dolg, H. Stoll, A. Savin, H. Preuss, Theor. Chim. Acta, 1989, 75, 173-194.
Lu(ecp-28): X. Cao, M. Dolg, J. Chem. Phys., 2001, 115, 7348-7355.

ECP parameters for Ag [Def2-ECP] have been obtained from:
TURBOMOLE (7.0.2)

================================================================================
                                        WARNINGS
                       Please study these warnings very carefully!
================================================================================


WARNING: your system is open-shell and RHF/RKS was chosen
  ===> : WILL SWITCH to UHF/UKS


INFO   : the flag for use of LIBINT has been found!

================================================================================
                                       INPUT FILE
================================================================================
NAME = Ag03N0_LIN.in
|  1> #
|  2> # Ag03N0_LIN wB97M-V/Def2-TZVPPD
|  3> #
|  4> ! wb97m-v def2-tzvppd def2/jk grid4 nofinalgrid
|  5> 
|  6> *xyz 0 2
|  7> Ag       0.000000    0.000000    0.000000 
|  8> Ag       0.000000    0.000000    2.592532 
|  9> Ag       0.000000    0.000000   -2.592532 
| 10> *
| 11> 
| 12> %maxcore 5000
| 13> 
| 14> %pal
| 15> nprocs = 24
| 16> end
| 17> 
| 18> 
| 19>                          ****END OF INPUT****
================================================================================

                       ****************************
                       * Single Point Calculation *
                       ****************************

---------------------------------
CARTESIAN COORDINATES (ANGSTROEM)
---------------------------------
  Ag     0.000000    0.000000    0.000000
  Ag     0.000000    0.000000    2.592532
  Ag     0.000000    0.000000   -2.592532

----------------------------
CARTESIAN COORDINATES (A.U.)
----------------------------
  NO LB      ZA    FRAG     MASS         X           Y           Z
   0 Ag   19.0000*   0   107.870    0.000000    0.000000    0.000000
   1 Ag   19.0000*   0   107.870    0.000000    0.000000    4.899175
   2 Ag   19.0000*   0   107.870    0.000000    0.000000   -4.899175
* core charge reduced due to ECP

--------------------------------
INTERNAL COORDINATES (ANGSTROEM)
--------------------------------
 Ag     0   0   0     0.000000000000     0.00000000     0.00000000
 Ag     1   0   0     2.592532000000     0.00000000     0.00000000
 Ag     1   2   0     2.592532000000   180.00000000     0.00000000

---------------------------
INTERNAL COORDINATES (A.U.)
---------------------------
 Ag     0   0   0     0.000000000000     0.00000000     0.00000000
 Ag     1   0   0     4.899175473427     0.00000000     0.00000000
 Ag     1   2   0     4.899175473427   180.00000000     0.00000000

---------------------
BASIS SET INFORMATION
---------------------
There are 1 groups of distinct atoms

 Group   1 Type Ag  : 7s7p6d2f1g contracted to 6s4p3d2f1g pattern {211111/4111/411/11/1}

Atom   0Ag   basis set group =>   1
Atom   1Ag   basis set group =>   1
Atom   2Ag   basis set group =>   1
----------------------------------
AUXILIARY/JK BASIS SET INFORMATION
----------------------------------
There are 1 groups of distinct atoms

 Group   1 Type Ag  : 13s12p10d9f6g3h2i contracted to 11s10p9d8f6g3h2i pattern {31111111111/3111111111/211111111/21111111/111111/111/11}

Atom   0Ag   basis set group =>   1
Atom   1Ag   basis set group =>   1
Atom   2Ag   basis set group =>   1
-------------------------
ECP PARAMETER INFORMATION
-------------------------

 Group 1, Type Ag ECP Def2-ECP (replacing 28 core electrons, lmax=3)

Atom   0Ag   ECP group =>   1
Atom   1Ag   ECP group =>   1
Atom   2Ag   ECP group =>   1



           ************************************************************
           *        Program running with 24 parallel MPI-processes    *
           *              working on a common directory               *
           ************************************************************
------------------------------------------------------------------------------
                           ORCA GTO INTEGRAL CALCULATION
------------------------------------------------------------------------------

                         BASIS SET STATISTICS AND STARTUP INFO

 # of primitive gaussian shells          ...   69
 # of primitive gaussian functions       ...  243
 # of contracted shells                  ...   48
 # of contracted basis functions         ...  168
 Highest angular momentum                ...    4
 Maximum contraction depth               ...    4
 Integral package used                   ... LIBINT
 Integral threshhold            Thresh   ...  1.000e-10
 Primitive cut-off              TCut     ...  1.000e-11


------------------------------ INTEGRAL EVALUATION ----------------------------


 * One electron integrals 

   ECP integrals                         ... done
 Pre-screening matrix                    ... done
 Shell pair data                         ... done (   0.000 sec)



           ************************************************************
           *        Program running with 24 parallel MPI-processes    *
           *              working on a common directory               *
           ************************************************************
-------------------------------------------------------------------------------
                                 ORCA SCF
-------------------------------------------------------------------------------

------------
SCF SETTINGS
------------
Hamiltonian:
 Density Functional     Method          .... DFT(GTOs)
 Exchange Functional    Exchange        .... WB97M-V
 Correlation Functional Correlation     .... WB97M-V
 Gradients option       PostSCFGGA      .... off
 Hybrid DFT is turned on
   Fraction HF Exchange ScalHFX         ....  0.150000
   Scaling of DF-GGA-X  ScalDFX         ....  0.000000
   Scaling of DF-GGA-C  ScalDFC         ....  1.000000
   Scaling of DF-LDA-C  ScalLDAC        ....  1.000000
   Perturbative correction              ....  0.000000
   Density functional embedding theory  .... OFF
 Long-range corrected/Screened/Range-Separated Hybrid DFT is turned on
   Amount of maximum screened exact exchange              ....  0.850000
   Range separation parameter mu (erf(mu*r12)/r12)        ....  0.300000
   NL short-range parameter             ....  6.000000
   NL long-range parameter              ....  0.010000


General Settings:
 Integral files         IntName         .... Ag03N0_LIN
 Hartree-Fock type      HFTyp           .... UHF
 Total Charge           Charge          ....    0
 Multiplicity           Mult            ....    2
 Number of Electrons    NEL             ....   57
 Basis Dimension        Dim             ....  168
 Nuclear Repulsion      ENuc            ....    184.2146714065 Eh

Convergence Acceleration:
 DIIS                   CNVDIIS         .... on
   Start iteration      DIISMaxIt       ....    12
   Startup error        DIISStart       ....  0.200000
   # of expansion vecs  DIISMaxEq       ....     5
   Bias factor          DIISBfac        ....   1.050
   Max. coefficient     DIISMaxC        ....  10.000
 Newton-Raphson         CNVNR           .... off
 SOSCF                  CNVSOSCF        .... off
 Level Shifting         CNVShift        .... on
   Level shift para.    LevelShift      ....    0.2500
   Turn off err/grad.   ShiftErr        ....    0.0010
 Zerner damping         CNVZerner       .... off
 Static damping         CNVDamp         .... on
   Fraction old density DampFac         ....    0.7000
   Max. Damping (<1)    DampMax         ....    0.9800
   Min. Damping (>=0)   DampMin         ....    0.0000
   Turn off err/grad.   DampErr         ....    0.1000
 Fernandez-Rico         CNVRico         .... off

SCF Procedure:
 Maximum # iterations   MaxIter         ....   125
 SCF integral mode      SCFMode         .... Direct
   Integral package                     .... LIBINT
 Reset frequency        DirectResetFreq ....    20
 Integral Threshold     Thresh          ....  1.000e-10 Eh
 Primitive CutOff       TCut            ....  1.000e-11 Eh

Convergence Tolerance:
 Convergence Check Mode ConvCheckMode   .... Total+1el-Energy
 Convergence forced     ConvForced      .... 0
 Energy Change          TolE            ....  1.000e-06 Eh
 1-El. energy change                    ....  1.000e-03 Eh
 DIIS Error             TolErr          ....  1.000e-06


Diagonalization of the overlap matrix:
Smallest eigenvalue                        ... 1.205e-03
Time for diagonalization                   ...    0.005 sec
Threshold for overlap eigenvalues          ... 1.000e-08
Number of eigenvalues below threshold      ... 0
Time for construction of square roots      ...    0.003 sec
Total time needed                          ...    0.008 sec

-------------------
DFT GRID GENERATION
-------------------

General Integration Accuracy     IntAcc      ...  4.670
Radial Grid Type                 RadialGrid  ... Gauss-Chebyshev
Angular Grid (max. acc.)         AngularGrid ... Lebedev-302
Angular grid pruning method      GridPruning ... 3 (G Style)
Weight generation scheme         WeightScheme... Becke
Basis function cutoff            BFCut       ...    1.0000e-10
Integration weight cutoff        WCut        ...    1.0000e-14
Grids for H and He will be reduced by one unit

# of grid points (after initial pruning)     ...  31974 (   0.0 sec)
# of grid points (after weights+screening)   ...  31762 (   0.0 sec)
nearest neighbour list constructed           ...    0.0 sec
Grid point re-assignment to atoms done       ...    0.0 sec
Grid point division into batches done        ...    0.3 sec
Reduced shell lists constructed in    0.3 sec

Total number of grid points                  ...    31762
Total number of batches                      ...      498
Average number of points per batch           ...       63
Average number of grid points per atom       ...    10587
Average number of shells per batch           ...    11.91 (24.81%)
Average number of basis functions per batch  ...    30.45 (18.13%)
Average number of large shells per batch     ...     9.77 (82.06%)
Average number of large basis fcns per batch ...    24.32 (79.85%)
Maximum spatial batch extension              ...  36.77, 36.77,  4.81 au
Average spatial batch extension              ...   0.55,  0.56,  0.20 au

Time for grid setup =    0.316 sec

------------------------------
INITIAL GUESS: MODEL POTENTIAL
------------------------------
Loading Hartree-Fock densities                     ... done
  calling /sw/apps/orca/orca_4_2_0_linux_x86-64_openmpi314/orca Ag03N0_LIN_atom47.inp > Ag03N0_LIN_atom47.out in order to generate an atomic fitting density for atom 0 (Ag with ECP) on-the-fly... 
    atom 0 (Ag), assumed electronic state with S=2: 1s2 2s2 2p6 3s2 3p6 4s2 3d10 4p6 5s2 4d9           ... done
Calculating cut-offs                               ... done
Setting up the integral package                    ... done
Initializing the effective Hamiltonian             ... done
Starting the Coulomb interaction                   ... done (   0.0 sec)
Reading the grid                                   ... done
Mapping shells                                     ... done
Starting the XC term evaluation                    ... done (   0.0 sec)
  promolecular density results
     # of electrons  =    141.001771318
     EX              =   -430.283861762
     EC              =     -7.463897503
     EX+EC           =   -437.747759264
Transforming the Hamiltonian                       ... done (   0.0 sec)
Diagonalizing the Hamiltonian                      ... done (   0.0 sec)
Back transforming the eigenvectors                 ... done (   0.0 sec)
Now organizing SCF variables                       ... done
                      ------------------
                      INITIAL GUESS DONE (   1.7 sec)
                      ------------------
--------------
SCF ITERATIONS
--------------
ITER       Energy         Delta-E        Max-DP      RMS-DP      [F,P]     Damp
               ***  Starting incremental Fock matrix formation  ***
  0   -440.7061629531   0.000000000000 0.05902096  0.00133171  0.5171091 0.7000
  1   -440.8342983959  -0.128135442810 0.05314409  0.00093264  0.3426865 0.7000
  2   -440.8884169282  -0.054118532290 0.03779269  0.00053807  0.2283082 0.7000
                               ***Turning on DIIS***
  3   -440.9209777273  -0.032560799104 0.02617244  0.00031576  0.1556831 0.7000
  4   -440.9438467720  -0.022869044695 0.01988959  0.00020742  0.1080557 0.7000
  5   -440.9600502181  -0.016203446027 0.05511650  0.00054701  0.0766459 0.0000
  6   -440.9985316844  -0.038481466373 0.00844168  0.00008044  0.0015744 0.0000
  7   -440.9986127121  -0.000081027697 0.00421722  0.00004039  0.0010627 0.0000
  8   -440.9986500877  -0.000037375629 0.00825716  0.00007955  0.0005470 0.0000
  9   -440.9986569309  -0.000006843133 0.00248504  0.00002743  0.0001294 0.0000
 10   -440.9986428611   0.000014069823 0.00089088  0.00000816  0.0000868 0.0000
 11   -440.9986364400   0.000006421072 0.00150885  0.00001353  0.0000602 0.0000
 12   -440.9986246350   0.000011805015 0.00107078  0.00000971  0.0000360 0.0000
 13   -440.9986146140   0.000010020945 0.00012796  0.00000114  0.0000102 0.0000
 14   -440.9986130189   0.000001595134 0.00002686  0.00000030  0.0000084 0.0000
                 **** Energy Check signals convergence ****

               *****************************************************
               *                     SUCCESS                       *
               *           SCF CONVERGED AFTER  15 CYCLES          *
               *****************************************************


Setting up the DFT-NL grid :

General Integration Accuracy     IntAcc      ...  4.340
Radial Grid Type                 RadialGrid  ... Gauss-Chebyshev
Angular Grid (max. acc.)         AngularGrid ... Lebedev-110
Angular grid pruning method      GridPruning ... 3 (G Style)
Weight generation scheme         WeightScheme... Becke
Basis function cutoff            BFCut       ...    1.0000e-10
Integration weight cutoff        WCut        ...    1.0000e-14
Grids for H and He will be reduced by one unit

# of grid points (after initial pruning)     ...   9774 (   0.0 sec)
# of grid points (after weights+screening)   ...   9710 (   0.0 sec)
nearest neighbour list constructed           ...    0.0 sec
Grid point re-assignment to atoms done       ...    0.0 sec
Grid point division into batches done        ...    0.0 sec
Reduced shell lists constructed in    0.0 sec

Total number of grid points                  ...     9710
Total number of batches                      ...      152
Average number of points per batch           ...       63
Average number of grid points per atom       ...     3237
Average number of shells per batch           ...    16.12 (33.59%)
Average number of basis functions per batch  ...    46.12 (27.46%)
Average number of large shells per batch     ...    13.12 (81.40%)
Average number of large basis fcns per batch ...    33.88 (73.44%)
Maximum spatial batch extension              ...  48.08, 37.49,  4.75 au
Average spatial batch extension              ...   1.11,  0.98,  0.20 au

Final grid set up in    0.0 sec

-------------------------------------------------------------------------------
                         DFT-NL dispersion correction                          
-------------------------------------------------------------------------------

SC Energy -440.998612660 
NL    Energy 0.218582066 
SC+NL Energy -440.780030594 
NL done in    0.0 sec
-------------------------------------------------------------------------------

----------------
TOTAL SCF ENERGY
----------------

Total Energy       :         -440.78003059 Eh          -11994.23441 eV

Components:
Nuclear Repulsion  :          184.21467141 Eh            5012.73605 eV
Electronic Energy  :         -624.99470200 Eh          -17006.97046 eV
One Electron Energy:        -1152.20772659 Eh          -31353.16620 eV
Two Electron Energy:          527.21302459 Eh           14346.19575 eV

Virial components:
Potential Energy   :         -609.99225362 Eh          -16598.73308 eV
Kinetic Energy     :          169.21222302 Eh            4604.49868 eV
Virial Ratio       :            3.60489475


DFT components:
N(Alpha)           :       28.999980501688 electrons
N(Beta)            :       27.999977931696 electrons
N(Total)           :       56.999958433384 electrons
E(X)               :      -26.823529744088 Eh       
E(C)               :       -2.082175196419 Eh       
NL Energy, E(C,NL) :        0.218582066240 Eh       
E(XC)              :      -28.687122874267 Eh       
DFET-embed. en.    :        0.000000000000 Eh       

---------------
SCF CONVERGENCE
---------------

  Last Energy change         ...    3.5849e-07  Tolerance :   1.0000e-06
  Last MAX-Density change    ...    4.1971e-05  Tolerance :   1.0000e-05
  Last RMS-Density change    ...    4.0668e-07  Tolerance :   1.0000e-06
  Last DIIS Error            ...    2.8233e-06  Tolerance :   1.0000e-06

             **** THE GBW FILE WAS UPDATED (Ag03N0_LIN.gbw) ****
             **** DENSITY FILE WAS UPDATED (Ag03N0_LIN.scfp) ****
             **** ENERGY FILE WAS UPDATED (Ag03N0_LIN.en.tmp) ****
----------------------
UHF SPIN CONTAMINATION
----------------------

Warning: in a DFT calculation there is little theoretical justification to 
         calculate <S**2> as in Hartree-Fock theory. We will do it anyways
         but you should keep in mind that the values have only limited relevance

Expectation value of <S**2>     :     0.776443
Ideal value S*(S+1) for S=0.5   :     0.750000
Deviation                       :     0.026443

             **** THE GBW FILE WAS UPDATED (Ag03N0_LIN.gbw) ****
             **** DENSITY FILE WAS UPDATED (Ag03N0_LIN.scfp) ****
----------------
ORBITAL ENERGIES
----------------
                 SPIN UP ORBITALS
  NO   OCC          E(Eh)            E(eV) 
   0   1.0000      -3.868418      -105.2650 
   1   1.0000      -3.868414      -105.2649 
   2   1.0000      -3.849367      -104.7466 
   3   1.0000      -2.457811       -66.8804 
   4   1.0000      -2.457004       -66.8585 
   5   1.0000      -2.453929       -66.7748 
   6   1.0000      -2.453929       -66.7748 
   7   1.0000      -2.453926       -66.7747 
   8   1.0000      -2.453926       -66.7747 
   9   1.0000      -2.438104       -66.3442 
  10   1.0000      -2.433795       -66.2269 
  11   1.0000      -2.433795       -66.2269 
  12   1.0000      -0.483034       -13.1440 
  13   1.0000      -0.458043       -12.4640 
  14   1.0000      -0.458043       -12.4640 
  15   1.0000      -0.442268       -12.0347 
  16   1.0000      -0.440241       -11.9796 
  17   1.0000      -0.440241       -11.9796 
  18   1.0000      -0.436488       -11.8774 
  19   1.0000      -0.436487       -11.8774 
  20   1.0000      -0.435450       -11.8492 
  21   1.0000      -0.435449       -11.8492 
  22   1.0000      -0.411583       -11.1997 
  23   1.0000      -0.411582       -11.1997 
  24   1.0000      -0.398975       -10.8567 
  25   1.0000      -0.398975       -10.8567 
  26   1.0000      -0.391425       -10.6512 
  27   1.0000      -0.302752        -8.2383 
  28   1.0000      -0.254631        -6.9289 
  29   0.0000      -0.013587        -0.3697 
  30   0.0000       0.017691         0.4814 
  31   0.0000       0.017691         0.4814 
  32   0.0000       0.041699         1.1347 
  33   0.0000       0.051339         1.3970 
  34   0.0000       0.051339         1.3970 
  35   0.0000       0.109970         2.9924 
  36   0.0000       0.109970         2.9924 
  37   0.0000       0.115244         3.1360 
  38   0.0000       0.128164         3.4875 
  39   0.0000       0.143155         3.8955 
  40   0.0000       0.186691         5.0801 
  41   0.0000       0.218363         5.9420 
  42   0.0000       0.226122         6.1531 
  43   0.0000       0.226122         6.1531 
  44   0.0000       0.261584         7.1181 
  45   0.0000       0.261584         7.1181 
  46   0.0000       0.309489         8.4216 
  47   0.0000       0.326862         8.8944 
  48   0.0000       0.326862         8.8944 
  49   0.0000       0.376246        10.2382 
  50   0.0000       0.447659        12.1814 
  51   0.0000       0.447659        12.1814 
  52   0.0000       0.488255        13.2861 
  53   0.0000       0.488255        13.2861 
  54   0.0000       0.490229        13.3398 
  55   0.0000       0.490230        13.3398 
  56   0.0000       0.528736        14.3876 
  57   0.0000       0.573949        15.6179 
  58   0.0000       0.573952        15.6180 
  59   0.0000       0.585887        15.9428 
  60   0.0000       0.585887        15.9428 
  61   0.0000       0.690973        18.8023 
  62   0.0000       0.767198        20.8765 
  63   0.0000       0.768199        20.9038 
  64   0.0000       0.768199        20.9038 
  65   0.0000       0.835595        22.7377 
  66   0.0000       1.547112        42.0990 
  67   0.0000       1.650575        44.9144 
  68   0.0000       1.650575        44.9144 
  69   0.0000       1.697830        46.2003 
  70   0.0000       1.697842        46.2006 
  71   0.0000       1.708336        46.4862 
  72   0.0000       1.708336        46.4862 
  73   0.0000       1.708388        46.4876 
  74   0.0000       1.708388        46.4876 
  75   0.0000       1.708954        46.5030 
  76   0.0000       1.708964        46.5033 
  77   0.0000       1.710407        46.5425 
  78   0.0000       1.710407        46.5425 
  79   0.0000       1.712887        46.6100 
  80   0.0000       1.712887        46.6100 
  81   0.0000       1.714458        46.6528 
  82   0.0000       1.734358        47.1943 
  83   0.0000       1.734358        47.1943 
  84   0.0000       1.740291        47.3557 
  85   0.0000       1.740306        47.3561 
  86   0.0000       1.744390        47.4673 
  87   0.0000       1.744390        47.4673 
  88   0.0000       1.772773        48.2396 
  89   0.0000       1.785662        48.5903 
  90   0.0000       1.790313        48.7169 
  91   0.0000       1.790313        48.7169 
  92   0.0000       1.863054        50.6963 
  93   0.0000       1.863054        50.6963 
  94   0.0000       1.883500        51.2526 
  95   0.0000       2.001540        54.4647 
  96   0.0000       2.048306        55.7372 
  97   0.0000       2.146250        58.4024 
  98   0.0000       2.146261        58.4027 
  99   0.0000       2.155493        58.6539 
 100   0.0000       2.155504        58.6543 
 101   0.0000       2.170484        59.0619 
 102   0.0000       2.170484        59.0619 
 103   0.0000       2.205478        60.0141 
 104   0.0000       2.205489        60.0144 
 105   0.0000       2.222141        60.4675 
 106   0.0000       2.222141        60.4675 
 107   0.0000       2.261810        61.5470 
 108   0.0000       2.294150        62.4270 
 109   0.0000       2.325781        63.2877 
 110   0.0000       2.325781        63.2877 
 111   0.0000       2.450979        66.6945 
 112   0.0000       2.481816        67.5337 
 113   0.0000       2.802372        76.2564 
 114   0.0000       4.923552       133.9766 
 115   0.0000       4.936193       134.3206 
 116   0.0000       4.936193       134.3206 
 117   0.0000       4.975980       135.4033 
 118   0.0000       4.976295       135.4119 
 119   0.0000       4.983792       135.6159 
 120   0.0000       4.983792       135.6159 
 121   0.0000       4.983831       135.6169 
 122   0.0000       4.983831       135.6169 
 123   0.0000       4.985339       135.6580 
 124   0.0000       4.985630       135.6659 
 125   0.0000       5.005043       136.1941 
 126   0.0000       5.005043       136.1941 
 127   0.0000       5.011218       136.3622 
 128   0.0000       5.011629       136.3734 
 129   0.0000       5.025559       136.7524 
 130   0.0000       5.025559       136.7524 
 131   0.0000       5.089810       138.5008 
 132   0.0000       5.089810       138.5008 
 133   0.0000       5.146379       140.0401 
 134   0.0000       5.303644       144.3195 
 135   0.0000       5.707280       155.3030 
 136   0.0000       5.707280       155.3030 
 137   0.0000       5.707565       155.3107 
 138   0.0000       5.707676       155.3138 
 139   0.0000       5.707914       155.3202 
 140   0.0000       5.708024       155.3232 
 141   0.0000       5.708135       155.3263 
 142   0.0000       5.708135       155.3263 
 143   0.0000       5.709125       155.3532 
 144   0.0000       5.709125       155.3532 
 145   0.0000       5.709128       155.3533 
 146   0.0000       5.709128       155.3533 
 147   0.0000       5.710427       155.3886 
 148   0.0000       5.710436       155.3889 
 149   0.0000       5.710931       155.4023 
 150   0.0000       5.710931       155.4023 
 151   0.0000       5.710961       155.4032 
 152   0.0000       5.712859       155.4548 
 153   0.0000       5.728178       155.8717 
 154   0.0000       5.728357       155.8765 
 155   0.0000       5.730152       155.9254 
 156   0.0000       5.730152       155.9254 
 157   0.0000       5.730417       155.9326 
 158   0.0000       5.730417       155.9326 
 159   0.0000       5.732290       155.9835 
 160   0.0000       5.732986       156.0025 
 161   0.0000       5.748991       156.4380 
 162   0.0000      33.517178       912.0488 
 163   0.0000      33.664724       916.0637 
 164   0.0000      34.059745       926.8128 
 165   0.0000     110.837823      3016.0505 
 166   0.0000     110.883388      3017.2904 
 167   0.0000     111.021079      3021.0372 

                 SPIN DOWN ORBITALS
  NO   OCC          E(Eh)            E(eV) 
   0   1.0000      -3.867171      -105.2311 
   1   1.0000      -3.867167      -105.2310 
   2   1.0000      -3.849832      -104.7593 
   3   1.0000      -2.456545       -66.8460 
   4   1.0000      -2.455732       -66.8239 
   5   1.0000      -2.452790       -66.7438 
   6   1.0000      -2.452790       -66.7438 
   7   1.0000      -2.452765       -66.7431 
   8   1.0000      -2.452765       -66.7431 
   9   1.0000      -2.438102       -66.3441 
  10   1.0000      -2.434519       -66.2466 
  11   1.0000      -2.434519       -66.2466 
  12   1.0000      -0.479066       -13.0360 
  13   1.0000      -0.454729       -12.3738 
  14   1.0000      -0.454729       -12.3738 
  15   1.0000      -0.439241       -11.9523 
  16   1.0000      -0.436781       -11.8854 
  17   1.0000      -0.436781       -11.8854 
  18   1.0000      -0.433107       -11.7854 
  19   1.0000      -0.433107       -11.7854 
  20   1.0000      -0.431855       -11.7514 
  21   1.0000      -0.431854       -11.7514 
  22   1.0000      -0.412212       -11.2169 
  23   1.0000      -0.412212       -11.2169 
  24   1.0000      -0.398577       -10.8458 
  25   1.0000      -0.398577       -10.8458 
  26   1.0000      -0.388124       -10.5614 
  27   1.0000      -0.269602        -7.3362 
  28   0.0000      -0.090782        -2.4703 
  29   0.0000      -0.032242        -0.8774 
  30   0.0000       0.003735         0.1016 
  31   0.0000       0.003736         0.1017 
  32   0.0000       0.017032         0.4635 
  33   0.0000       0.029020         0.7897 
  34   0.0000       0.029021         0.7897 
  35   0.0000       0.092293         2.5114 
  36   0.0000       0.092293         2.5114 
  37   0.0000       0.102530         2.7900 
  38   0.0000       0.102549         2.7905 
  39   0.0000       0.130628         3.5546 
  40   0.0000       0.181656         4.9431 
  41   0.0000       0.210088         5.7168 
  42   0.0000       0.229656         6.2492 
  43   0.0000       0.229656         6.2492 
  44   0.0000       0.262294         7.1374 
  45   0.0000       0.262295         7.1374 
  46   0.0000       0.301444         8.2027 
  47   0.0000       0.322982         8.7888 
  48   0.0000       0.322982         8.7888 
  49   0.0000       0.375802        10.2261 
  50   0.0000       0.441229        12.0064 
  51   0.0000       0.441230        12.0065 
  52   0.0000       0.476675        12.9710 
  53   0.0000       0.476678        12.9711 
  54   0.0000       0.482919        13.1409 
  55   0.0000       0.482919        13.1409 
  56   0.0000       0.523846        14.2546 
  57   0.0000       0.567956        15.4549 
  58   0.0000       0.567960        15.4550 
  59   0.0000       0.578320        15.7369 
  60   0.0000       0.578320        15.7369 
  61   0.0000       0.685164        18.6443 
  62   0.0000       0.763449        20.7745 
  63   0.0000       0.763449        20.7745 
  64   0.0000       0.765021        20.8173 
  65   0.0000       0.835996        22.7486 
  66   0.0000       1.549433        42.1622 
  67   0.0000       1.654051        45.0090 
  68   0.0000       1.654051        45.0090 
  69   0.0000       1.702224        46.3199 
  70   0.0000       1.702236        46.3202 
  71   0.0000       1.712202        46.5914 
  72   0.0000       1.712202        46.5914 
  73   0.0000       1.713297        46.6212 
  74   0.0000       1.713297        46.6212 
  75   0.0000       1.714403        46.6513 
  76   0.0000       1.714403        46.6513 
  77   0.0000       1.714474        46.6532 
  78   0.0000       1.714474        46.6532 
  79   0.0000       1.714648        46.6579 
  80   0.0000       1.714658        46.6582 
  81   0.0000       1.717133        46.7256 
  82   0.0000       1.733348        47.1668 
  83   0.0000       1.733348        47.1668 
  84   0.0000       1.740809        47.3698 
  85   0.0000       1.740824        47.3702 
  86   0.0000       1.743895        47.4538 
  87   0.0000       1.743895        47.4538 
  88   0.0000       1.770873        48.1879 
  89   0.0000       1.785959        48.5984 
  90   0.0000       1.793461        48.8025 
  91   0.0000       1.793461        48.8025 
  92   0.0000       1.863645        50.7123 
  93   0.0000       1.863645        50.7123 
  94   0.0000       1.885749        51.3138 
  95   0.0000       2.003628        54.5215 
  96   0.0000       2.047999        55.7289 
  97   0.0000       2.147980        58.4495 
  98   0.0000       2.147986        58.4497 
  99   0.0000       2.158277        58.7297 
 100   0.0000       2.158281        58.7298 
 101   0.0000       2.172730        59.1230 
 102   0.0000       2.172730        59.1230 
 103   0.0000       2.205339        60.0103 
 104   0.0000       2.205348        60.0106 
 105   0.0000       2.225472        60.5582 
 106   0.0000       2.225472        60.5582 
 107   0.0000       2.264146        61.6105 
 108   0.0000       2.297327        62.5134 
 109   0.0000       2.325089        63.2689 
 110   0.0000       2.325089        63.2689 
 111   0.0000       2.453514        66.7635 
 112   0.0000       2.485445        67.6324 
 113   0.0000       2.802323        76.2551 
 114   0.0000       4.925113       134.0191 
 115   0.0000       4.937774       134.3637 
 116   0.0000       4.937774       134.3637 
 117   0.0000       4.977968       135.4574 
 118   0.0000       4.978287       135.4661 
 119   0.0000       4.986138       135.6797 
 120   0.0000       4.986138       135.6797 
 121   0.0000       4.986184       135.6810 
 122   0.0000       4.986184       135.6810 
 123   0.0000       4.987892       135.7274 
 124   0.0000       4.988183       135.7353 
 125   0.0000       5.004035       136.1667 
 126   0.0000       5.004035       136.1667 
 127   0.0000       5.011274       136.3637 
 128   0.0000       5.011682       136.3748 
 129   0.0000       5.028123       136.8222 
 130   0.0000       5.028123       136.8222 
 131   0.0000       5.090858       138.5293 
 132   0.0000       5.090858       138.5293 
 133   0.0000       5.148785       140.1056 
 134   0.0000       5.304936       144.3546 
 135   0.0000       5.707721       155.3150 
 136   0.0000       5.707721       155.3150 
 137   0.0000       5.708110       155.3256 
 138   0.0000       5.708225       155.3287 
 139   0.0000       5.708458       155.3350 
 140   0.0000       5.708538       155.3372 
 141   0.0000       5.708538       155.3372 
 142   0.0000       5.708572       155.3381 
 143   0.0000       5.709832       155.3724 
 144   0.0000       5.709832       155.3724 
 145   0.0000       5.709834       155.3725 
 146   0.0000       5.709834       155.3725 
 147   0.0000       5.711193       155.4095 
 148   0.0000       5.711292       155.4122 
 149   0.0000       5.711350       155.4137 
 150   0.0000       5.711785       155.4256 
 151   0.0000       5.711785       155.4256 
 152   0.0000       5.713298       155.4667 
 153   0.0000       5.727339       155.8488 
 154   0.0000       5.727518       155.8537 
 155   0.0000       5.729300       155.9022 
 156   0.0000       5.729300       155.9022 
 157   0.0000       5.729728       155.9138 
 158   0.0000       5.729728       155.9138 
 159   0.0000       5.732024       155.9763 
 160   0.0000       5.732720       155.9953 
 161   0.0000       5.748192       156.4163 
 162   0.0000      33.517903       912.0685 
 163   0.0000      33.665595       916.0874 
 164   0.0000      34.059687       926.8112 
 165   0.0000     110.838124      3016.0587 
 166   0.0000     110.883755      3017.3004 
 167   0.0000     111.021014      3021.0354 

                    ********************************
                    * MULLIKEN POPULATION ANALYSIS *
                    ********************************

--------------------------------------------
MULLIKEN ATOMIC CHARGES AND SPIN POPULATIONS
--------------------------------------------
   0 Ag:    0.013721    0.031615
   1 Ag:   -0.006862    0.484191
   2 Ag:   -0.006859    0.484194
Sum of atomic charges         :   -0.0000000
Sum of atomic spin populations:    1.0000000

-----------------------------------------------------
MULLIKEN REDUCED ORBITAL CHARGES AND SPIN POPULATIONS
-----------------------------------------------------
CHARGE
  0 Ags       :     2.924693  s :     2.924693
      pz      :     2.090351  p :     6.110582
      px      :     2.010115
      py      :     2.010115
      dz2     :     1.976483  d :     9.949058
      dxz     :     1.986512
      dyz     :     1.986512
      dx2y2   :     1.999776
      dxy     :     1.999776
      f0      :     0.001004  f :     0.001918
      f+1     :     0.000425
      f-1     :     0.000425
      f+2     :     0.000032
      f-2     :     0.000032
      f+3     :     0.000000
      f-3     :     0.000000
      g0      :     0.000013  g :     0.000028
      g+1     :     0.000007
      g-1     :     0.000007
      g+2     :     0.000001
      g-2     :     0.000001
      g+3     :     0.000000
      g-3     :     0.000000
      g+4     :     0.000000
      g-4     :     0.000000
  1 Ags       :     2.982452  s :     2.982452
      pz      :     2.044110  p :     6.056431
      px      :     2.006161
      py      :     2.006161
      dz2     :     1.976649  d :     9.966858
      dxz     :     1.995049
      dyz     :     1.995049
      dx2y2   :     2.000056
      dxy     :     2.000056
      f0      :     0.000513  f :     0.001107
      f+1     :     0.000258
      f-1     :     0.000258
      f+2     :     0.000039
      f-2     :     0.000039
      f+3     :     0.000000
      f-3     :     0.000000
      g0      :     0.000007  g :     0.000014
      g+1     :     0.000003
      g-1     :     0.000003
      g+2     :     0.000000
      g-2     :     0.000000
      g+3     :     0.000000
      g-3     :     0.000000
      g+4     :     0.000000
      g-4     :     0.000000
  2 Ags       :     2.982449  s :     2.982449
      pz      :     2.044109  p :     6.056431
      px      :     2.006161
      py      :     2.006161
      dz2     :     1.976649  d :     9.966858
      dxz     :     1.995049
      dyz     :     1.995049
      dx2y2   :     2.000056
      dxy     :     2.000056
      f0      :     0.000513  f :     0.001107
      f+1     :     0.000258
      f-1     :     0.000258
      f+2     :     0.000039
      f-2     :     0.000039
      f+3     :     0.000000
      f-3     :     0.000000
      g0      :     0.000007  g :     0.000014
      g+1     :     0.000003
      g-1     :     0.000003
      g+2     :     0.000000
      g-2     :     0.000000
      g+3     :     0.000000
      g-3     :     0.000000
      g+4     :     0.000000
      g-4     :     0.000000

SPIN
  0 Ags       :    -0.055556  s :    -0.055556
      pz      :     0.092842  p :     0.092130
      px      :    -0.000356
      py      :    -0.000356
      dz2     :    -0.002977  d :    -0.005064
      dxz     :    -0.001077
      dyz     :    -0.001077
      dx2y2   :     0.000034
      dxy     :     0.000034
      f0      :     0.000081  f :     0.000105
      f+1     :     0.000011
      f-1     :     0.000011
      f+2     :     0.000001
      f-2     :     0.000001
      f+3     :     0.000000
      f-3     :     0.000000
      g0      :     0.000000  g :     0.000000
      g+1     :     0.000000
      g-1     :     0.000000
      g+2     :    -0.000000
      g-2     :    -0.000000
      g+3     :    -0.000000
      g-3     :    -0.000000
      g+4     :    -0.000000
      g-4     :     0.000000
  1 Ags       :     0.502068  s :     0.502068
      pz      :    -0.017500  p :    -0.016593
      px      :     0.000454
      py      :     0.000454
      dz2     :    -0.001762  d :    -0.001282
      dxz     :     0.000256
      dyz     :     0.000256
      dx2y2   :    -0.000016
      dxy     :    -0.000016
      f0      :    -0.000003  f :    -0.000002
      f+1     :     0.000002
      f-1     :     0.000002
      f+2     :    -0.000001
      f-2     :    -0.000001
      f+3     :    -0.000000
      f-3     :    -0.000000
      g0      :    -0.000000  g :    -0.000000
      g+1     :    -0.000000
      g-1     :    -0.000000
      g+2     :    -0.000000
      g-2     :    -0.000000
      g+3     :    -0.000000
      g-3     :    -0.000000
      g+4     :     0.000000
      g-4     :    -0.000000
  2 Ags       :     0.502070  s :     0.502070
      pz      :    -0.017499  p :    -0.016592
      px      :     0.000454
      py      :     0.000454
      dz2     :    -0.001762  d :    -0.001282
      dxz     :     0.000256
      dyz     :     0.000256
      dx2y2   :    -0.000016
      dxy     :    -0.000016
      f0      :    -0.000003  f :    -0.000002
      f+1     :     0.000002
      f-1     :     0.000002
      f+2     :    -0.000001
      f-2     :    -0.000001
      f+3     :    -0.000000
      f-3     :    -0.000000
      g0      :    -0.000000  g :    -0.000000
      g+1     :    -0.000000
      g-1     :    -0.000000
      g+2     :    -0.000000
      g-2     :    -0.000000
      g+3     :    -0.000000
      g-3     :    -0.000000
      g+4     :     0.000000
      g-4     :    -0.000000


                     *******************************
                     * LOEWDIN POPULATION ANALYSIS *
                     *******************************

-------------------------------------------
LOEWDIN ATOMIC CHARGES AND SPIN POPULATIONS
-------------------------------------------
   0 Ag:   -0.204270    0.310543
   1 Ag:    0.102135    0.344728
   2 Ag:    0.102135    0.344729

----------------------------------------------------
LOEWDIN REDUCED ORBITAL CHARGES AND SPIN POPULATIONS
----------------------------------------------------
CHARGE
  0 Ags       :     2.817448  s :     2.817448
      pz      :     2.400635  p :     6.425986
      px      :     2.012675
      py      :     2.012675
      dz2     :     1.994450  d :     9.957727
      dxz     :     1.981818
      dyz     :     1.981818
      dx2y2   :     1.999821
      dxy     :     1.999821
      f0      :     0.001742  f :     0.003074
      f+1     :     0.000622
      f-1     :     0.000622
      f+2     :     0.000044
      f-2     :     0.000044
      f+3     :     0.000000
      f-3     :     0.000000
      g0      :     0.000016  g :     0.000036
      g+1     :     0.000009
      g-1     :     0.000009
      g+2     :     0.000001
      g-2     :     0.000001
      g+3     :     0.000000
      g-3     :     0.000000
      g+4     :     0.000000
      g-4     :     0.000000
  1 Ags       :     2.805580  s :     2.805580
      pz      :     2.095295  p :     6.113220
      px      :     2.008962
      py      :     2.008962
      dz2     :     1.991248  d :     9.977432
      dxz     :     1.993071
      dyz     :     1.993071
      dx2y2   :     2.000021
      dxy     :     2.000021
      f0      :     0.000722  f :     0.001614
      f+1     :     0.000400
      f-1     :     0.000400
      f+2     :     0.000046
      f-2     :     0.000046
      f+3     :     0.000000
      f-3     :     0.000000
      g0      :     0.000008  g :     0.000019
      g+1     :     0.000005
      g-1     :     0.000005
      g+2     :     0.000001
      g-2     :     0.000001
      g+3     :     0.000000
      g-3     :     0.000000
      g+4     :     0.000000
      g-4     :     0.000000
  2 Ags       :     2.805580  s :     2.805580
      pz      :     2.095295  p :     6.113220
      px      :     2.008962
      py      :     2.008962
      dz2     :     1.991248  d :     9.977432
      dxz     :     1.993071
      dyz     :     1.993071
      dx2y2   :     2.000021
      dxy     :     2.000021
      f0      :     0.000722  f :     0.001614
      f+1     :     0.000400
      f-1     :     0.000400
      f+2     :     0.000046
      f-2     :     0.000046
      f+3     :     0.000000
      f-3     :     0.000000
      g0      :     0.000008  g :     0.000019
      g+1     :     0.000005
      g-1     :     0.000005
      g+2     :     0.000001
      g-2     :     0.000001
      g+3     :     0.000000
      g-3     :     0.000000
      g+4     :     0.000000
      g-4     :     0.000000

SPIN
  0 Ags       :    -0.067768  s :    -0.067768
      pz      :     0.373826  p :     0.374074
      px      :     0.000124
      py      :     0.000124
      dz2     :     0.005776  d :     0.003862
      dxz     :    -0.000965
      dyz     :    -0.000965
      dx2y2   :     0.000008
      dxy     :     0.000008
      f0      :     0.000347  f :     0.000375
      f+1     :     0.000014
      f-1     :     0.000014
      f+2     :     0.000000
      f-2     :     0.000000
      f+3     :     0.000000
      f-3     :     0.000000
      g0      :    -0.000000  g :    -0.000000
      g+1     :     0.000000
      g-1     :     0.000000
      g+2     :    -0.000000
      g-2     :    -0.000000
      g+3     :    -0.000000
      g-3     :    -0.000000
      g+4     :    -0.000000
      g-4     :     0.000000
  1 Ags       :     0.364040  s :     0.364040
      pz      :    -0.017531  p :    -0.017041
      px      :     0.000245
      py      :     0.000245
      dz2     :    -0.002550  d :    -0.002221
      dxz     :     0.000167
      dyz     :     0.000167
      dx2y2   :    -0.000003
      dxy     :    -0.000003
      f0      :    -0.000050  f :    -0.000049
      f+1     :     0.000002
      f-1     :     0.000002
      f+2     :    -0.000001
      f-2     :    -0.000001
      f+3     :    -0.000000
      f-3     :    -0.000000
      g0      :    -0.000000  g :    -0.000000
      g+1     :     0.000000
      g-1     :     0.000000
      g+2     :    -0.000000
      g-2     :    -0.000000
      g+3     :    -0.000000
      g-3     :    -0.000000
      g+4     :     0.000000
      g-4     :    -0.000000
  2 Ags       :     0.364040  s :     0.364040
      pz      :    -0.017531  p :    -0.017041
      px      :     0.000245
      py      :     0.000245
      dz2     :    -0.002550  d :    -0.002221
      dxz     :     0.000167
      dyz     :     0.000167
      dx2y2   :    -0.000003
      dxy     :    -0.000003
      f0      :    -0.000050  f :    -0.000049
      f+1     :     0.000002
      f-1     :     0.000002
      f+2     :    -0.000001
      f-2     :    -0.000001
      f+3     :    -0.000000
      f-3     :    -0.000000
      g0      :    -0.000000  g :    -0.000000
      g+1     :     0.000000
      g-1     :     0.000000
      g+2     :    -0.000000
      g-2     :    -0.000000
      g+3     :    -0.000000
      g-3     :    -0.000000
      g+4     :     0.000000
      g-4     :    -0.000000


                      *****************************
                      * MAYER POPULATION ANALYSIS *
                      *****************************

  NA   - Mulliken gross atomic population
  ZA   - Total nuclear charge
  QA   - Mulliken gross atomic charge
  VA   - Mayer's total valence
  BVA  - Mayer's bonded valence
  FA   - Mayer's free valence

  ATOM       NA         ZA         QA         VA         BVA        FA
  0 Ag    18.9863    19.0000     0.0137     1.2627     1.2492     0.0134
  1 Ag    19.0069    19.0000    -0.0069     1.0808     0.7989     0.2819
  2 Ag    19.0069    19.0000    -0.0069     1.0808     0.7989     0.2819

  Mayer bond orders larger than 0.100000
B(  0-Ag,  1-Ag) :   0.6246 B(  0-Ag,  2-Ag) :   0.6246 B(  1-Ag,  2-Ag) :   0.1743 


-------
TIMINGS
-------

Total SCF time: 0 days 0 hours 0 min 8 sec 

Total time                  ....       8.994 sec
Sum of individual times     ....       8.745 sec  ( 97.2%)

Fock matrix formation       ....       6.870 sec  ( 76.4%)
  XC integration            ....       0.836 sec  ( 12.2% of F)
    Basis function eval.    ....       0.052 sec  (  6.2% of XC)
    Density eval.           ....       0.121 sec  ( 14.5% of XC)
    XC-Functional eval.     ....       0.037 sec  (  4.4% of XC)
    XC-Potential eval.      ....       0.252 sec  ( 30.2% of XC)
Diagonalization             ....       0.109 sec  (  1.2%)
Density matrix formation    ....       0.019 sec  (  0.2%)
Population analysis         ....       0.009 sec  (  0.1%)
Initial guess               ....       1.357 sec  ( 15.1%)
Orbital Transformation      ....       0.000 sec  (  0.0%)
Orbital Orthonormalization  ....       0.000 sec  (  0.0%)
DIIS solution               ....       0.036 sec  (  0.4%)
Grid generation             ....       0.345 sec  (  3.8%)

-------------------------   --------------------
FINAL SINGLE POINT ENERGY      -440.780030594159
-------------------------   --------------------


                            ***************************************
                            *     ORCA property calculations      *
                            ***************************************

                                    ---------------------
                                    Active property flags
                                    ---------------------
   (+) Dipole Moment


------------------------------------------------------------------------------
                       ORCA ELECTRIC PROPERTIES CALCULATION
------------------------------------------------------------------------------

Dipole Moment Calculation                       ... on
Quadrupole Moment Calculation                   ... off
Polarizability Calculation                      ... off
GBWName                                         ... Ag03N0_LIN.gbw
Electron density file                           ... Ag03N0_LIN.scfp
The origin for moment calculation is the CENTER OF MASS  = ( 0.000000,  0.000000  0.000000)

-------------
DIPOLE MOMENT
-------------
                                X             Y             Z
Electronic contribution:     -0.00000       0.00000      -0.00000
Nuclear contribution   :      0.00000       0.00000       0.00000
                        -----------------------------------------
Total Dipole Moment    :     -0.00000       0.00000      -0.00000
                        -----------------------------------------
Magnitude (a.u.)       :      0.00000
Magnitude (Debye)      :      0.00000



--------------------
Rotational spectrum 
--------------------
 
Rotational constants in cm-1:     0.000000     0.011626     0.011626 
Rotational constants in MHz :     0.000000   348.528806   348.528806 

 Dipole components along the rotational axes: 
x,y,z [a.u.] :    -0.000000     0.000001    -0.000000 
x,y,z [Debye]:    -0.000001     0.000002    -0.000001 

 

Timings for individual modules:

Sum of individual times         ...       10.309 sec (=   0.172 min)
GTO integral calculation        ...        0.920 sec (=   0.015 min)   8.9 %
SCF iterations                  ...        9.389 sec (=   0.156 min)  91.1 %
                             ****ORCA TERMINATED NORMALLY****
TOTAL RUN TIME: 0 days 0 hours 0 minutes 10 seconds 766 msec
