
                                 *****************
                                 * O   R   C   A *
                                 *****************

           --- An Ab Initio, DFT and Semiempirical electronic structure package ---

                  #######################################################
                  #                        -***-                        #
                  #          Department of theory and spectroscopy      #
                  #               Directorship: Frank Neese             #
                  #        Max Planck Institute fuer Kohlenforschung    #
                  #                Kaiser Wilhelm Platz 1               #
                  #                 D-45470 Muelheim/Ruhr               #
                  #                      Germany                        #
                  #                                                     #
                  #                  All rights reserved                #
                  #                        -***-                        #
                  #######################################################


                         Program Version 4.2.0 -  RELEASE  -


 With contributions from (in alphabetic order):
   Daniel Aravena         : Magnetic Suceptibility
   Michael Atanasov       : Ab Initio Ligand Field Theory (pilot matlab implementation)
   Alexander A. Auer      : GIAO ZORA, VPT2
   Ute Becker             : Parallelization
   Giovanni Bistoni       : ED, misc. LED, open-shell LED, HFLED
   Martin Brehm           : Molecular dynamics
   Dmytro Bykov           : SCF Hessian
   Vijay G. Chilkuri      : MRCI spin determinant printing, contributions to CSF-ICE
   Dipayan Datta          : RHF DLPNO-CCSD density
   Achintya Kumar Dutta   : EOM-CC, STEOM-CC
   Dmitry Ganyushin       : Spin-Orbit,Spin-Spin,Magnetic field MRCI
   Miquel Garcia          : C-PCM Hessian, Gaussian charge scheme
   Yang Guo               : DLPNO-NEVPT2, CIM, IAO-localization
   Andreas Hansen         : Spin unrestricted coupled pair/coupled cluster methods
   Benjamin Helmich-Paris : CASSCF linear response (MC-RPA)
   Lee Huntington         : MR-EOM, pCC
   Robert Izsak           : Overlap fitted RIJCOSX, COSX-SCS-MP3, EOM
   Christian Kollmar      : KDIIS, OOCD, Brueckner-CCSD(T), CCSD density
   Simone Kossmann        : Meta GGA functionals, TD-DFT gradient, OOMP2, MP2 Hessian
   Martin Krupicka        : AUTO-CI
   Lucas Lang             : DCDCAS
   Dagmar Lenk            : GEPOL surface, SMD
   Dimitrios Liakos       : Extrapolation schemes; Compound Job, initial MDCI parallelization
   Dimitrios Manganas     : Further ROCIS development; embedding schemes
   Dimitrios Pantazis     : SARC Basis sets
   Taras Petrenko         : DFT Hessian,TD-DFT gradient, ASA, ECA, R-Raman, ABS, FL, XAS/XES, NRVS
   Peter Pinski           : DLPNO-MP2, DLPNO-MP2 Gradient
   Christoph Reimann      : Effective Core Potentials
   Marius Retegan         : Local ZFS, SOC
   Christoph Riplinger    : Optimizer, TS searches, QM/MM, DLPNO-CCSD(T), (RO)-DLPNO pert. Triples
   Tobias Risthaus        : Range-separated hybrids, TD-DFT gradient, RPA, STAB
   Michael Roemelt        : Original ROCIS implementation
   Masaaki Saitow         : Open-shell DLPNO-CCSD energy and density
   Barbara Sandhoefer     : DKH picture change effects
   Avijit Sen             : IP-ROCIS
   Kantharuban Sivalingam : CASSCF convergence, NEVPT2, FIC-MRCI
   Bernardo de Souza      : ESD, SOC TD-DFT
   Georgi Stoychev        : AutoAux, RI-MP2 NMR
   Willem Van den Heuvel  : Paramagnetic NMR
   Boris Wezisla          : Elementary symmetry handling
   Frank Wennmohs         : Technical directorship


 We gratefully acknowledge several colleagues who have allowed us to
 interface, adapt or use parts of their codes:
   Stefan Grimme, W. Hujo, H. Kruse,             : VdW corrections, initial TS optimization,
                  C. Bannwarth                     DFT functionals, gCP, sTDA/sTD-DF
   Ed Valeev, F. Pavosevic, A. Kumar             : LibInt (2-el integral package), F12 methods
   Garnet Chan, S. Sharma, J. Yang, R. Olivares  : DMRG
   Ulf Ekstrom                                   : XCFun DFT Library
   Mihaly Kallay                                 : mrcc  (arbitrary order and MRCC methods)
   Andreas Klamt, Michael Diedenhofen            : otool_cosmo (COSMO solvation model)
   Jiri Pittner, Ondrej Demel                    : Mk-CCSD
   Frank Weinhold                                : gennbo (NPA and NBO analysis)
   Christopher J. Cramer and Donald G. Truhlar   : smd solvation model
   Lars Goerigk                                  : TD-DFT with DH, B97 family of functionals
   V. Asgeirsson, H. Jonsson                     : NEB implementation
   FAccTs GmbH                                   : IRC, NEB, NEB-TS, Multilevel, MM, QM/MM, CI optimization
   S Lehtola, MJT Oliveira, MAL Marques          : LibXC Library


 Your calculation uses the libint2 library for the computation of 2-el integrals
 For citations please refer to: http://libint.valeyev.net

 Your ORCA version has been built with support for libXC version: 4.2.3
 For citations please refer to: https://tddft.org/programs/libxc/

 This ORCA versions uses:
   CBLAS   interface :  Fast vector & matrix operations
   LAPACKE interface :  Fast linear algebra routines
   SCALAPACK package :  Parallel linear algebra routines


Your calculation utilizes the DFT-NL dispersion correction.
Cite in your paper:
Vydrov, O. A.; Van Voorhis, T. J. Chem. Phys. 2010, 133, 244103
Hujo, W.; Grimme, S. J. Chem. Theory Comput. 2011, 7, 3866 
   

----- Orbital basis set information -----
Your calculation utilizes the basis: def2-TZVPPD
   F. Weigend and R. Ahlrichs, Phys. Chem. Chem. Phys. 7, 3297 (2005).
   D. Rappoport and F. Furche, J. Chem. Phys. 133 134105 (2010).

----- AuxJK basis set information -----
Your calculation utilizes the auxiliary basis: def2/JK
   H-Ba, Hf-Rn: F. Weigend, J. Comput. Chem. 29, 167 (2008).

cite the ECPs for Ag [Def2-ECP] as follows:
Ce-Yb(ecp-28): M. Dolg, H. Stoll, H.Preuss, J. Chem. Phys., 1989, 90, 1730-1734.
Y-Cd(ecp-28), Hf-Hg(ecp-46): D. Andrae,U. Haeussermann, M. Dolg, H. Stoll, H. Preuss, Theor. Chim. Acta, 1990, 77, 123-141.
In-Sb(ecp-28), Tl-Bi(ecp-46): B. Metz, H. Stoll, M. Dolg, J. Chem. Phys., 2000, 113, 2563-2569.
Te-Xe(ecp-28), Po-Rn(ecp-46): K. A. Peterson, D. Figgen, E. Goll, H. Stoll, M. Dolg, J. Chem. Phys., 2003, 119, 11113-11123.
Rb(ecp-28), Cs(ecp-46): T. Leininger, A. Nicklass, W. Kuechle, H. Stoll, M. Dolg, A. Bergner, Chem. Phys. Lett., 1996, 255, 274-280.
Sr(ecp-28), Ba(ecp-46): M. Kaupp, P. V. Schleyer, H. Stoll and H. Preuss, J. Chem. Phys., 1991, 94, 1360-1366.
La(ecp-46): M. Dolg, H. Stoll, A. Savin, H. Preuss, Theor. Chim. Acta, 1989, 75, 173-194.
Lu(ecp-28): X. Cao, M. Dolg, J. Chem. Phys., 2001, 115, 7348-7355.

ECP parameters for Ag [Def2-ECP] have been obtained from:
TURBOMOLE (7.0.2)

================================================================================
                                        WARNINGS
                       Please study these warnings very carefully!
================================================================================


WARNING: your system is open-shell and RHF/RKS was chosen
  ===> : WILL SWITCH to UHF/UKS


INFO   : the flag for use of LIBINT has been found!

================================================================================
                                       INPUT FILE
================================================================================
NAME = Ag04C2_H_E.in
|  1> #
|  2> # Ag04C2_H_E wB97M-V/Def2-TZVPPD
|  3> #
|  4> ! wb97m-v def2-tzvppd def2/jk grid4 nofinalgrid
|  5> 
|  6> *xyz 2 2
|  7> Ag      -0.000000    1.374598    1.108828 
|  8> Ag      -0.000000   -1.374598    1.108828 
|  9> Ag      -1.374988    0.000000   -1.132689 
| 10> Ag       1.374988   -0.000000   -1.132689 
| 11> H        0.000000    0.000000    2.242952 
| 12> *
| 13> 
| 14> %maxcore 5000
| 15> 
| 16> %pal
| 17> nprocs = 24
| 18> end
| 19> 
| 20> 
| 21>                          ****END OF INPUT****
================================================================================

                       ****************************
                       * Single Point Calculation *
                       ****************************

---------------------------------
CARTESIAN COORDINATES (ANGSTROEM)
---------------------------------
  Ag    -0.000000    1.374598    1.108828
  Ag    -0.000000   -1.374598    1.108828
  Ag    -1.374988    0.000000   -1.132689
  Ag     1.374988   -0.000000   -1.132689
  H      0.000000    0.000000    2.242952

----------------------------
CARTESIAN COORDINATES (A.U.)
----------------------------
  NO LB      ZA    FRAG     MASS         X           Y           Z
   0 Ag   19.0000*   0   107.870   -0.000000    2.597614    2.095381
   1 Ag   19.0000*   0   107.870   -0.000000   -2.597614    2.095381
   2 Ag   19.0000*   0   107.870   -2.598351    0.000000   -2.140472
   3 Ag   19.0000*   0   107.870    2.598351   -0.000000   -2.140472
   4 H     1.0000    0     1.008    0.000000    0.000000    4.238565
* core charge reduced due to ECP

--------------------------------
INTERNAL COORDINATES (ANGSTROEM)
--------------------------------
 Ag     0   0   0     0.000000000000     0.00000000     0.00000000
 Ag     1   0   0     2.749196000000     0.00000000     0.00000000
 Ag     1   2   0     2.967239478545    62.40244656     0.00000000
 Ag     3   1   2     2.749976000000    62.39394873   285.86362014
 H      1   2   3     1.782065349245    39.52463145   148.47427698

---------------------------
INTERNAL COORDINATES (A.U.)
---------------------------
 Ag     0   0   0     0.000000000000     0.00000000     0.00000000
 Ag     1   0   0     5.195227528472     0.00000000     0.00000000
 Ag     1   2   0     5.607269988210    62.40244656     0.00000000
 Ag     3   1   2     5.196701514856    62.39394873   285.86362014
 H      1   2   3     3.367615462824    39.52463145   148.47427698

---------------------
BASIS SET INFORMATION
---------------------
There are 2 groups of distinct atoms

 Group   1 Type Ag  : 7s7p6d2f1g contracted to 6s4p3d2f1g pattern {211111/4111/411/11/1}
 Group   2 Type H   : 5s3p1d contracted to 3s3p1d pattern {311/111/1}

Atom   0Ag   basis set group =>   1
Atom   1Ag   basis set group =>   1
Atom   2Ag   basis set group =>   1
Atom   3Ag   basis set group =>   1
Atom   4H    basis set group =>   2
----------------------------------
AUXILIARY/JK BASIS SET INFORMATION
----------------------------------
There are 2 groups of distinct atoms

 Group   1 Type Ag  : 13s12p10d9f6g3h2i contracted to 11s10p9d8f6g3h2i pattern {31111111111/3111111111/211111111/21111111/111111/111/11}
 Group   2 Type H   : 4s2p2d contracted to 2s2p2d pattern {31/11/11}

Atom   0Ag   basis set group =>   1
Atom   1Ag   basis set group =>   1
Atom   2Ag   basis set group =>   1
Atom   3Ag   basis set group =>   1
Atom   4H    basis set group =>   2
-------------------------
ECP PARAMETER INFORMATION
-------------------------

 Group 1, Type Ag ECP Def2-ECP (replacing 28 core electrons, lmax=3)

Atom   0Ag   ECP group =>   1
Atom   1Ag   ECP group =>   1
Atom   2Ag   ECP group =>   1
Atom   3Ag   ECP group =>   1



           ************************************************************
           *        Program running with 24 parallel MPI-processes    *
           *              working on a common directory               *
           ************************************************************
------------------------------------------------------------------------------
                           ORCA GTO INTEGRAL CALCULATION
------------------------------------------------------------------------------

                         BASIS SET STATISTICS AND STARTUP INFO

 # of primitive gaussian shells          ...  101
 # of primitive gaussian functions       ...  343
 # of contracted shells                  ...   71
 # of contracted basis functions         ...  241
 Highest angular momentum                ...    4
 Maximum contraction depth               ...    4
 Integral package used                   ... LIBINT
 Integral threshhold            Thresh   ...  1.000e-10
 Primitive cut-off              TCut     ...  1.000e-11


------------------------------ INTEGRAL EVALUATION ----------------------------


 * One electron integrals 

   ECP integrals                         ... done
 Pre-screening matrix                    ... done
 Shell pair data                         ... done (   0.001 sec)



           ************************************************************
           *        Program running with 24 parallel MPI-processes    *
           *              working on a common directory               *
           ************************************************************
-------------------------------------------------------------------------------
                                 ORCA SCF
-------------------------------------------------------------------------------

------------
SCF SETTINGS
------------
Hamiltonian:
 Density Functional     Method          .... DFT(GTOs)
 Exchange Functional    Exchange        .... WB97M-V
 Correlation Functional Correlation     .... WB97M-V
 Gradients option       PostSCFGGA      .... off
 Hybrid DFT is turned on
   Fraction HF Exchange ScalHFX         ....  0.150000
   Scaling of DF-GGA-X  ScalDFX         ....  0.000000
   Scaling of DF-GGA-C  ScalDFC         ....  1.000000
   Scaling of DF-LDA-C  ScalLDAC        ....  1.000000
   Perturbative correction              ....  0.000000
   Density functional embedding theory  .... OFF
 Long-range corrected/Screened/Range-Separated Hybrid DFT is turned on
   Amount of maximum screened exact exchange              ....  0.850000
   Range separation parameter mu (erf(mu*r12)/r12)        ....  0.300000
   NL short-range parameter             ....  6.000000
   NL long-range parameter              ....  0.010000


General Settings:
 Integral files         IntName         .... Ag04C2_H_E
 Hartree-Fock type      HFTyp           .... UHF
 Total Charge           Charge          ....    2
 Multiplicity           Mult            ....    2
 Number of Electrons    NEL             ....   75
 Basis Dimension        Dim             ....  241
 Nuclear Repulsion      ENuc            ....    413.2776638903 Eh

Convergence Acceleration:
 DIIS                   CNVDIIS         .... on
   Start iteration      DIISMaxIt       ....    12
   Startup error        DIISStart       ....  0.200000
   # of expansion vecs  DIISMaxEq       ....     5
   Bias factor          DIISBfac        ....   1.050
   Max. coefficient     DIISMaxC        ....  10.000
 Newton-Raphson         CNVNR           .... off
 SOSCF                  CNVSOSCF        .... off
 Level Shifting         CNVShift        .... on
   Level shift para.    LevelShift      ....    0.2500
   Turn off err/grad.   ShiftErr        ....    0.0010
 Zerner damping         CNVZerner       .... off
 Static damping         CNVDamp         .... on
   Fraction old density DampFac         ....    0.7000
   Max. Damping (<1)    DampMax         ....    0.9800
   Min. Damping (>=0)   DampMin         ....    0.0000
   Turn off err/grad.   DampErr         ....    0.1000
 Fernandez-Rico         CNVRico         .... off

SCF Procedure:
 Maximum # iterations   MaxIter         ....   125
 SCF integral mode      SCFMode         .... Direct
   Integral package                     .... LIBINT
 Reset frequency        DirectResetFreq ....    20
 Integral Threshold     Thresh          ....  1.000e-10 Eh
 Primitive CutOff       TCut            ....  1.000e-11 Eh

Convergence Tolerance:
 Convergence Check Mode ConvCheckMode   .... Total+1el-Energy
 Convergence forced     ConvForced      .... 0
 Energy Change          TolE            ....  1.000e-06 Eh
 1-El. energy change                    ....  1.000e-03 Eh
 DIIS Error             TolErr          ....  1.000e-06


Diagonalization of the overlap matrix:
Smallest eigenvalue                        ... 1.739e-03
Time for diagonalization                   ...    0.012 sec
Threshold for overlap eigenvalues          ... 1.000e-08
Number of eigenvalues below threshold      ... 0
Time for construction of square roots      ...    0.007 sec
Total time needed                          ...    0.020 sec

-------------------
DFT GRID GENERATION
-------------------

General Integration Accuracy     IntAcc      ...  4.670
Radial Grid Type                 RadialGrid  ... Gauss-Chebyshev
Angular Grid (max. acc.)         AngularGrid ... Lebedev-302
Angular grid pruning method      GridPruning ... 3 (G Style)
Weight generation scheme         WeightScheme... Becke
Basis function cutoff            BFCut       ...    1.0000e-10
Integration weight cutoff        WCut        ...    1.0000e-14
Grids for H and He will be reduced by one unit

# of grid points (after initial pruning)     ...  46026 (   0.0 sec)
# of grid points (after weights+screening)   ...  45138 (   0.0 sec)
nearest neighbour list constructed           ...    0.0 sec
Grid point re-assignment to atoms done       ...    0.0 sec
Grid point division into batches done        ...    0.3 sec
Reduced shell lists constructed in    0.3 sec

Total number of grid points                  ...    45138
Total number of batches                      ...      708
Average number of points per batch           ...       63
Average number of grid points per atom       ...     9028
Average number of shells per batch           ...    16.68 (23.49%)
Average number of basis functions per batch  ...    43.39 (18.00%)
Average number of large shells per batch     ...    11.39 (68.28%)
Average number of large basis fcns per batch ...    26.87 (61.93%)
Maximum spatial batch extension              ...  31.14, 20.61, 24.21 au
Average spatial batch extension              ...   0.46,  0.38,  0.41 au

Time for grid setup =    0.389 sec

------------------------------
INITIAL GUESS: MODEL POTENTIAL
------------------------------
Loading Hartree-Fock densities                     ... done
  calling /sw/apps/orca/orca_4_2_0_linux_x86-64_openmpi314/orca Ag04C2_H_E_atom47.inp > Ag04C2_H_E_atom47.out in order to generate an atomic fitting density for atom 0 (Ag with ECP) on-the-fly... 
    atom 0 (Ag), assumed electronic state with S=2: 1s2 2s2 2p6 3s2 3p6 4s2 3d10 4p6 5s2 4d9           ... done
Calculating cut-offs                               ... done
Setting up the integral package                    ... done
Initializing the effective Hamiltonian             ... done
Starting the Coulomb interaction                   ... done (   0.0 sec)
Reading the grid                                   ... done
Mapping shells                                     ... done
Starting the XC term evaluation                    ... done (   0.0 sec)
  promolecular density results
     # of electrons  =    189.001323314
     EX              =   -574.064578169
     EC              =    -10.003655399
     EX+EC           =   -584.068233568
Transforming the Hamiltonian                       ... done (   0.0 sec)
Diagonalizing the Hamiltonian                      ... done (   0.0 sec)
Back transforming the eigenvectors                 ... done (   0.0 sec)
Now organizing SCF variables                       ... done
                      ------------------
                      INITIAL GUESS DONE (   1.6 sec)
                      ------------------
--------------
SCF ITERATIONS
--------------
ITER       Energy         Delta-E        Max-DP      RMS-DP      [F,P]     Damp
               ***  Starting incremental Fock matrix formation  ***
  0   -587.7392720342   0.000000000000 0.04252705  0.00067128  0.5198134 0.7000
  1   -587.8375203596  -0.098248325380 0.02352553  0.00039752  0.3478064 0.7000
  2   -587.8814328069  -0.043912447234 0.01117296  0.00019813  0.2336170 0.7000
                               ***Turning on DIIS***
  3   -587.9083415304  -0.026908723502 0.00561821  0.00010999  0.1603623 0.7000
  4   -587.9271549925  -0.018813462173 0.00458891  0.00007747  0.1115716 0.7000
  5   -587.9405022082  -0.013347215671 0.01459904  0.00022246  0.0788430 0.0000
  6   -587.9725334031  -0.032031194852 0.00345805  0.00004286  0.0021846 0.0000
  7   -587.9727218465  -0.000188443452 0.00186190  0.00002554  0.0014104 0.0000
  8   -587.9728215918  -0.000099745305 0.00316731  0.00004745  0.0009618 0.0000
  9   -587.9729362112  -0.000114619430 0.00076281  0.00001378  0.0004335 0.0000
 10   -587.9729491831  -0.000012971856 0.00042707  0.00000743  0.0002152 0.0000
 11   -587.9729519211  -0.000002737954 0.00037895  0.00000610  0.0001294 0.0000
 12   -587.9729529571  -0.000001036063 0.00012823  0.00000221  0.0000354 0.0000
                 **** Energy Check signals convergence ****

               *****************************************************
               *                     SUCCESS                       *
               *           SCF CONVERGED AFTER  13 CYCLES          *
               *****************************************************


Setting up the DFT-NL grid :

General Integration Accuracy     IntAcc      ...  4.340
Radial Grid Type                 RadialGrid  ... Gauss-Chebyshev
Angular Grid (max. acc.)         AngularGrid ... Lebedev-110
Angular grid pruning method      GridPruning ... 3 (G Style)
Weight generation scheme         WeightScheme... Becke
Basis function cutoff            BFCut       ...    1.0000e-10
Integration weight cutoff        WCut        ...    1.0000e-14
Grids for H and He will be reduced by one unit

# of grid points (after initial pruning)     ...  13826 (   0.0 sec)
# of grid points (after weights+screening)   ...  13604 (   0.0 sec)
nearest neighbour list constructed           ...    0.0 sec
Grid point re-assignment to atoms done       ...    0.0 sec
Grid point division into batches done        ...    0.0 sec
Reduced shell lists constructed in    0.0 sec

Total number of grid points                  ...    13604
Total number of batches                      ...      215
Average number of points per batch           ...       63
Average number of grid points per atom       ...     2721
Average number of shells per batch           ...    20.70 (29.15%)
Average number of basis functions per batch  ...    56.30 (23.36%)
Average number of large shells per batch     ...    15.90 (76.81%)
Average number of large basis fcns per batch ...    40.10 (71.23%)
Maximum spatial batch extension              ...  44.45, 20.55, 24.74 au
Average spatial batch extension              ...   0.76,  0.54,  0.54 au

Final grid set up in    0.0 sec

-------------------------------------------------------------------------------
                         DFT-NL dispersion correction                          
-------------------------------------------------------------------------------

SC Energy -587.972952862 
NL    Energy 0.285924843 
SC+NL Energy -587.687028019 
NL done in    0.1 sec
-------------------------------------------------------------------------------

----------------
TOTAL SCF ENERGY
----------------

Total Energy       :         -587.68702802 Eh          -15991.77704 eV

Components:
Nuclear Repulsion  :          413.27766389 Eh           11245.85696 eV
Electronic Energy  :        -1000.96469191 Eh          -27237.63400 eV
One Electron Energy:        -1842.64859181 Eh          -50141.01730 eV
Two Electron Energy:          841.68389990 Eh           22903.38330 eV

Virial components:
Potential Energy   :         -813.73191781 Eh          -22142.77120 eV
Kinetic Energy     :          226.04488979 Eh            6150.99416 eV
Virial Ratio       :            3.59986867


DFT components:
N(Alpha)           :       37.999979393753 electrons
N(Beta)            :       36.999978858964 electrons
N(Total)           :       74.999958252717 electrons
E(X)               :      -35.824765363085 Eh       
E(C)               :       -2.750757290151 Eh       
NL Energy, E(C,NL) :        0.285924843116 Eh       
E(XC)              :      -38.289597810121 Eh       
DFET-embed. en.    :        0.000000000000 Eh       

---------------
SCF CONVERGENCE
---------------

  Last Energy change         ...    9.4876e-08  Tolerance :   1.0000e-06
  Last MAX-Density change    ...    4.3353e-05  Tolerance :   1.0000e-05
  Last RMS-Density change    ...    6.3940e-07  Tolerance :   1.0000e-06
  Last DIIS Error            ...    2.5783e-05  Tolerance :   1.0000e-06

             **** THE GBW FILE WAS UPDATED (Ag04C2_H_E.gbw) ****
             **** DENSITY FILE WAS UPDATED (Ag04C2_H_E.scfp) ****
             **** ENERGY FILE WAS UPDATED (Ag04C2_H_E.en.tmp) ****
----------------------
UHF SPIN CONTAMINATION
----------------------

Warning: in a DFT calculation there is little theoretical justification to 
         calculate <S**2> as in Hartree-Fock theory. We will do it anyways
         but you should keep in mind that the values have only limited relevance

Expectation value of <S**2>     :     0.762211
Ideal value S*(S+1) for S=0.5   :     0.750000
Deviation                       :     0.012211

             **** THE GBW FILE WAS UPDATED (Ag04C2_H_E.gbw) ****
             **** DENSITY FILE WAS UPDATED (Ag04C2_H_E.scfp) ****
----------------
ORBITAL ENERGIES
----------------
                 SPIN UP ORBITALS
  NO   OCC          E(Eh)            E(eV) 
   0   1.0000      -4.254886      -115.7813 
   1   1.0000      -4.254702      -115.7763 
   2   1.0000      -4.242570      -115.4462 
   3   1.0000      -4.242393      -115.4414 
   4   1.0000      -2.846029       -77.4444 
   5   1.0000      -2.844008       -77.3894 
   6   1.0000      -2.841504       -77.3213 
   7   1.0000      -2.840351       -77.2899 
   8   1.0000      -2.838117       -77.2291 
   9   1.0000      -2.837885       -77.2228 
  10   1.0000      -2.831813       -77.0575 
  11   1.0000      -2.829286       -76.9888 
  12   1.0000      -2.829224       -76.9871 
  13   1.0000      -2.828957       -76.9798 
  14   1.0000      -2.828789       -76.9753 
  15   1.0000      -2.828671       -76.9721 
  16   1.0000      -0.902888       -24.5688 
  17   1.0000      -0.861660       -23.4470 
  18   1.0000      -0.843563       -22.9545 
  19   1.0000      -0.842289       -22.9198 
  20   1.0000      -0.840120       -22.8608 
  21   1.0000      -0.834922       -22.7194 
  22   1.0000      -0.829965       -22.5845 
  23   1.0000      -0.826707       -22.4959 
  24   1.0000      -0.821181       -22.3455 
  25   1.0000      -0.811292       -22.0764 
  26   1.0000      -0.810374       -22.0514 
  27   1.0000      -0.806527       -21.9467 
  28   1.0000      -0.805737       -21.9252 
  29   1.0000      -0.804767       -21.8988 
  30   1.0000      -0.803580       -21.8665 
  31   1.0000      -0.797298       -21.6956 
  32   1.0000      -0.795546       -21.6479 
  33   1.0000      -0.789744       -21.4900 
  34   1.0000      -0.787367       -21.4254 
  35   1.0000      -0.781067       -21.2539 
  36   1.0000      -0.751685       -20.4544 
  37   1.0000      -0.636332       -17.3155 
  38   0.0000      -0.366868        -9.9830 
  39   0.0000      -0.366250        -9.9662 
  40   0.0000      -0.314812        -8.5665 
  41   0.0000      -0.269000        -7.3199 
  42   0.0000      -0.260723        -7.0946 
  43   0.0000      -0.256590        -6.9822 
  44   0.0000      -0.250833        -6.8255 
  45   0.0000      -0.237286        -6.4569 
  46   0.0000      -0.169383        -4.6091 
  47   0.0000      -0.155510        -4.2316 
  48   0.0000      -0.155267        -4.2250 
  49   0.0000      -0.150885        -4.1058 
  50   0.0000      -0.149698        -4.0735 
  51   0.0000      -0.147094        -4.0026 
  52   0.0000      -0.132841        -3.6148 
  53   0.0000      -0.108776        -2.9600 
  54   0.0000      -0.083132        -2.2621 
  55   0.0000      -0.076709        -2.0874 
  56   0.0000      -0.070062        -1.9065 
  57   0.0000      -0.061340        -1.6692 
  58   0.0000      -0.059866        -1.6290 
  59   0.0000      -0.056936        -1.5493 
  60   0.0000      -0.056479        -1.5369 
  61   0.0000      -0.050262        -1.3677 
  62   0.0000      -0.031321        -0.8523 
  63   0.0000      -0.008504        -0.2314 
  64   0.0000       0.013763         0.3745 
  65   0.0000       0.037016         1.0073 
  66   0.0000       0.047844         1.3019 
  67   0.0000       0.061849         1.6830 
  68   0.0000       0.076980         2.0947 
  69   0.0000       0.092673         2.5217 
  70   0.0000       0.098559         2.6819 
  71   0.0000       0.101418         2.7597 
  72   0.0000       0.156121         4.2483 
  73   0.0000       0.164903         4.4872 
  74   0.0000       0.170595         4.6421 
  75   0.0000       0.215740         5.8706 
  76   0.0000       0.235875         6.4185 
  77   0.0000       0.246523         6.7082 
  78   0.0000       0.268285         7.3004 
  79   0.0000       0.304901         8.2968 
  80   0.0000       0.309168         8.4129 
  81   0.0000       0.309367         8.4183 
  82   0.0000       0.343997         9.3606 
  83   0.0000       0.344423         9.3722 
  84   0.0000       0.344894         9.3851 
  85   0.0000       0.353456         9.6180 
  86   0.0000       0.360471         9.8089 
  87   0.0000       0.413729        11.2581 
  88   0.0000       0.422263        11.4904 
  89   0.0000       0.435019        11.8375 
  90   0.0000       0.443439        12.0666 
  91   0.0000       0.446654        12.1541 
  92   0.0000       0.473836        12.8937 
  93   0.0000       0.606498        16.5037 
  94   0.0000       0.746221        20.3057 
  95   0.0000       0.775453        21.1011 
  96   0.0000       1.239807        33.7369 
  97   0.0000       1.269674        34.5496 
  98   0.0000       1.288928        35.0735 
  99   0.0000       1.291035        35.1309 
 100   0.0000       1.296682        35.2845 
 101   0.0000       1.303742        35.4766 
 102   0.0000       1.304817        35.5059 
 103   0.0000       1.306373        35.5482 
 104   0.0000       1.307754        35.5858 
 105   0.0000       1.319272        35.8992 
 106   0.0000       1.322296        35.9815 
 107   0.0000       1.322991        36.0004 
 108   0.0000       1.323025        36.0013 
 109   0.0000       1.330656        36.2090 
 110   0.0000       1.333230        36.2790 
 111   0.0000       1.334735        36.3200 
 112   0.0000       1.341462        36.5030 
 113   0.0000       1.341972        36.5169 
 114   0.0000       1.343891        36.5691 
 115   0.0000       1.348771        36.7019 
 116   0.0000       1.350876        36.7592 
 117   0.0000       1.355629        36.8885 
 118   0.0000       1.372819        37.3563 
 119   0.0000       1.381293        37.5869 
 120   0.0000       1.387158        37.7465 
 121   0.0000       1.399209        38.0744 
 122   0.0000       1.410441        38.3801 
 123   0.0000       1.411837        38.4180 
 124   0.0000       1.424990        38.7760 
 125   0.0000       1.470959        40.0268 
 126   0.0000       1.472754        40.0757 
 127   0.0000       1.483257        40.3615 
 128   0.0000       1.483595        40.3707 
 129   0.0000       1.484597        40.3979 
 130   0.0000       1.503613        40.9154 
 131   0.0000       1.576648        42.9028 
 132   0.0000       1.606716        43.7210 
 133   0.0000       1.609566        43.7985 
 134   0.0000       1.630632        44.3717 
 135   0.0000       1.709208        46.5099 
 136   0.0000       1.749554        47.6078 
 137   0.0000       1.825709        49.6801 
 138   0.0000       1.825815        49.6829 
 139   0.0000       1.827633        49.7324 
 140   0.0000       1.832030        49.8521 
 141   0.0000       1.845590        50.2210 
 142   0.0000       1.868537        50.8455 
 143   0.0000       1.882529        51.2262 
 144   0.0000       1.885780        51.3147 
 145   0.0000       1.897051        51.6214 
 146   0.0000       1.903627        51.8003 
 147   0.0000       1.905131        51.8413 
 148   0.0000       1.911633        52.0182 
 149   0.0000       1.919630        52.2358 
 150   0.0000       1.943432        52.8835 
 151   0.0000       1.955253        53.2051 
 152   0.0000       1.959391        53.3177 
 153   0.0000       1.960088        53.3367 
 154   0.0000       2.014316        54.8123 
 155   0.0000       2.023240        55.0552 
 156   0.0000       2.262389        61.5627 
 157   0.0000       2.367595        64.4255 
 158   0.0000       2.370188        64.4961 
 159   0.0000       2.444480        66.5177 
 160   0.0000       2.520116        68.5758 
 161   0.0000       2.983500        81.1852 
 162   0.0000       2.996419        81.5367 
 163   0.0000       3.056124        83.1614 
 164   0.0000       3.349372        91.1411 
 165   0.0000       3.415186        92.9319 
 166   0.0000       3.489257        94.9475 
 167   0.0000       3.857867       104.9779 
 168   0.0000       3.996300       108.7448 
 169   0.0000       4.582623       124.6995 
 170   0.0000       4.583479       124.7228 
 171   0.0000       4.590251       124.9071 
 172   0.0000       4.593865       125.0054 
 173   0.0000       4.598199       125.1234 
 174   0.0000       4.601585       125.2155 
 175   0.0000       4.602713       125.2462 
 176   0.0000       4.609696       125.4362 
 177   0.0000       4.612077       125.5010 
 178   0.0000       4.620309       125.7250 
 179   0.0000       4.622578       125.7868 
 180   0.0000       4.626127       125.8833 
 181   0.0000       4.634562       126.1129 
 182   0.0000       4.636274       126.1594 
 183   0.0000       4.639104       126.2364 
 184   0.0000       4.652064       126.5891 
 185   0.0000       4.665382       126.9515 
 186   0.0000       4.667356       127.0052 
 187   0.0000       4.697648       127.8295 
 188   0.0000       4.701902       127.9453 
 189   0.0000       4.720610       128.4543 
 190   0.0000       4.748721       129.2193 
 191   0.0000       4.762196       129.5860 
 192   0.0000       4.798336       130.5694 
 193   0.0000       4.805209       130.7564 
 194   0.0000       4.808767       130.8532 
 195   0.0000       4.978802       135.4801 
 196   0.0000       4.986891       135.7002 
 197   0.0000       5.322322       144.8277 
 198   0.0000       5.324348       144.8829 
 199   0.0000       5.324698       144.8924 
 200   0.0000       5.324855       144.8967 
 201   0.0000       5.325195       144.9059 
 202   0.0000       5.325469       144.9134 
 203   0.0000       5.326166       144.9323 
 204   0.0000       5.326514       144.9418 
 205   0.0000       5.326876       144.9517 
 206   0.0000       5.326892       144.9521 
 207   0.0000       5.328016       144.9827 
 208   0.0000       5.329118       145.0127 
 209   0.0000       5.331825       145.0863 
 210   0.0000       5.332199       145.0965 
 211   0.0000       5.332258       145.0981 
 212   0.0000       5.332624       145.1081 
 213   0.0000       5.332636       145.1084 
 214   0.0000       5.333000       145.1183 
 215   0.0000       5.333176       145.1231 
 216   0.0000       5.333338       145.1275 
 217   0.0000       5.333343       145.1276 
 218   0.0000       5.333533       145.1328 
 219   0.0000       5.333959       145.1444 
 220   0.0000       5.334194       145.1508 
 221   0.0000       5.334305       145.1538 
 222   0.0000       5.334420       145.1569 
 223   0.0000       5.334814       145.1677 
 224   0.0000       5.336126       145.2034 
 225   0.0000       5.340318       145.3174 
 226   0.0000       5.342765       145.3840 
 227   0.0000       5.344016       145.4181 
 228   0.0000       5.350695       145.5998 
 229   0.0000       5.372666       146.1977 
 230   0.0000       5.398067       146.8889 
 231   0.0000       5.570524       151.5817 
 232   0.0000       5.656528       153.9219 
 233   0.0000      33.200561       903.4332 
 234   0.0000      33.495163       911.4497 
 235   0.0000      33.520311       912.1340 
 236   0.0000      33.551537       912.9837 
 237   0.0000     110.475760      3006.1983 
 238   0.0000     110.574607      3008.8880 
 239   0.0000     110.577836      3008.9759 
 240   0.0000     110.584744      3009.1639 

                 SPIN DOWN ORBITALS
  NO   OCC          E(Eh)            E(eV) 
   0   1.0000      -4.251543      -115.6904 
   1   1.0000      -4.251368      -115.6856 
   2   1.0000      -4.241790      -115.4250 
   3   1.0000      -4.241611      -115.4201 
   4   1.0000      -2.840247       -77.2871 
   5   1.0000      -2.838001       -77.2259 
   6   1.0000      -2.837429       -77.2104 
   7   1.0000      -2.836767       -77.1924 
   8   1.0000      -2.836718       -77.1910 
   9   1.0000      -2.836496       -77.1850 
  10   1.0000      -2.830599       -77.0245 
  11   1.0000      -2.828774       -76.9749 
  12   1.0000      -2.828542       -76.9686 
  13   1.0000      -2.828320       -76.9625 
  14   1.0000      -2.828256       -76.9608 
  15   1.0000      -2.827543       -76.9414 
  16   1.0000      -0.882556       -24.0156 
  17   1.0000      -0.858213       -23.3532 
  18   1.0000      -0.840213       -22.8634 
  19   1.0000      -0.840123       -22.8609 
  20   1.0000      -0.836889       -22.7729 
  21   1.0000      -0.831466       -22.6254 
  22   1.0000      -0.827985       -22.5306 
  23   1.0000      -0.823890       -22.4192 
  24   1.0000      -0.816689       -22.2232 
  25   1.0000      -0.807156       -21.9638 
  26   1.0000      -0.806842       -21.9553 
  27   1.0000      -0.804167       -21.8825 
  28   1.0000      -0.803717       -21.8703 
  29   1.0000      -0.801666       -21.8144 
  30   1.0000      -0.798199       -21.7201 
  31   1.0000      -0.795895       -21.6574 
  32   1.0000      -0.794095       -21.6084 
  33   1.0000      -0.786108       -21.3911 
  34   1.0000      -0.780687       -21.2436 
  35   1.0000      -0.778578       -21.1862 
  36   1.0000      -0.725392       -19.7389 
  37   0.0000      -0.435729       -11.8568 
  38   0.0000      -0.371227       -10.1016 
  39   0.0000      -0.362575        -9.8662 
  40   0.0000      -0.309464        -8.4209 
  41   0.0000      -0.277350        -7.5471 
  42   0.0000      -0.269635        -7.3372 
  43   0.0000      -0.262245        -7.1360 
  44   0.0000      -0.255560        -6.9541 
  45   0.0000      -0.246551        -6.7090 
  46   0.0000      -0.186043        -5.0625 
  47   0.0000      -0.173801        -4.7294 
  48   0.0000      -0.165538        -4.5045 
  49   0.0000      -0.165512        -4.5038 
  50   0.0000      -0.160918        -4.3788 
  51   0.0000      -0.153316        -4.1720 
  52   0.0000      -0.143368        -3.9012 
  53   0.0000      -0.127473        -3.4687 
  54   0.0000      -0.088867        -2.4182 
  55   0.0000      -0.084783        -2.3071 
  56   0.0000      -0.083524        -2.2728 
  57   0.0000      -0.077263        -2.1024 
  58   0.0000      -0.071137        -1.9357 
  59   0.0000      -0.064753        -1.7620 
  60   0.0000      -0.063348        -1.7238 
  61   0.0000      -0.055529        -1.5110 
  62   0.0000      -0.045340        -1.2338 
  63   0.0000      -0.015839        -0.4310 
  64   0.0000       0.004891         0.1331 
  65   0.0000       0.032578         0.8865 
  66   0.0000       0.040295         1.0965 
  67   0.0000       0.058367         1.5882 
  68   0.0000       0.071281         1.9396 
  69   0.0000       0.084306         2.2941 
  70   0.0000       0.093647         2.5483 
  71   0.0000       0.097112         2.6426 
  72   0.0000       0.146499         3.9864 
  73   0.0000       0.155178         4.2226 
  74   0.0000       0.157817         4.2944 
  75   0.0000       0.207504         5.6465 
  76   0.0000       0.229511         6.2453 
  77   0.0000       0.242496         6.5987 
  78   0.0000       0.261480         7.1152 
  79   0.0000       0.297064         8.0835 
  80   0.0000       0.302244         8.2245 
  81   0.0000       0.308221         8.3871 
  82   0.0000       0.337629         9.1873 
  83   0.0000       0.338050         9.1988 
  84   0.0000       0.341735         9.2991 
  85   0.0000       0.349562         9.5121 
  86   0.0000       0.358134         9.7453 
  87   0.0000       0.411945        11.2096 
  88   0.0000       0.418098        11.3770 
  89   0.0000       0.430135        11.7046 
  90   0.0000       0.440579        11.9888 
  91   0.0000       0.444060        12.0835 
  92   0.0000       0.473037        12.8720 
  93   0.0000       0.619106        16.8467 
  94   0.0000       0.758195        20.6315 
  95   0.0000       0.787243        21.4220 
  96   0.0000       1.243198        33.8291 
  97   0.0000       1.272144        34.6168 
  98   0.0000       1.291763        35.1506 
  99   0.0000       1.294680        35.2300 
 100   0.0000       1.298261        35.3275 
 101   0.0000       1.305671        35.5291 
 102   0.0000       1.308126        35.5959 
 103   0.0000       1.308674        35.6108 
 104   0.0000       1.308896        35.6169 
 105   0.0000       1.322021        35.9740 
 106   0.0000       1.323419        36.0121 
 107   0.0000       1.326012        36.0826 
 108   0.0000       1.326242        36.0889 
 109   0.0000       1.334088        36.3024 
 110   0.0000       1.336416        36.3657 
 111   0.0000       1.338336        36.4180 
 112   0.0000       1.345197        36.6047 
 113   0.0000       1.345397        36.6101 
 114   0.0000       1.346122        36.6298 
 115   0.0000       1.350928        36.7606 
 116   0.0000       1.353012        36.8173 
 117   0.0000       1.357244        36.9325 
 118   0.0000       1.374992        37.4154 
 119   0.0000       1.381775        37.6000 
 120   0.0000       1.388526        37.7837 
 121   0.0000       1.399578        38.0845 
 122   0.0000       1.410744        38.3883 
 123   0.0000       1.418231        38.5920 
 124   0.0000       1.424103        38.7518 
 125   0.0000       1.470696        40.0197 
 126   0.0000       1.473245        40.0890 
 127   0.0000       1.484221        40.3877 
 128   0.0000       1.484360        40.3915 
 129   0.0000       1.485297        40.4170 
 130   0.0000       1.517462        41.2922 
 131   0.0000       1.576384        42.8956 
 132   0.0000       1.615263        43.9535 
 133   0.0000       1.616011        43.9739 
 134   0.0000       1.630776        44.3757 
 135   0.0000       1.709593        46.5204 
 136   0.0000       1.749932        47.6181 
 137   0.0000       1.825832        49.6834 
 138   0.0000       1.826447        49.7002 
 139   0.0000       1.828652        49.7601 
 140   0.0000       1.833597        49.8947 
 141   0.0000       1.846943        50.2579 
 142   0.0000       1.876373        51.0587 
 143   0.0000       1.885779        51.3147 
 144   0.0000       1.887173        51.3526 
 145   0.0000       1.898606        51.6637 
 146   0.0000       1.906053        51.8663 
 147   0.0000       1.908402        51.9303 
 148   0.0000       1.921262        52.2802 
 149   0.0000       1.922093        52.3028 
 150   0.0000       1.944243        52.9055 
 151   0.0000       1.958876        53.3037 
 152   0.0000       1.959919        53.3321 
 153   0.0000       1.960282        53.3420 
 154   0.0000       2.017126        54.8888 
 155   0.0000       2.028619        55.2015 
 156   0.0000       2.266374        61.6712 
 157   0.0000       2.370651        64.5087 
 158   0.0000       2.373116        64.5758 
 159   0.0000       2.455369        66.8140 
 160   0.0000       2.596416        70.6521 
 161   0.0000       3.043024        82.8049 
 162   0.0000       3.054207        83.1092 
 163   0.0000       3.104618        84.4810 
 164   0.0000       3.414192        92.9049 
 165   0.0000       3.479114        94.6715 
 166   0.0000       3.591044        97.7173 
 167   0.0000       3.936154       107.1082 
 168   0.0000       4.075954       110.9124 
 169   0.0000       4.584628       124.7541 
 170   0.0000       4.585262       124.7713 
 171   0.0000       4.592229       124.9609 
 172   0.0000       4.595203       125.0418 
 173   0.0000       4.599895       125.1695 
 174   0.0000       4.603419       125.2654 
 175   0.0000       4.604852       125.3044 
 176   0.0000       4.611228       125.4779 
 177   0.0000       4.613410       125.5373 
 178   0.0000       4.621552       125.7588 
 179   0.0000       4.624257       125.8324 
 180   0.0000       4.628461       125.9468 
 181   0.0000       4.636216       126.1579 
 182   0.0000       4.637713       126.1986 
 183   0.0000       4.642909       126.3400 
 184   0.0000       4.654041       126.6429 
 185   0.0000       4.667267       127.0028 
 186   0.0000       4.670363       127.0870 
 187   0.0000       4.704125       128.0058 
 188   0.0000       4.705870       128.0532 
 189   0.0000       4.722777       128.5133 
 190   0.0000       4.750743       129.2743 
 191   0.0000       4.768307       129.7522 
 192   0.0000       4.806339       130.7871 
 193   0.0000       4.808228       130.8385 
 194   0.0000       4.811310       130.9224 
 195   0.0000       4.990384       135.7953 
 196   0.0000       4.999065       136.0315 
 197   0.0000       5.325059       144.9022 
 198   0.0000       5.325957       144.9267 
 199   0.0000       5.326112       144.9309 
 200   0.0000       5.326220       144.9338 
 201   0.0000       5.326726       144.9476 
 202   0.0000       5.327422       144.9665 
 203   0.0000       5.328029       144.9830 
 204   0.0000       5.328193       144.9875 
 205   0.0000       5.328729       145.0021 
 206   0.0000       5.328900       145.0067 
 207   0.0000       5.330298       145.0448 
 208   0.0000       5.330791       145.0582 
 209   0.0000       5.332068       145.0929 
 210   0.0000       5.332311       145.0996 
 211   0.0000       5.332487       145.1043 
 212   0.0000       5.332726       145.1109 
 213   0.0000       5.332894       145.1154 
 214   0.0000       5.333423       145.1298 
 215   0.0000       5.333428       145.1299 
 216   0.0000       5.333588       145.1343 
 217   0.0000       5.334016       145.1460 
 218   0.0000       5.334218       145.1514 
 219   0.0000       5.334298       145.1536 
 220   0.0000       5.334678       145.1640 
 221   0.0000       5.335109       145.1757 
 222   0.0000       5.335212       145.1785 
 223   0.0000       5.335573       145.1883 
 224   0.0000       5.339947       145.3074 
 225   0.0000       5.340623       145.3257 
 226   0.0000       5.343794       145.4120 
 227   0.0000       5.344957       145.4437 
 228   0.0000       5.354705       145.7089 
 229   0.0000       5.377223       146.3217 
 230   0.0000       5.403869       147.0467 
 231   0.0000       5.581311       151.8752 
 232   0.0000       5.670918       154.3135 
 233   0.0000      33.201345       903.4545 
 234   0.0000      33.495678       911.4637 
 235   0.0000      33.521138       912.1565 
 236   0.0000      33.552655       913.0142 
 237   0.0000     110.476101      3006.2075 
 238   0.0000     110.574810      3008.8936 
 239   0.0000     110.578167      3008.9849 
 240   0.0000     110.585219      3009.1768 

                    ********************************
                    * MULLIKEN POPULATION ANALYSIS *
                    ********************************

--------------------------------------------
MULLIKEN ATOMIC CHARGES AND SPIN POPULATIONS
--------------------------------------------
   0 Ag:    0.441702    0.110118
   1 Ag:    0.441700    0.110119
   2 Ag:    0.502221    0.243921
   3 Ag:    0.502225    0.243921
   4 H :    0.112152    0.291921
Sum of atomic charges         :    2.0000000
Sum of atomic spin populations:    1.0000000

-----------------------------------------------------
MULLIKEN REDUCED ORBITAL CHARGES AND SPIN POPULATIONS
-----------------------------------------------------
CHARGE
  0 Ags       :     2.466595  s :     2.466595
      pz      :     2.109911  p :     6.240407
      px      :     2.010311
      py      :     2.120185
      dz2     :     1.984049  d :     9.849544
      dxz     :     1.982600
      dyz     :     1.919861
      dx2y2   :     1.973911
      dxy     :     1.989123
      f0      :     0.000165  f :     0.001728
      f+1     :     0.000095
      f-1     :     0.000299
      f+2     :     0.000598
      f-2     :     0.000100
      f+3     :     0.000131
      f-3     :     0.000340
      g0      :     0.000003  g :     0.000024
      g+1     :     0.000000
      g-1     :     0.000002
      g+2     :     0.000006
      g-2     :     0.000001
      g+3     :     0.000001
      g-3     :     0.000006
      g+4     :     0.000003
      g-4     :     0.000002
  1 Ags       :     2.466596  s :     2.466596
      pz      :     2.109911  p :     6.240408
      px      :     2.010311
      py      :     2.120185
      dz2     :     1.984049  d :     9.849544
      dxz     :     1.982600
      dyz     :     1.919861
      dx2y2   :     1.973911
      dxy     :     1.989123
      f0      :     0.000165  f :     0.001728
      f+1     :     0.000095
      f-1     :     0.000299
      f+2     :     0.000598
      f-2     :     0.000100
      f+3     :     0.000131
      f-3     :     0.000340
      g0      :     0.000003  g :     0.000024
      g+1     :     0.000000
      g-1     :     0.000002
      g+2     :     0.000006
      g-2     :     0.000001
      g+3     :     0.000001
      g-3     :     0.000006
      g+4     :     0.000003
      g-4     :     0.000002
  2 Ags       :     2.441861  s :     2.441861
      pz      :     2.038943  p :     6.123207
      px      :     2.074668
      py      :     2.009597
      dz2     :     1.986025  d :     9.931834
      dxz     :     1.991412
      dyz     :     1.983067
      dx2y2   :     1.981611
      dxy     :     1.989719
      f0      :     0.000086  f :     0.000867
      f+1     :     0.000191
      f-1     :     0.000080
      f+2     :     0.000108
      f-2     :     0.000095
      f+3     :     0.000187
      f-3     :     0.000120
      g0      :     0.000001  g :     0.000009
      g+1     :     0.000001
      g-1     :     0.000000
      g+2     :     0.000001
      g-2     :     0.000001
      g+3     :     0.000001
      g-3     :     0.000001
      g+4     :     0.000002
      g-4     :     0.000001
  3 Ags       :     2.441859  s :     2.441859
      pz      :     2.038943  p :     6.123206
      px      :     2.074667
      py      :     2.009597
      dz2     :     1.986025  d :     9.931834
      dxz     :     1.991412
      dyz     :     1.983067
      dx2y2   :     1.981611
      dxy     :     1.989719
      f0      :     0.000086  f :     0.000867
      f+1     :     0.000191
      f-1     :     0.000080
      f+2     :     0.000108
      f-2     :     0.000095
      f+3     :     0.000187
      f-3     :     0.000120
      g0      :     0.000001  g :     0.000009
      g+1     :     0.000001
      g-1     :     0.000000
      g+2     :     0.000001
      g-2     :     0.000001
      g+3     :     0.000001
      g-3     :     0.000001
      g+4     :     0.000002
      g-4     :     0.000001
  4 H s       :     0.884688  s :     0.884688
      pz      :    -0.012428  p :     0.000050
      px      :     0.004059
      py      :     0.008419
      dz2     :     0.000704  d :     0.003110
      dxz     :     0.000438
      dyz     :     0.000941
      dx2y2   :     0.000589
      dxy     :     0.000438

SPIN
  0 Ags       :    -0.034477  s :    -0.034477
      pz      :     0.086689  p :     0.084211
      px      :     0.000120
      py      :    -0.002598
      dz2     :     0.000300  d :     0.060113
      dxz     :    -0.000648
      dyz     :     0.051876
      dx2y2   :     0.008643
      dxy     :    -0.000058
      f0      :     0.000024  f :     0.000266
      f+1     :     0.000001
      f-1     :     0.000026
      f+2     :     0.000178
      f-2     :    -0.000001
      f+3     :     0.000001
      f-3     :     0.000038
      g0      :     0.000001  g :     0.000004
      g+1     :     0.000000
      g-1     :     0.000000
      g+2     :     0.000002
      g-2     :     0.000000
      g+3     :     0.000000
      g-3     :     0.000001
      g+4     :     0.000000
      g-4     :     0.000000
  1 Ags       :    -0.034477  s :    -0.034477
      pz      :     0.086689  p :     0.084211
      px      :     0.000120
      py      :    -0.002598
      dz2     :     0.000300  d :     0.060113
      dxz     :    -0.000648
      dyz     :     0.051876
      dx2y2   :     0.008643
      dxy     :    -0.000058
      f0      :     0.000024  f :     0.000266
      f+1     :     0.000001
      f-1     :     0.000026
      f+2     :     0.000178
      f-2     :    -0.000001
      f+3     :     0.000001
      f-3     :     0.000038
      g0      :     0.000001  g :     0.000004
      g+1     :     0.000000
      g-1     :     0.000000
      g+2     :     0.000002
      g-2     :     0.000000
      g+3     :     0.000000
      g-3     :     0.000001
      g+4     :     0.000000
      g-4     :     0.000000
  2 Ags       :     0.215477  s :     0.215477
      pz      :    -0.005826  p :     0.027722
      px      :     0.032919
      py      :     0.000629
      dz2     :     0.003001  d :     0.000708
      dxz     :    -0.000481
      dyz     :    -0.000659
      dx2y2   :    -0.000156
      dxy     :    -0.000997
      f0      :     0.000004  f :     0.000014
      f+1     :     0.000011
      f-1     :    -0.000001
      f+2     :     0.000002
      f-2     :    -0.000003
      f+3     :     0.000000
      f-3     :     0.000000
      g0      :    -0.000000  g :    -0.000000
      g+1     :     0.000000
      g-1     :     0.000000
      g+2     :     0.000000
      g-2     :    -0.000000
      g+3     :     0.000000
      g-3     :    -0.000000
      g+4     :    -0.000000
      g-4     :    -0.000000
  3 Ags       :     0.215476  s :     0.215476
      pz      :    -0.005826  p :     0.027722
      px      :     0.032919
      py      :     0.000629
      dz2     :     0.003001  d :     0.000708
      dxz     :    -0.000481
      dyz     :    -0.000659
      dx2y2   :    -0.000156
      dxy     :    -0.000997
      f0      :     0.000004  f :     0.000014
      f+1     :     0.000011
      f-1     :    -0.000001
      f+2     :     0.000002
      f-2     :    -0.000003
      f+3     :     0.000000
      f-3     :     0.000000
      g0      :    -0.000000  g :    -0.000000
      g+1     :     0.000000
      g-1     :     0.000000
      g+2     :     0.000000
      g-2     :    -0.000000
      g+3     :     0.000000
      g-3     :    -0.000000
      g+4     :    -0.000000
      g-4     :    -0.000000
  4 H s       :     0.293305  s :     0.293305
      pz      :    -0.001092  p :    -0.001529
      px      :     0.000244
      py      :    -0.000681
      dz2     :     0.000056  d :     0.000145
      dxz     :     0.000010
      dyz     :     0.000052
      dx2y2   :    -0.000013
      dxy     :     0.000040


                     *******************************
                     * LOEWDIN POPULATION ANALYSIS *
                     *******************************

-------------------------------------------
LOEWDIN ATOMIC CHARGES AND SPIN POPULATIONS
-------------------------------------------
   0 Ag:    0.534444    0.212786
   1 Ag:    0.534444    0.212786
   2 Ag:    0.525086    0.186397
   3 Ag:    0.525086    0.186397
   4 H :   -0.119059    0.201633

----------------------------------------------------
LOEWDIN REDUCED ORBITAL CHARGES AND SPIN POPULATIONS
----------------------------------------------------
CHARGE
  0 Ags       :     2.281167  s :     2.281167
      pz      :     2.176468  p :     6.335443
      px      :     2.014177
      py      :     2.144798
      dz2     :     1.975517  d :     9.845775
      dxz     :     1.981077
      dyz     :     1.930588
      dx2y2   :     1.978052
      dxy     :     1.980541
      f0      :     0.000300  f :     0.003135
      f+1     :     0.000151
      f-1     :     0.000506
      f+2     :     0.001177
      f-2     :     0.000192
      f+3     :     0.000178
      f-3     :     0.000631
      g0      :     0.000005  g :     0.000036
      g+1     :     0.000001
      g-1     :     0.000002
      g+2     :     0.000009
      g-2     :     0.000002
      g+3     :     0.000001
      g-3     :     0.000011
      g+4     :     0.000005
      g-4     :     0.000002
  1 Ags       :     2.281167  s :     2.281167
      pz      :     2.176468  p :     6.335443
      px      :     2.014177
      py      :     2.144798
      dz2     :     1.975517  d :     9.845775
      dxz     :     1.981077
      dyz     :     1.930588
      dx2y2   :     1.978052
      dxy     :     1.980541
      f0      :     0.000300  f :     0.003135
      f+1     :     0.000151
      f-1     :     0.000506
      f+2     :     0.001177
      f-2     :     0.000192
      f+3     :     0.000178
      f-3     :     0.000631
      g0      :     0.000005  g :     0.000036
      g+1     :     0.000001
      g-1     :     0.000002
      g+2     :     0.000009
      g-2     :     0.000002
      g+3     :     0.000001
      g-3     :     0.000011
      g+4     :     0.000005
      g-4     :     0.000002
  2 Ags       :     2.325551  s :     2.325551
      pz      :     2.071736  p :     6.198575
      px      :     2.110759
      py      :     2.016080
      dz2     :     1.990449  d :     9.949385
      dxz     :     1.993954
      dyz     :     1.986806
      dx2y2   :     1.989016
      dxy     :     1.989159
      f0      :     0.000121  f :     0.001391
      f+1     :     0.000356
      f-1     :     0.000133
      f+2     :     0.000146
      f-2     :     0.000177
      f+3     :     0.000282
      f-3     :     0.000174
      g0      :     0.000001  g :     0.000013
      g+1     :     0.000002
      g-1     :     0.000001
      g+2     :     0.000002
      g-2     :     0.000002
      g+3     :     0.000001
      g-3     :     0.000001
      g+4     :     0.000002
      g-4     :     0.000002
  3 Ags       :     2.325551  s :     2.325551
      pz      :     2.071736  p :     6.198575
      px      :     2.110759
      py      :     2.016080
      dz2     :     1.990449  d :     9.949385
      dxz     :     1.993954
      dyz     :     1.986806
      dx2y2   :     1.989016
      dxy     :     1.989159
      f0      :     0.000121  f :     0.001391
      f+1     :     0.000356
      f-1     :     0.000133
      f+2     :     0.000146
      f-2     :     0.000177
      f+3     :     0.000282
      f-3     :     0.000174
      g0      :     0.000001  g :     0.000013
      g+1     :     0.000002
      g-1     :     0.000001
      g+2     :     0.000002
      g-2     :     0.000002
      g+3     :     0.000001
      g-3     :     0.000001
      g+4     :     0.000002
      g-4     :     0.000002
  4 H s       :     0.864970  s :     0.864970
      pz      :     0.108919  p :     0.237692
      px      :     0.033912
      py      :     0.094862
      dz2     :     0.002859  d :     0.016396
      dxz     :     0.001684
      dyz     :     0.006659
      dx2y2   :     0.002940
      dxy     :     0.002255

SPIN
  0 Ags       :    -0.017334  s :    -0.017334
      pz      :     0.142249  p :     0.147613
      px      :     0.000359
      py      :     0.005005
      dz2     :     0.001543  d :     0.081797
      dxz     :     0.000013
      dyz     :     0.069521
      dx2y2   :     0.010488
      dxy     :     0.000233
      f0      :     0.000076  f :     0.000701
      f+1     :     0.000004
      f-1     :     0.000079
      f+2     :     0.000406
      f-2     :     0.000007
      f+3     :     0.000002
      f-3     :     0.000128
      g0      :     0.000001  g :     0.000009
      g+1     :     0.000000
      g-1     :    -0.000000
      g+2     :     0.000004
      g-2     :     0.000000
      g+3     :     0.000000
      g-3     :     0.000003
      g+4     :     0.000001
      g-4     :     0.000000
  1 Ags       :    -0.017334  s :    -0.017334
      pz      :     0.142249  p :     0.147613
      px      :     0.000359
      py      :     0.005005
      dz2     :     0.001543  d :     0.081797
      dxz     :     0.000013
      dyz     :     0.069521
      dx2y2   :     0.010488
      dxy     :     0.000233
      f0      :     0.000076  f :     0.000701
      f+1     :     0.000004
      f-1     :     0.000079
      f+2     :     0.000406
      f-2     :     0.000007
      f+3     :     0.000002
      f-3     :     0.000128
      g0      :     0.000001  g :     0.000009
      g+1     :     0.000000
      g-1     :    -0.000000
      g+2     :     0.000004
      g-2     :     0.000000
      g+3     :     0.000000
      g-3     :     0.000003
      g+4     :     0.000001
      g-4     :     0.000000
  2 Ags       :     0.157077  s :     0.157077
      pz      :    -0.007304  p :     0.026241
      px      :     0.033430
      py      :     0.000115
      dz2     :     0.005126  d :     0.003031
      dxz     :    -0.001447
      dyz     :    -0.000753
      dx2y2   :     0.001213
      dxy     :    -0.001110
      f0      :     0.000006  f :     0.000049
      f+1     :     0.000044
      f-1     :    -0.000004
      f+2     :     0.000003
      f-2     :    -0.000008
      f+3     :     0.000009
      f-3     :    -0.000000
      g0      :    -0.000000  g :     0.000000
      g+1     :     0.000000
      g-1     :     0.000000
      g+2     :     0.000000
      g-2     :    -0.000000
      g+3     :    -0.000000
      g-3     :    -0.000000
      g+4     :     0.000000
      g-4     :     0.000000
  3 Ags       :     0.157077  s :     0.157077
      pz      :    -0.007304  p :     0.026241
      px      :     0.033430
      py      :     0.000115
      dz2     :     0.005126  d :     0.003031
      dxz     :    -0.001447
      dyz     :    -0.000753
      dx2y2   :     0.001213
      dxy     :    -0.001110
      f0      :     0.000006  f :     0.000049
      f+1     :     0.000044
      f-1     :    -0.000004
      f+2     :     0.000003
      f-2     :    -0.000008
      f+3     :     0.000009
      f-3     :    -0.000000
      g0      :    -0.000000  g :     0.000000
      g+1     :     0.000000
      g-1     :     0.000000
      g+2     :     0.000000
      g-2     :    -0.000000
      g+3     :    -0.000000
      g-3     :    -0.000000
      g+4     :     0.000000
      g-4     :     0.000000
  4 H s       :     0.201227  s :     0.201227
      pz      :     0.001261  p :     0.000238
      px      :     0.000205
      py      :    -0.001228
      dz2     :     0.000110  d :     0.000167
      dxz     :     0.000002
      dyz     :    -0.000036
      dx2y2   :     0.000070
      dxy     :     0.000022


                      *****************************
                      * MAYER POPULATION ANALYSIS *
                      *****************************

  NA   - Mulliken gross atomic population
  ZA   - Total nuclear charge
  QA   - Mulliken gross atomic charge
  VA   - Mayer's total valence
  BVA  - Mayer's bonded valence
  FA   - Mayer's free valence

  ATOM       NA         ZA         QA         VA         BVA        FA
  0 Ag    18.5583    19.0000     0.4417     1.3554     1.3207     0.0346
  1 Ag    18.5583    19.0000     0.4417     1.3554     1.3207     0.0346
  2 Ag    18.4978    19.0000     0.5022     0.9881     0.9196     0.0685
  3 Ag    18.4978    19.0000     0.5022     0.9881     0.9196     0.0685
  4 H      0.8878     1.0000     0.1122     0.9909     0.9068     0.0841

  Mayer bond orders larger than 0.100000
B(  0-Ag,  1-Ag) :   0.4115 B(  0-Ag,  2-Ag) :   0.2435 B(  0-Ag,  3-Ag) :   0.2435 
B(  0-Ag,  4-H ) :   0.4223 B(  1-Ag,  2-Ag) :   0.2435 B(  1-Ag,  3-Ag) :   0.2435 
B(  1-Ag,  4-H ) :   0.4223 B(  2-Ag,  3-Ag) :   0.4014 

-------
TIMINGS
-------

Total SCF time: 0 days 0 hours 0 min 20 sec 

Total time                  ....      20.171 sec
Sum of individual times     ....      19.816 sec  ( 98.2%)

Fock matrix formation       ....      17.773 sec  ( 88.1%)
  XC integration            ....       1.582 sec  (  8.9% of F)
    Basis function eval.    ....       0.093 sec  (  5.9% of XC)
    Density eval.           ....       0.279 sec  ( 17.7% of XC)
    XC-Functional eval.     ....       0.043 sec  (  2.7% of XC)
    XC-Potential eval.      ....       0.548 sec  ( 34.6% of XC)
Diagonalization             ....       0.257 sec  (  1.3%)
Density matrix formation    ....       0.028 sec  (  0.1%)
Population analysis         ....       0.020 sec  (  0.1%)
Initial guess               ....       1.221 sec  (  6.1%)
Orbital Transformation      ....       0.000 sec  (  0.0%)
Orbital Orthonormalization  ....       0.000 sec  (  0.0%)
DIIS solution               ....       0.090 sec  (  0.4%)
Grid generation             ....       0.427 sec  (  2.1%)

-------------------------   --------------------
FINAL SINGLE POINT ENERGY      -587.687028019122
-------------------------   --------------------


                            ***************************************
                            *     ORCA property calculations      *
                            ***************************************

                                    ---------------------
                                    Active property flags
                                    ---------------------
   (+) Dipole Moment


------------------------------------------------------------------------------
                       ORCA ELECTRIC PROPERTIES CALCULATION
------------------------------------------------------------------------------

Dipole Moment Calculation                       ... on
Quadrupole Moment Calculation                   ... off
Polarizability Calculation                      ... off
GBWName                                         ... Ag04C2_H_E.gbw
Electron density file                           ... Ag04C2_H_E.scfp
The origin for moment calculation is the CENTER OF MASS  = ( 0.000000,  0.000000 -0.012614)

-------------
DIPOLE MOMENT
-------------
                                X             Y             Z
Electronic contribution:     -0.00000       0.00000      -3.84923
Nuclear contribution   :      0.00000       0.00000       3.49639
                        -----------------------------------------
Total Dipole Moment    :     -0.00000       0.00000      -0.35283
                        -----------------------------------------
Magnitude (a.u.)       :      0.35283
Magnitude (Debye)      :      0.89683



--------------------
Rotational spectrum 
--------------------
 
Rotational constants in cm-1:     0.020671     0.017657     0.017653 
Rotational constants in MHz :   619.701148   529.337252   529.209018 

 Dipole components along the rotational axes: 
x,y,z [a.u.] :    -0.352832    -0.000000     0.000000 
x,y,z [Debye]:    -0.896828    -0.000000     0.000000 

 

Timings for individual modules:

Sum of individual times         ...       22.085 sec (=   0.368 min)
GTO integral calculation        ...        1.547 sec (=   0.026 min)   7.0 %
SCF iterations                  ...       20.539 sec (=   0.342 min)  93.0 %
                             ****ORCA TERMINATED NORMALLY****
TOTAL RUN TIME: 0 days 0 hours 0 minutes 22 seconds 556 msec
