
                                 *****************
                                 * O   R   C   A *
                                 *****************

           --- An Ab Initio, DFT and Semiempirical electronic structure package ---

                  #######################################################
                  #                        -***-                        #
                  #          Department of theory and spectroscopy      #
                  #               Directorship: Frank Neese             #
                  #        Max Planck Institute fuer Kohlenforschung    #
                  #                Kaiser Wilhelm Platz 1               #
                  #                 D-45470 Muelheim/Ruhr               #
                  #                      Germany                        #
                  #                                                     #
                  #                  All rights reserved                #
                  #                        -***-                        #
                  #######################################################


                         Program Version 4.2.0 -  RELEASE  -


 With contributions from (in alphabetic order):
   Daniel Aravena         : Magnetic Suceptibility
   Michael Atanasov       : Ab Initio Ligand Field Theory (pilot matlab implementation)
   Alexander A. Auer      : GIAO ZORA, VPT2
   Ute Becker             : Parallelization
   Giovanni Bistoni       : ED, misc. LED, open-shell LED, HFLED
   Martin Brehm           : Molecular dynamics
   Dmytro Bykov           : SCF Hessian
   Vijay G. Chilkuri      : MRCI spin determinant printing, contributions to CSF-ICE
   Dipayan Datta          : RHF DLPNO-CCSD density
   Achintya Kumar Dutta   : EOM-CC, STEOM-CC
   Dmitry Ganyushin       : Spin-Orbit,Spin-Spin,Magnetic field MRCI
   Miquel Garcia          : C-PCM Hessian, Gaussian charge scheme
   Yang Guo               : DLPNO-NEVPT2, CIM, IAO-localization
   Andreas Hansen         : Spin unrestricted coupled pair/coupled cluster methods
   Benjamin Helmich-Paris : CASSCF linear response (MC-RPA)
   Lee Huntington         : MR-EOM, pCC
   Robert Izsak           : Overlap fitted RIJCOSX, COSX-SCS-MP3, EOM
   Christian Kollmar      : KDIIS, OOCD, Brueckner-CCSD(T), CCSD density
   Simone Kossmann        : Meta GGA functionals, TD-DFT gradient, OOMP2, MP2 Hessian
   Martin Krupicka        : AUTO-CI
   Lucas Lang             : DCDCAS
   Dagmar Lenk            : GEPOL surface, SMD
   Dimitrios Liakos       : Extrapolation schemes; Compound Job, initial MDCI parallelization
   Dimitrios Manganas     : Further ROCIS development; embedding schemes
   Dimitrios Pantazis     : SARC Basis sets
   Taras Petrenko         : DFT Hessian,TD-DFT gradient, ASA, ECA, R-Raman, ABS, FL, XAS/XES, NRVS
   Peter Pinski           : DLPNO-MP2, DLPNO-MP2 Gradient
   Christoph Reimann      : Effective Core Potentials
   Marius Retegan         : Local ZFS, SOC
   Christoph Riplinger    : Optimizer, TS searches, QM/MM, DLPNO-CCSD(T), (RO)-DLPNO pert. Triples
   Tobias Risthaus        : Range-separated hybrids, TD-DFT gradient, RPA, STAB
   Michael Roemelt        : Original ROCIS implementation
   Masaaki Saitow         : Open-shell DLPNO-CCSD energy and density
   Barbara Sandhoefer     : DKH picture change effects
   Avijit Sen             : IP-ROCIS
   Kantharuban Sivalingam : CASSCF convergence, NEVPT2, FIC-MRCI
   Bernardo de Souza      : ESD, SOC TD-DFT
   Georgi Stoychev        : AutoAux, RI-MP2 NMR
   Willem Van den Heuvel  : Paramagnetic NMR
   Boris Wezisla          : Elementary symmetry handling
   Frank Wennmohs         : Technical directorship


 We gratefully acknowledge several colleagues who have allowed us to
 interface, adapt or use parts of their codes:
   Stefan Grimme, W. Hujo, H. Kruse,             : VdW corrections, initial TS optimization,
                  C. Bannwarth                     DFT functionals, gCP, sTDA/sTD-DF
   Ed Valeev, F. Pavosevic, A. Kumar             : LibInt (2-el integral package), F12 methods
   Garnet Chan, S. Sharma, J. Yang, R. Olivares  : DMRG
   Ulf Ekstrom                                   : XCFun DFT Library
   Mihaly Kallay                                 : mrcc  (arbitrary order and MRCC methods)
   Andreas Klamt, Michael Diedenhofen            : otool_cosmo (COSMO solvation model)
   Jiri Pittner, Ondrej Demel                    : Mk-CCSD
   Frank Weinhold                                : gennbo (NPA and NBO analysis)
   Christopher J. Cramer and Donald G. Truhlar   : smd solvation model
   Lars Goerigk                                  : TD-DFT with DH, B97 family of functionals
   V. Asgeirsson, H. Jonsson                     : NEB implementation
   FAccTs GmbH                                   : IRC, NEB, NEB-TS, Multilevel, MM, QM/MM, CI optimization
   S Lehtola, MJT Oliveira, MAL Marques          : LibXC Library


 Your calculation uses the libint2 library for the computation of 2-el integrals
 For citations please refer to: http://libint.valeyev.net

 Your ORCA version has been built with support for libXC version: 4.2.3
 For citations please refer to: https://tddft.org/programs/libxc/

 This ORCA versions uses:
   CBLAS   interface :  Fast vector & matrix operations
   LAPACKE interface :  Fast linear algebra routines
   SCALAPACK package :  Parallel linear algebra routines


Your calculation utilizes the DFT-NL dispersion correction.
Cite in your paper:
Vydrov, O. A.; Van Voorhis, T. J. Chem. Phys. 2010, 133, 244103
Hujo, W.; Grimme, S. J. Chem. Theory Comput. 2011, 7, 3866 
   

----- Orbital basis set information -----
Your calculation utilizes the basis: def2-TZVPPD
   F. Weigend and R. Ahlrichs, Phys. Chem. Chem. Phys. 7, 3297 (2005).
   D. Rappoport and F. Furche, J. Chem. Phys. 133 134105 (2010).

----- AuxJK basis set information -----
Your calculation utilizes the auxiliary basis: def2/JK
   H-Ba, Hf-Rn: F. Weigend, J. Comput. Chem. 29, 167 (2008).

cite the ECPs for Ag [Def2-ECP] as follows:
Ce-Yb(ecp-28): M. Dolg, H. Stoll, H.Preuss, J. Chem. Phys., 1989, 90, 1730-1734.
Y-Cd(ecp-28), Hf-Hg(ecp-46): D. Andrae,U. Haeussermann, M. Dolg, H. Stoll, H. Preuss, Theor. Chim. Acta, 1990, 77, 123-141.
In-Sb(ecp-28), Tl-Bi(ecp-46): B. Metz, H. Stoll, M. Dolg, J. Chem. Phys., 2000, 113, 2563-2569.
Te-Xe(ecp-28), Po-Rn(ecp-46): K. A. Peterson, D. Figgen, E. Goll, H. Stoll, M. Dolg, J. Chem. Phys., 2003, 119, 11113-11123.
Rb(ecp-28), Cs(ecp-46): T. Leininger, A. Nicklass, W. Kuechle, H. Stoll, M. Dolg, A. Bergner, Chem. Phys. Lett., 1996, 255, 274-280.
Sr(ecp-28), Ba(ecp-46): M. Kaupp, P. V. Schleyer, H. Stoll and H. Preuss, J. Chem. Phys., 1991, 94, 1360-1366.
La(ecp-46): M. Dolg, H. Stoll, A. Savin, H. Preuss, Theor. Chim. Acta, 1989, 75, 173-194.
Lu(ecp-28): X. Cao, M. Dolg, J. Chem. Phys., 2001, 115, 7348-7355.

ECP parameters for Ag [Def2-ECP] have been obtained from:
TURBOMOLE (7.0.2)

================================================================================
                                        WARNINGS
                       Please study these warnings very carefully!
================================================================================


INFO   : the flag for use of LIBINT has been found!

================================================================================
                                       INPUT FILE
================================================================================
NAME = Ag04C2.in
|  1> #
|  2> # Ag04C2 wB97M-V/Def2-TZVPPD
|  3> #
|  4> ! wb97m-v def2-tzvppd def2/jk grid4 nofinalgrid
|  5> 
|  6> *xyz 2 1
|  7> Ag      -0.000000   -0.000016    1.715553 
|  8> Ag       0.000000   -1.617524   -0.571836 
|  9> Ag       1.400774    0.808769   -0.571859 
| 10> Ag      -1.400774    0.808770   -0.571858 
| 11> *
| 12> 
| 13> %maxcore 5000
| 14> 
| 15> %pal
| 16> nprocs = 24
| 17> end
| 18> 
| 19> 
| 20>                          ****END OF INPUT****
================================================================================

                       ****************************
                       * Single Point Calculation *
                       ****************************

---------------------------------
CARTESIAN COORDINATES (ANGSTROEM)
---------------------------------
  Ag    -0.000000   -0.000016    1.715553
  Ag     0.000000   -1.617524   -0.571836
  Ag     1.400774    0.808769   -0.571859
  Ag    -1.400774    0.808770   -0.571858

----------------------------
CARTESIAN COORDINATES (A.U.)
----------------------------
  NO LB      ZA    FRAG     MASS         X           Y           Z
   0 Ag   19.0000*   0   107.870   -0.000000   -0.000030    3.241925
   1 Ag   19.0000*   0   107.870    0.000000   -3.056677   -1.080613
   2 Ag   19.0000*   0   107.870    2.647079    1.528352   -1.080657
   3 Ag   19.0000*   0   107.870   -2.647079    1.528354   -1.080655
* core charge reduced due to ECP

--------------------------------
INTERNAL COORDINATES (ANGSTROEM)
--------------------------------
 Ag     0   0   0     0.000000000000     0.00000000     0.00000000
 Ag     1   0   0     2.801513977724     0.00000000     0.00000000
 Ag     1   2   0     2.801527196556    60.00230934     0.00000000
 Ag     1   2   3     2.801526668763    60.00233602    70.52749234

---------------------------
INTERNAL COORDINATES (A.U.)
---------------------------
 Ag     0   0   0     0.000000000000     0.00000000     0.00000000
 Ag     1   0   0     5.294094178251     0.00000000     0.00000000
 Ag     1   2   0     5.294119158224    60.00230934     0.00000000
 Ag     1   2   3     5.294118160840    60.00233602    70.52749234

---------------------
BASIS SET INFORMATION
---------------------
There are 1 groups of distinct atoms

 Group   1 Type Ag  : 7s7p6d2f1g contracted to 6s4p3d2f1g pattern {211111/4111/411/11/1}

Atom   0Ag   basis set group =>   1
Atom   1Ag   basis set group =>   1
Atom   2Ag   basis set group =>   1
Atom   3Ag   basis set group =>   1
----------------------------------
AUXILIARY/JK BASIS SET INFORMATION
----------------------------------
There are 1 groups of distinct atoms

 Group   1 Type Ag  : 13s12p10d9f6g3h2i contracted to 11s10p9d8f6g3h2i pattern {31111111111/3111111111/211111111/21111111/111111/111/11}

Atom   0Ag   basis set group =>   1
Atom   1Ag   basis set group =>   1
Atom   2Ag   basis set group =>   1
Atom   3Ag   basis set group =>   1
-------------------------
ECP PARAMETER INFORMATION
-------------------------

 Group 1, Type Ag ECP Def2-ECP (replacing 28 core electrons, lmax=3)

Atom   0Ag   ECP group =>   1
Atom   1Ag   ECP group =>   1
Atom   2Ag   ECP group =>   1
Atom   3Ag   ECP group =>   1



           ************************************************************
           *        Program running with 24 parallel MPI-processes    *
           *              working on a common directory               *
           ************************************************************
------------------------------------------------------------------------------
                           ORCA GTO INTEGRAL CALCULATION
------------------------------------------------------------------------------

                         BASIS SET STATISTICS AND STARTUP INFO

 # of primitive gaussian shells          ...   92
 # of primitive gaussian functions       ...  324
 # of contracted shells                  ...   64
 # of contracted basis functions         ...  224
 Highest angular momentum                ...    4
 Maximum contraction depth               ...    4
 Integral package used                   ... LIBINT
 Integral threshhold            Thresh   ...  1.000e-10
 Primitive cut-off              TCut     ...  1.000e-11


------------------------------ INTEGRAL EVALUATION ----------------------------


 * One electron integrals 

   ECP integrals                         ... done
 Pre-screening matrix                    ... done
 Shell pair data                         ... done (   0.000 sec)



           ************************************************************
           *        Program running with 24 parallel MPI-processes    *
           *              working on a common directory               *
           ************************************************************
-------------------------------------------------------------------------------
                                 ORCA SCF
-------------------------------------------------------------------------------

------------
SCF SETTINGS
------------
Hamiltonian:
 Density Functional     Method          .... DFT(GTOs)
 Exchange Functional    Exchange        .... WB97M-V
 Correlation Functional Correlation     .... WB97M-V
 Gradients option       PostSCFGGA      .... off
 Hybrid DFT is turned on
   Fraction HF Exchange ScalHFX         ....  0.150000
   Scaling of DF-GGA-X  ScalDFX         ....  0.000000
   Scaling of DF-GGA-C  ScalDFC         ....  1.000000
   Scaling of DF-LDA-C  ScalLDAC        ....  1.000000
   Perturbative correction              ....  0.000000
   Density functional embedding theory  .... OFF
 Long-range corrected/Screened/Range-Separated Hybrid DFT is turned on
   Amount of maximum screened exact exchange              ....  0.850000
   Range separation parameter mu (erf(mu*r12)/r12)        ....  0.300000
   NL short-range parameter             ....  6.000000
   NL long-range parameter              ....  0.010000


General Settings:
 Integral files         IntName         .... Ag04C2
 Hartree-Fock type      HFTyp           .... RHF
 Total Charge           Charge          ....    2
 Multiplicity           Mult            ....    1
 Number of Electrons    NEL             ....   74
 Basis Dimension        Dim             ....  224
 Nuclear Repulsion      ENuc            ....    409.1285852923 Eh

Convergence Acceleration:
 DIIS                   CNVDIIS         .... on
   Start iteration      DIISMaxIt       ....    12
   Startup error        DIISStart       ....  0.200000
   # of expansion vecs  DIISMaxEq       ....     5
   Bias factor          DIISBfac        ....   1.050
   Max. coefficient     DIISMaxC        ....  10.000
 Newton-Raphson         CNVNR           .... off
 SOSCF                  CNVSOSCF        .... off
 Level Shifting         CNVShift        .... on
   Level shift para.    LevelShift      ....    0.2500
   Turn off err/grad.   ShiftErr        ....    0.0010
 Zerner damping         CNVZerner       .... off
 Static damping         CNVDamp         .... on
   Fraction old density DampFac         ....    0.7000
   Max. Damping (<1)    DampMax         ....    0.9800
   Min. Damping (>=0)   DampMin         ....    0.0000
   Turn off err/grad.   DampErr         ....    0.1000
 Fernandez-Rico         CNVRico         .... off

SCF Procedure:
 Maximum # iterations   MaxIter         ....   125
 SCF integral mode      SCFMode         .... Direct
   Integral package                     .... LIBINT
 Reset frequency        DirectResetFreq ....    20
 Integral Threshold     Thresh          ....  1.000e-10 Eh
 Primitive CutOff       TCut            ....  1.000e-11 Eh

Convergence Tolerance:
 Convergence Check Mode ConvCheckMode   .... Total+1el-Energy
 Convergence forced     ConvForced      .... 0
 Energy Change          TolE            ....  1.000e-06 Eh
 1-El. energy change                    ....  1.000e-03 Eh
 DIIS Error             TolErr          ....  1.000e-06


Diagonalization of the overlap matrix:
Smallest eigenvalue                        ... 1.939e-03
Time for diagonalization                   ...    0.009 sec
Threshold for overlap eigenvalues          ... 1.000e-08
Number of eigenvalues below threshold      ... 0
Time for construction of square roots      ...    0.007 sec
Total time needed                          ...    0.016 sec

-------------------
DFT GRID GENERATION
-------------------

General Integration Accuracy     IntAcc      ...  4.670
Radial Grid Type                 RadialGrid  ... Gauss-Chebyshev
Angular Grid (max. acc.)         AngularGrid ... Lebedev-302
Angular grid pruning method      GridPruning ... 3 (G Style)
Weight generation scheme         WeightScheme... Becke
Basis function cutoff            BFCut       ...    1.0000e-10
Integration weight cutoff        WCut        ...    1.0000e-14
Grids for H and He will be reduced by one unit

# of grid points (after initial pruning)     ...  42632 (   0.0 sec)
# of grid points (after weights+screening)   ...  42209 (   0.0 sec)
nearest neighbour list constructed           ...    0.0 sec
Grid point re-assignment to atoms done       ...    0.0 sec
Grid point division into batches done        ...    0.4 sec
Reduced shell lists constructed in    0.4 sec

Total number of grid points                  ...    42209
Total number of batches                      ...      661
Average number of points per batch           ...       63
Average number of grid points per atom       ...    10552
Average number of shells per batch           ...     9.14 (14.28%)
Average number of basis functions per batch  ...    21.62 ( 9.65%)
Average number of large shells per batch     ...     5.93 (64.91%)
Average number of large basis fcns per batch ...    12.90 (59.65%)
Maximum spatial batch extension              ...  27.29, 26.58, 26.39 au
Average spatial batch extension              ...   0.56,  0.58,  0.53 au

Time for grid setup =    0.419 sec

------------------------------
INITIAL GUESS: MODEL POTENTIAL
------------------------------
Loading Hartree-Fock densities                     ... done
  calling /sw/apps/orca/orca_4_2_0_linux_x86-64_openmpi314/orca Ag04C2_atom47.inp > Ag04C2_atom47.out in order to generate an atomic fitting density for atom 0 (Ag with ECP) on-the-fly... 
    atom 0 (Ag), assumed electronic state with S=2: 1s2 2s2 2p6 3s2 3p6 4s2 3d10 4p6 5s2 4d9           ... done
Calculating cut-offs                               ... done
Setting up the integral package                    ... done
Initializing the effective Hamiltonian             ... done
Starting the Coulomb interaction                   ... done (   0.0 sec)
Reading the grid                                   ... done
Mapping shells                                     ... done
Starting the XC term evaluation                    ... done (   0.0 sec)
  promolecular density results
     # of electrons  =    188.001841056
     EX              =   -573.770022464
     EC              =     -9.973742427
     EX+EC           =   -583.743764890
Transforming the Hamiltonian                       ... done (   0.0 sec)
Diagonalizing the Hamiltonian                      ... done (   0.0 sec)
Back transforming the eigenvectors                 ... done (   0.0 sec)
Now organizing SCF variables                       ... done
                      ------------------
                      INITIAL GUESS DONE (   1.7 sec)
                      ------------------
--------------
SCF ITERATIONS
--------------
ITER       Energy         Delta-E        Max-DP      RMS-DP      [F,P]     Damp
               ***  Starting incremental Fock matrix formation  ***
  0   -587.1962488935   0.000000000000 0.07587369  0.00144944  0.5182362 0.7000
  1   -587.3007559689  -0.104507075395 0.04133183  0.00082953  0.3472683 0.7000
  2   -587.3469503443  -0.046194375375 0.01933928  0.00039044  0.2335601 0.7000
                               ***Turning on DIIS***
  3   -587.3748952379  -0.027944893625 0.00955519  0.00020204  0.1599410 0.7000
  4   -587.3942725997  -0.019377361767 0.00425949  0.00013525  0.1110545 0.7000
  5   -587.4079082696  -0.013635669876 0.01366153  0.00038196  0.0785800 0.0000
  6   -587.4402265160  -0.032318246424 0.00208081  0.00006116  0.0021877 0.0000
  7   -587.4402867468  -0.000060230869 0.00120756  0.00003172  0.0014239 0.0000
  8   -587.4403089315  -0.000022184691 0.00195185  0.00004074  0.0008041 0.0000
  9   -587.4403220587  -0.000013127163 0.00022475  0.00000435  0.0000670 0.0000
                 **** Energy Check signals convergence ****

               *****************************************************
               *                     SUCCESS                       *
               *           SCF CONVERGED AFTER  10 CYCLES          *
               *****************************************************


Setting up the DFT-NL grid :

General Integration Accuracy     IntAcc      ...  4.340
Radial Grid Type                 RadialGrid  ... Gauss-Chebyshev
Angular Grid (max. acc.)         AngularGrid ... Lebedev-110
Angular grid pruning method      GridPruning ... 3 (G Style)
Weight generation scheme         WeightScheme... Becke
Basis function cutoff            BFCut       ...    1.0000e-10
Integration weight cutoff        WCut        ...    1.0000e-14
Grids for H and He will be reduced by one unit

# of grid points (after initial pruning)     ...  13032 (   0.0 sec)
# of grid points (after weights+screening)   ...  12930 (   0.0 sec)
nearest neighbour list constructed           ...    0.0 sec
Grid point re-assignment to atoms done       ...    0.0 sec
Grid point division into batches done        ...    0.0 sec
Reduced shell lists constructed in    0.0 sec

Total number of grid points                  ...    12930
Total number of batches                      ...      204
Average number of points per batch           ...       63
Average number of grid points per atom       ...     3232
Average number of shells per batch           ...    14.30 (22.34%)
Average number of basis functions per batch  ...    37.10 (16.56%)
Average number of large shells per batch     ...     9.70 (67.83%)
Average number of large basis fcns per batch ...    22.90 (61.73%)
Maximum spatial batch extension              ...  39.26, 27.83, 20.50 au
Average spatial batch extension              ...   0.92,  0.77,  0.63 au

Final grid set up in    0.1 sec

-------------------------------------------------------------------------------
                         DFT-NL dispersion correction                          
-------------------------------------------------------------------------------

SC Energy -587.440322259 
NL    Energy 0.282484731 
SC+NL Energy -587.157837528 
NL done in    0.1 sec
-------------------------------------------------------------------------------

----------------
TOTAL SCF ENERGY
----------------

Total Energy       :         -587.15783753 Eh          -15977.37703 eV

Components:
Nuclear Repulsion  :          409.12858529 Eh           11132.95479 eV
Electronic Energy  :         -996.28642282 Eh          -27110.33183 eV
One Electron Energy:        -1834.63946019 Eh          -49923.07775 eV
Two Electron Energy:          838.35303737 Eh           22812.74592 eV

Virial components:
Potential Energy   :         -812.79238053 Eh          -22117.20509 eV
Kinetic Energy     :          225.63454300 Eh            6139.82806 eV
Virial Ratio       :            3.60225154


DFT components:
N(Alpha)           :       36.999996030411 electrons
N(Beta)            :       36.999996030411 electrons
N(Total)           :       73.999992060822 electrons
E(X)               :      -35.707674061030 Eh       
E(C)               :       -2.734906097913 Eh       
NL Energy, E(C,NL) :        0.282484730559 Eh       
E(XC)              :      -38.160095428384 Eh       
DFET-embed. en.    :        0.000000000000 Eh       

---------------
SCF CONVERGENCE
---------------

  Last Energy change         ...   -1.9996e-07  Tolerance :   1.0000e-06
  Last MAX-Density change    ...    9.7486e-05  Tolerance :   1.0000e-05
  Last RMS-Density change    ...    1.7861e-06  Tolerance :   1.0000e-06
  Last DIIS Error            ...    2.8105e-05  Tolerance :   1.0000e-06

             **** THE GBW FILE WAS UPDATED (Ag04C2.gbw) ****
             **** DENSITY FILE WAS UPDATED (Ag04C2.scfp) ****
             **** ENERGY FILE WAS UPDATED (Ag04C2.en.tmp) ****
             **** THE GBW FILE WAS UPDATED (Ag04C2.gbw) ****
             **** DENSITY FILE WAS UPDATED (Ag04C2.scfp) ****
----------------
ORBITAL ENERGIES
----------------

  NO   OCC          E(Eh)            E(eV) 
   0   2.0000      -4.240665      -115.3944 
   1   2.0000      -4.240400      -115.3872 
   2   2.0000      -4.240399      -115.3871 
   3   2.0000      -4.240398      -115.3871 
   4   2.0000      -2.830532       -77.0227 
   5   2.0000      -2.828436       -76.9657 
   6   2.0000      -2.828436       -76.9656 
   7   2.0000      -2.828435       -76.9656 
   8   2.0000      -2.827554       -76.9416 
   9   2.0000      -2.827552       -76.9416 
  10   2.0000      -2.826279       -76.9069 
  11   2.0000      -2.826278       -76.9069 
  12   2.0000      -2.826277       -76.9069 
  13   2.0000      -2.826231       -76.9056 
  14   2.0000      -2.826229       -76.9056 
  15   2.0000      -2.826229       -76.9056 
  16   2.0000      -0.861458       -23.4415 
  17   2.0000      -0.839249       -22.8371 
  18   2.0000      -0.839238       -22.8368 
  19   2.0000      -0.839227       -22.8365 
  20   2.0000      -0.832037       -22.6409 
  21   2.0000      -0.832028       -22.6406 
  22   2.0000      -0.817674       -22.2500 
  23   2.0000      -0.817672       -22.2500 
  24   2.0000      -0.817658       -22.2496 
  25   2.0000      -0.797211       -21.6932 
  26   2.0000      -0.797198       -21.6928 
  27   2.0000      -0.797195       -21.6928 
  28   2.0000      -0.794886       -21.6300 
  29   2.0000      -0.794875       -21.6297 
  30   2.0000      -0.793705       -21.5978 
  31   2.0000      -0.793691       -21.5974 
  32   2.0000      -0.793674       -21.5970 
  33   2.0000      -0.774108       -21.0645 
  34   2.0000      -0.774106       -21.0645 
  35   2.0000      -0.774095       -21.0642 
  36   2.0000      -0.699656       -19.0386 
  37   0.0000      -0.365239        -9.9387 
  38   0.0000      -0.365234        -9.9385 
  39   0.0000      -0.365232        -9.9385 
  40   0.0000      -0.267216        -7.2713 
  41   0.0000      -0.249969        -6.8020 
  42   0.0000      -0.249968        -6.8020 
  43   0.0000      -0.249965        -6.8019 
  44   0.0000      -0.240619        -6.5476 
  45   0.0000      -0.240616        -6.5475 
  46   0.0000      -0.152414        -4.1474 
  47   0.0000      -0.152411        -4.1473 
  48   0.0000      -0.152410        -4.1473 
  49   0.0000      -0.145668        -3.9638 
  50   0.0000      -0.145666        -3.9638 
  51   0.0000      -0.145665        -3.9637 
  52   0.0000      -0.104133        -2.8336 
  53   0.0000      -0.081237        -2.2106 
  54   0.0000      -0.057730        -1.5709 
  55   0.0000      -0.057729        -1.5709 
  56   0.0000      -0.057726        -1.5708 
  57   0.0000      -0.052382        -1.4254 
  58   0.0000      -0.052380        -1.4253 
  59   0.0000      -0.046866        -1.2753 
  60   0.0000      -0.046863        -1.2752 
  61   0.0000      -0.046856        -1.2750 
  62   0.0000       0.049981         1.3601 
  63   0.0000       0.049986         1.3602 
  64   0.0000       0.049986         1.3602 
  65   0.0000       0.091552         2.4913 
  66   0.0000       0.091556         2.4914 
  67   0.0000       0.091563         2.4916 
  68   0.0000       0.118509         3.2248 
  69   0.0000       0.118519         3.2251 
  70   0.0000       0.118521         3.2251 
  71   0.0000       0.235472         6.4075 
  72   0.0000       0.235478         6.4077 
  73   0.0000       0.250217         6.8087 
  74   0.0000       0.261331         7.1112 
  75   0.0000       0.261334         7.1113 
  76   0.0000       0.261339         7.1114 
  77   0.0000       0.343763         9.3543 
  78   0.0000       0.343771         9.3545 
  79   0.0000       0.343778         9.3547 
  80   0.0000       0.355343         9.6694 
  81   0.0000       0.355348         9.6695 
  82   0.0000       0.409211        11.1352 
  83   0.0000       0.409217        11.1354 
  84   0.0000       0.409221        11.1355 
  85   0.0000       0.454901        12.3785 
  86   0.0000       0.454903        12.3785 
  87   0.0000       0.454908        12.3787 
  88   0.0000       1.255207        34.1559 
  89   0.0000       1.255234        34.1567 
  90   0.0000       1.293015        35.1847 
  91   0.0000       1.293041        35.1854 
  92   0.0000       1.293048        35.1856 
  93   0.0000       1.303040        35.4575 
  94   0.0000       1.305467        35.5236 
  95   0.0000       1.305497        35.5244 
  96   0.0000       1.305502        35.5245 
  97   0.0000       1.320631        35.9362 
  98   0.0000       1.320658        35.9369 
  99   0.0000       1.320667        35.9372 
 100   0.0000       1.324389        36.0385 
 101   0.0000       1.333647        36.2904 
 102   0.0000       1.333653        36.2905 
 103   0.0000       1.335418        36.3386 
 104   0.0000       1.335438        36.3391 
 105   0.0000       1.335458        36.3397 
 106   0.0000       1.348302        36.6892 
 107   0.0000       1.364802        37.1382 
 108   0.0000       1.364809        37.1383 
 109   0.0000       1.364829        37.1389 
 110   0.0000       1.372250        37.3408 
 111   0.0000       1.372254        37.3409 
 112   0.0000       1.372262        37.3411 
 113   0.0000       1.398701        38.0606 
 114   0.0000       1.398702        38.0606 
 115   0.0000       1.398716        38.0610 
 116   0.0000       1.403739        38.1977 
 117   0.0000       1.403752        38.1980 
 118   0.0000       1.403756        38.1982 
 119   0.0000       1.481580        40.3158 
 120   0.0000       1.492522        40.6136 
 121   0.0000       1.492524        40.6136 
 122   0.0000       1.500476        40.8300 
 123   0.0000       1.500479        40.8301 
 124   0.0000       1.500493        40.8305 
 125   0.0000       1.636255        44.5248 
 126   0.0000       1.636256        44.5248 
 127   0.0000       1.636272        44.5252 
 128   0.0000       1.731846        47.1259 
 129   0.0000       1.819220        49.5035 
 130   0.0000       1.819247        49.5042 
 131   0.0000       1.819272        49.5049 
 132   0.0000       1.845069        50.2069 
 133   0.0000       1.845133        50.2086 
 134   0.0000       1.846931        50.2576 
 135   0.0000       1.846978        50.2588 
 136   0.0000       1.846992        50.2592 
 137   0.0000       1.926848        52.4322 
 138   0.0000       1.926911        52.4339 
 139   0.0000       1.926921        52.4342 
 140   0.0000       1.931161        52.5496 
 141   0.0000       1.931199        52.5506 
 142   0.0000       1.931268        52.5525 
 143   0.0000       1.942325        52.8533 
 144   0.0000       1.942337        52.8537 
 145   0.0000       1.942372        52.8546 
 146   0.0000       1.947252        52.9874 
 147   0.0000       1.947320        52.9893 
 148   0.0000       2.360185        64.2239 
 149   0.0000       2.498085        67.9763 
 150   0.0000       2.498131        67.9776 
 151   0.0000       2.498155        67.9783 
 152   0.0000       4.565983       124.2467 
 153   0.0000       4.566033       124.2481 
 154   0.0000       4.588551       124.8608 
 155   0.0000       4.588605       124.8623 
 156   0.0000       4.588641       124.8633 
 157   0.0000       4.594880       125.0330 
 158   0.0000       4.607121       125.3661 
 159   0.0000       4.607152       125.3670 
 160   0.0000       4.607175       125.3676 
 161   0.0000       4.608292       125.3980 
 162   0.0000       4.608309       125.3985 
 163   0.0000       4.608321       125.3988 
 164   0.0000       4.611229       125.4779 
 165   0.0000       4.620694       125.7355 
 166   0.0000       4.647575       126.4670 
 167   0.0000       4.647588       126.4673 
 168   0.0000       4.647627       126.4684 
 169   0.0000       4.659411       126.7890 
 170   0.0000       4.659424       126.7894 
 171   0.0000       4.659491       126.7912 
 172   0.0000       4.670106       127.0801 
 173   0.0000       4.670113       127.0802 
 174   0.0000       4.791367       130.3797 
 175   0.0000       4.791413       130.3810 
 176   0.0000       4.791476       130.3827 
 177   0.0000       4.796026       130.5065 
 178   0.0000       4.796064       130.5075 
 179   0.0000       4.796114       130.5089 
 180   0.0000       5.333553       145.1334 
 181   0.0000       5.333604       145.1347 
 182   0.0000       5.333788       145.1398 
 183   0.0000       5.333793       145.1399 
 184   0.0000       5.333889       145.1425 
 185   0.0000       5.334026       145.1462 
 186   0.0000       5.334049       145.1469 
 187   0.0000       5.334211       145.1513 
 188   0.0000       5.334299       145.1537 
 189   0.0000       5.334540       145.1602 
 190   0.0000       5.334637       145.1629 
 191   0.0000       5.334760       145.1662 
 192   0.0000       5.334781       145.1668 
 193   0.0000       5.335091       145.1752 
 194   0.0000       5.335291       145.1806 
 195   0.0000       5.335355       145.1824 
 196   0.0000       5.335651       145.1904 
 197   0.0000       5.335669       145.1909 
 198   0.0000       5.335828       145.1953 
 199   0.0000       5.335889       145.1969 
 200   0.0000       5.335912       145.1975 
 201   0.0000       5.336045       145.2012 
 202   0.0000       5.336103       145.2027 
 203   0.0000       5.336305       145.2082 
 204   0.0000       5.336342       145.2092 
 205   0.0000       5.336398       145.2108 
 206   0.0000       5.336593       145.2161 
 207   0.0000       5.336675       145.2183 
 208   0.0000       5.337303       145.2354 
 209   0.0000       5.337313       145.2357 
 210   0.0000       5.338018       145.2549 
 211   0.0000       5.338471       145.2672 
 212   0.0000       5.338516       145.2684 
 213   0.0000       5.352003       145.6354 
 214   0.0000       5.352016       145.6358 
 215   0.0000       5.352079       145.6375 
 216   0.0000      33.170769       902.6225 
 217   0.0000      33.574474       913.6079 
 218   0.0000      33.574475       913.6079 
 219   0.0000      33.574496       913.6085 
 220   0.0000     110.471187      3006.0738 
 221   0.0000     110.600594      3009.5952 
 222   0.0000     110.600596      3009.5952 
 223   0.0000     110.600601      3009.5954 

                    ********************************
                    * MULLIKEN POPULATION ANALYSIS *
                    ********************************

-----------------------
MULLIKEN ATOMIC CHARGES
-----------------------
   0 Ag:    0.500066
   1 Ag:    0.499877
   2 Ag:    0.500026
   3 Ag:    0.500031
Sum of atomic charges:    2.0000000

--------------------------------
MULLIKEN REDUCED ORBITAL CHARGES
--------------------------------
  0 Ags       :     2.450439  s :     2.450439
      pz      :     2.106724  p :     6.128779
      px      :     2.011027
      py      :     2.011028
      dz2     :     1.991186  d :     9.919558
      dxz     :     1.969945
      dyz     :     1.969958
      dx2y2   :     1.994235
      dxy     :     1.994234
      f0      :     0.000171  f :     0.001146
      f+1     :     0.000262
      f-1     :     0.000261
      f+2     :     0.000190
      f-2     :     0.000190
      f+3     :     0.000031
      f-3     :     0.000042
      g0      :     0.000001  g :     0.000012
      g+1     :     0.000002
      g-1     :     0.000002
      g+2     :     0.000002
      g-2     :     0.000002
      g+3     :     0.000001
      g-3     :     0.000001
      g+4     :     0.000000
      g-4     :     0.000000
  1 Ags       :     2.450534  s :     2.450534
      pz      :     2.021666  p :     6.128851
      px      :     2.011025
      py      :     2.096160
      dz2     :     1.980165  d :     9.919580
      dxz     :     1.996443
      dyz     :     1.982462
      dx2y2   :     1.992768
      dxy     :     1.967742
      f0      :     0.000122  f :     0.001146
      f+1     :     0.000081
      f-1     :     0.000270
      f+2     :     0.000109
      f-2     :     0.000129
      f+3     :     0.000273
      f-3     :     0.000162
      g0      :     0.000001  g :     0.000012
      g+1     :     0.000000
      g-1     :     0.000002
      g+2     :     0.000002
      g-2     :     0.000002
      g+3     :     0.000001
      g-3     :     0.000001
      g+4     :     0.000002
      g-4     :     0.000002
  2 Ags       :     2.450455  s :     2.450455
      pz      :     2.021664  p :     6.128791
      px      :     2.074829
      py      :     2.032298
      dz2     :     1.980162  d :     9.919570
      dxz     :     1.985955
      dyz     :     1.992947
      dx2y2   :     1.974006
      dxy     :     1.986499
      f0      :     0.000122  f :     0.001146
      f+1     :     0.000223
      f-1     :     0.000128
      f+2     :     0.000124
      f-2     :     0.000114
      f+3     :     0.000273
      f-3     :     0.000162
      g0      :     0.000001  g :     0.000012
      g+1     :     0.000002
      g-1     :     0.000001
      g+2     :     0.000002
      g-2     :     0.000002
      g+3     :     0.000001
      g-3     :     0.000001
      g+4     :     0.000002
      g-4     :     0.000002
  3 Ags       :     2.450451  s :     2.450451
      pz      :     2.021664  p :     6.128790
      px      :     2.074828
      py      :     2.032298
      dz2     :     1.980162  d :     9.919570
      dxz     :     1.985955
      dyz     :     1.992947
      dx2y2   :     1.974006
      dxy     :     1.986499
      f0      :     0.000122  f :     0.001146
      f+1     :     0.000223
      f-1     :     0.000128
      f+2     :     0.000124
      f-2     :     0.000114
      f+3     :     0.000273
      f-3     :     0.000162
      g0      :     0.000001  g :     0.000012
      g+1     :     0.000002
      g-1     :     0.000001
      g+2     :     0.000002
      g-2     :     0.000002
      g+3     :     0.000001
      g-3     :     0.000001
      g+4     :     0.000002
      g-4     :     0.000002


                     *******************************
                     * LOEWDIN POPULATION ANALYSIS *
                     *******************************

----------------------
LOEWDIN ATOMIC CHARGES
----------------------
   0 Ag:    0.499997
   1 Ag:    0.499999
   2 Ag:    0.500002
   3 Ag:    0.500002

-------------------------------
LOEWDIN REDUCED ORBITAL CHARGES
-------------------------------
  0 Ags       :     2.340048  s :     2.340048
      pz      :     2.178052  p :     6.218858
      px      :     2.020404
      py      :     2.020403
      dz2     :     1.996009  d :     9.939289
      dxz     :     1.976704
      dyz     :     1.976716
      dx2y2   :     1.994930
      dxy     :     1.994929
      f0      :     0.000235  f :     0.001790
      f+1     :     0.000451
      f-1     :     0.000451
      f+2     :     0.000275
      f-2     :     0.000275
      f+3     :     0.000048
      f-3     :     0.000054
      g0      :     0.000002  g :     0.000017
      g+1     :     0.000003
      g-1     :     0.000003
      g+2     :     0.000003
      g-2     :     0.000003
      g+3     :     0.000001
      g-3     :     0.000001
      g+4     :     0.000000
      g-4     :     0.000000
  1 Ags       :     2.340039  s :     2.340039
      pz      :     2.037917  p :     6.218861
      px      :     2.020400
      py      :     2.160545
      dz2     :     1.986075  d :     9.939293
      dxz     :     1.995590
      dyz     :     1.986317
      dx2y2   :     1.995266
      dxy     :     1.976046
      f0      :     0.000165  f :     0.001790
      f+1     :     0.000125
      f-1     :     0.000462
      f+2     :     0.000167
      f-2     :     0.000178
      f+3     :     0.000472
      f-3     :     0.000221
      g0      :     0.000002  g :     0.000017
      g+1     :     0.000001
      g-1     :     0.000002
      g+2     :     0.000002
      g-2     :     0.000002
      g+3     :     0.000002
      g-3     :     0.000001
      g+4     :     0.000002
      g-4     :     0.000004
  2 Ags       :     2.340033  s :     2.340033
      pz      :     2.037918  p :     6.218856
      px      :     2.125500
      py      :     2.055439
      dz2     :     1.986075  d :     9.939302
      dxz     :     1.988636
      dyz     :     1.993272
      dx2y2   :     1.980861
      dxy     :     1.990458
      f0      :     0.000165  f :     0.001790
      f+1     :     0.000378
      f-1     :     0.000209
      f+2     :     0.000175
      f-2     :     0.000170
      f+3     :     0.000472
      f-3     :     0.000221
      g0      :     0.000002  g :     0.000017
      g+1     :     0.000002
      g-1     :     0.000001
      g+2     :     0.000002
      g-2     :     0.000002
      g+3     :     0.000001
      g-3     :     0.000001
      g+4     :     0.000003
      g-4     :     0.000003
  3 Ags       :     2.340033  s :     2.340033
      pz      :     2.037918  p :     6.218856
      px      :     2.125500
      py      :     2.055439
      dz2     :     1.986075  d :     9.939302
      dxz     :     1.988636
      dyz     :     1.993272
      dx2y2   :     1.980861
      dxy     :     1.990458
      f0      :     0.000165  f :     0.001790
      f+1     :     0.000378
      f-1     :     0.000209
      f+2     :     0.000175
      f-2     :     0.000170
      f+3     :     0.000472
      f-3     :     0.000221
      g0      :     0.000002  g :     0.000017
      g+1     :     0.000002
      g-1     :     0.000001
      g+2     :     0.000002
      g-2     :     0.000002
      g+3     :     0.000001
      g-3     :     0.000001
      g+4     :     0.000003
      g-4     :     0.000003


                      *****************************
                      * MAYER POPULATION ANALYSIS *
                      *****************************

  NA   - Mulliken gross atomic population
  ZA   - Total nuclear charge
  QA   - Mulliken gross atomic charge
  VA   - Mayer's total valence
  BVA  - Mayer's bonded valence
  FA   - Mayer's free valence

  ATOM       NA         ZA         QA         VA         BVA        FA
  0 Ag    18.4999    19.0000     0.5001     1.0058     1.0058     0.0000
  1 Ag    18.5001    19.0000     0.4999     1.0060     1.0060    -0.0000
  2 Ag    18.5000    19.0000     0.5000     1.0058     1.0058     0.0000
  3 Ag    18.5000    19.0000     0.5000     1.0058     1.0058    -0.0000

  Mayer bond orders larger than 0.100000
B(  0-Ag,  1-Ag) :   0.3353 B(  0-Ag,  2-Ag) :   0.3352 B(  0-Ag,  3-Ag) :   0.3352 
B(  1-Ag,  2-Ag) :   0.3353 B(  1-Ag,  3-Ag) :   0.3353 B(  2-Ag,  3-Ag) :   0.3352 


-------
TIMINGS
-------

Total SCF time: 0 days 0 hours 0 min 13 sec 

Total time                  ....      13.480 sec
Sum of individual times     ....      13.211 sec  ( 98.0%)

Fock matrix formation       ....      11.320 sec  ( 84.0%)
  XC integration            ....       0.546 sec  (  4.8% of F)
    Basis function eval.    ....       0.061 sec  ( 11.2% of XC)
    Density eval.           ....       0.107 sec  ( 19.6% of XC)
    XC-Functional eval.     ....       0.029 sec  (  5.3% of XC)
    XC-Potential eval.      ....       0.213 sec  ( 39.1% of XC)
Diagonalization             ....       0.075 sec  (  0.6%)
Density matrix formation    ....       0.012 sec  (  0.1%)
Population analysis         ....       0.008 sec  (  0.1%)
Initial guess               ....       1.291 sec  (  9.6%)
Orbital Transformation      ....       0.000 sec  (  0.0%)
Orbital Orthonormalization  ....       0.000 sec  (  0.0%)
DIIS solution               ....       0.034 sec  (  0.2%)
Grid generation             ....       0.472 sec  (  3.5%)

-------------------------   --------------------
FINAL SINGLE POINT ENERGY      -587.157837528103
-------------------------   --------------------


                            ***************************************
                            *     ORCA property calculations      *
                            ***************************************

                                    ---------------------
                                    Active property flags
                                    ---------------------
   (+) Dipole Moment


------------------------------------------------------------------------------
                       ORCA ELECTRIC PROPERTIES CALCULATION
------------------------------------------------------------------------------

Dipole Moment Calculation                       ... on
Quadrupole Moment Calculation                   ... off
Polarizability Calculation                      ... off
GBWName                                         ... Ag04C2.gbw
Electron density file                           ... Ag04C2.scfp
The origin for moment calculation is the CENTER OF MASS  = ( 0.000000, -0.000000  0.000000)

-------------
DIPOLE MOMENT
-------------
                                X             Y             Z
Electronic contribution:      0.00000      -0.00001      -0.00002
Nuclear contribution   :      0.00000      -0.00000       0.00000
                        -----------------------------------------
Total Dipole Moment    :      0.00000      -0.00001      -0.00002
                        -----------------------------------------
Magnitude (a.u.)       :      0.00002
Magnitude (Debye)      :      0.00005



--------------------
Rotational spectrum 
--------------------
 
Rotational constants in cm-1:     0.019912     0.019911     0.019911 
Rotational constants in MHz :   596.940436   596.919431   596.905399 

 Dipole components along the rotational axes: 
x,y,z [a.u.] :    -0.000002     0.000000    -0.000021 
x,y,z [Debye]:    -0.000006     0.000000    -0.000054 

 

Timings for individual modules:

Sum of individual times         ...       15.237 sec (=   0.254 min)
GTO integral calculation        ...        1.400 sec (=   0.023 min)   9.2 %
SCF iterations                  ...       13.837 sec (=   0.231 min)  90.8 %
                             ****ORCA TERMINATED NORMALLY****
TOTAL RUN TIME: 0 days 0 hours 0 minutes 15 seconds 709 msec
