
                                 *****************
                                 * O   R   C   A *
                                 *****************

           --- An Ab Initio, DFT and Semiempirical electronic structure package ---

                  #######################################################
                  #                        -***-                        #
                  #          Department of theory and spectroscopy      #
                  #               Directorship: Frank Neese             #
                  #        Max Planck Institute fuer Kohlenforschung    #
                  #                Kaiser Wilhelm Platz 1               #
                  #                 D-45470 Muelheim/Ruhr               #
                  #                      Germany                        #
                  #                                                     #
                  #                  All rights reserved                #
                  #                        -***-                        #
                  #######################################################


                         Program Version 4.2.0 -  RELEASE  -


 With contributions from (in alphabetic order):
   Daniel Aravena         : Magnetic Suceptibility
   Michael Atanasov       : Ab Initio Ligand Field Theory (pilot matlab implementation)
   Alexander A. Auer      : GIAO ZORA, VPT2
   Ute Becker             : Parallelization
   Giovanni Bistoni       : ED, misc. LED, open-shell LED, HFLED
   Martin Brehm           : Molecular dynamics
   Dmytro Bykov           : SCF Hessian
   Vijay G. Chilkuri      : MRCI spin determinant printing, contributions to CSF-ICE
   Dipayan Datta          : RHF DLPNO-CCSD density
   Achintya Kumar Dutta   : EOM-CC, STEOM-CC
   Dmitry Ganyushin       : Spin-Orbit,Spin-Spin,Magnetic field MRCI
   Miquel Garcia          : C-PCM Hessian, Gaussian charge scheme
   Yang Guo               : DLPNO-NEVPT2, CIM, IAO-localization
   Andreas Hansen         : Spin unrestricted coupled pair/coupled cluster methods
   Benjamin Helmich-Paris : CASSCF linear response (MC-RPA)
   Lee Huntington         : MR-EOM, pCC
   Robert Izsak           : Overlap fitted RIJCOSX, COSX-SCS-MP3, EOM
   Christian Kollmar      : KDIIS, OOCD, Brueckner-CCSD(T), CCSD density
   Simone Kossmann        : Meta GGA functionals, TD-DFT gradient, OOMP2, MP2 Hessian
   Martin Krupicka        : AUTO-CI
   Lucas Lang             : DCDCAS
   Dagmar Lenk            : GEPOL surface, SMD
   Dimitrios Liakos       : Extrapolation schemes; Compound Job, initial MDCI parallelization
   Dimitrios Manganas     : Further ROCIS development; embedding schemes
   Dimitrios Pantazis     : SARC Basis sets
   Taras Petrenko         : DFT Hessian,TD-DFT gradient, ASA, ECA, R-Raman, ABS, FL, XAS/XES, NRVS
   Peter Pinski           : DLPNO-MP2, DLPNO-MP2 Gradient
   Christoph Reimann      : Effective Core Potentials
   Marius Retegan         : Local ZFS, SOC
   Christoph Riplinger    : Optimizer, TS searches, QM/MM, DLPNO-CCSD(T), (RO)-DLPNO pert. Triples
   Tobias Risthaus        : Range-separated hybrids, TD-DFT gradient, RPA, STAB
   Michael Roemelt        : Original ROCIS implementation
   Masaaki Saitow         : Open-shell DLPNO-CCSD energy and density
   Barbara Sandhoefer     : DKH picture change effects
   Avijit Sen             : IP-ROCIS
   Kantharuban Sivalingam : CASSCF convergence, NEVPT2, FIC-MRCI
   Bernardo de Souza      : ESD, SOC TD-DFT
   Georgi Stoychev        : AutoAux, RI-MP2 NMR
   Willem Van den Heuvel  : Paramagnetic NMR
   Boris Wezisla          : Elementary symmetry handling
   Frank Wennmohs         : Technical directorship


 We gratefully acknowledge several colleagues who have allowed us to
 interface, adapt or use parts of their codes:
   Stefan Grimme, W. Hujo, H. Kruse,             : VdW corrections, initial TS optimization,
                  C. Bannwarth                     DFT functionals, gCP, sTDA/sTD-DF
   Ed Valeev, F. Pavosevic, A. Kumar             : LibInt (2-el integral package), F12 methods
   Garnet Chan, S. Sharma, J. Yang, R. Olivares  : DMRG
   Ulf Ekstrom                                   : XCFun DFT Library
   Mihaly Kallay                                 : mrcc  (arbitrary order and MRCC methods)
   Andreas Klamt, Michael Diedenhofen            : otool_cosmo (COSMO solvation model)
   Jiri Pittner, Ondrej Demel                    : Mk-CCSD
   Frank Weinhold                                : gennbo (NPA and NBO analysis)
   Christopher J. Cramer and Donald G. Truhlar   : smd solvation model
   Lars Goerigk                                  : TD-DFT with DH, B97 family of functionals
   V. Asgeirsson, H. Jonsson                     : NEB implementation
   FAccTs GmbH                                   : IRC, NEB, NEB-TS, Multilevel, MM, QM/MM, CI optimization
   S Lehtola, MJT Oliveira, MAL Marques          : LibXC Library


 Your calculation uses the libint2 library for the computation of 2-el integrals
 For citations please refer to: http://libint.valeyev.net

 Your ORCA version has been built with support for libXC version: 4.2.3
 For citations please refer to: https://tddft.org/programs/libxc/

 This ORCA versions uses:
   CBLAS   interface :  Fast vector & matrix operations
   LAPACKE interface :  Fast linear algebra routines
   SCALAPACK package :  Parallel linear algebra routines


Your calculation utilizes the DFT-NL dispersion correction.
Cite in your paper:
Vydrov, O. A.; Van Voorhis, T. J. Chem. Phys. 2010, 133, 244103
Hujo, W.; Grimme, S. J. Chem. Theory Comput. 2011, 7, 3866 
   

----- Orbital basis set information -----
Your calculation utilizes the basis: def2-TZVPPD
   F. Weigend and R. Ahlrichs, Phys. Chem. Chem. Phys. 7, 3297 (2005).
   D. Rappoport and F. Furche, J. Chem. Phys. 133 134105 (2010).

----- AuxJK basis set information -----
Your calculation utilizes the auxiliary basis: def2/JK
   H-Ba, Hf-Rn: F. Weigend, J. Comput. Chem. 29, 167 (2008).

cite the ECPs for Au [Def2-ECP] as follows:
Ce-Yb(ecp-28): M. Dolg, H. Stoll, H.Preuss, J. Chem. Phys., 1989, 90, 1730-1734.
Y-Cd(ecp-28), Hf-Hg(ecp-46): D. Andrae,U. Haeussermann, M. Dolg, H. Stoll, H. Preuss, Theor. Chim. Acta, 1990, 77, 123-141.
In-Sb(ecp-28), Tl-Bi(ecp-46): B. Metz, H. Stoll, M. Dolg, J. Chem. Phys., 2000, 113, 2563-2569.
Te-Xe(ecp-28), Po-Rn(ecp-46): K. A. Peterson, D. Figgen, E. Goll, H. Stoll, M. Dolg, J. Chem. Phys., 2003, 119, 11113-11123.
Rb(ecp-28), Cs(ecp-46): T. Leininger, A. Nicklass, W. Kuechle, H. Stoll, M. Dolg, A. Bergner, Chem. Phys. Lett., 1996, 255, 274-280.
Sr(ecp-28), Ba(ecp-46): M. Kaupp, P. V. Schleyer, H. Stoll and H. Preuss, J. Chem. Phys., 1991, 94, 1360-1366.
La(ecp-46): M. Dolg, H. Stoll, A. Savin, H. Preuss, Theor. Chim. Acta, 1989, 75, 173-194.
Lu(ecp-28): X. Cao, M. Dolg, J. Chem. Phys., 2001, 115, 7348-7355.

ECP parameters for Au [Def2-ECP] have been obtained from:
TURBOMOLE (7.0.2)

================================================================================
                                        WARNINGS
                       Please study these warnings very carefully!
================================================================================


INFO   : the flag for use of LIBINT has been found!

================================================================================
                                       INPUT FILE
================================================================================
NAME = Au01N0_H.in
|  1> #
|  2> # Au01N0_H wB97M-V/Def2-TZVPPD
|  3> #
|  4> ! wb97m-v def2-tzvppd def2/jk grid4 nofinalgrid
|  5> 
|  6> *xyz 0 1
|  7> Au       0.000000    0.000000    0.019034 
|  8> H        0.000000    0.000000   -1.503691 
|  9> *
| 10> 
| 11> %maxcore 5000
| 12> 
| 13> %pal
| 14> nprocs = 24
| 15> end
| 16> 
| 17> 
| 18>                          ****END OF INPUT****
================================================================================

                       ****************************
                       * Single Point Calculation *
                       ****************************

---------------------------------
CARTESIAN COORDINATES (ANGSTROEM)
---------------------------------
  Au     0.000000    0.000000    0.019034
  H      0.000000    0.000000   -1.503691

----------------------------
CARTESIAN COORDINATES (A.U.)
----------------------------
  NO LB      ZA    FRAG     MASS         X           Y           Z
   0 Au   19.0000*   0   196.966    0.000000    0.000000    0.035969
   1 H     1.0000    0     1.008    0.000000    0.000000   -2.841564
* core charge reduced due to ECP

--------------------------------
INTERNAL COORDINATES (ANGSTROEM)
--------------------------------
 Au     0   0   0     0.000000000000     0.00000000     0.00000000
 H      1   0   0     1.522725000000     0.00000000     0.00000000

---------------------------
INTERNAL COORDINATES (A.U.)
---------------------------
 Au     0   0   0     0.000000000000     0.00000000     0.00000000
 H      1   0   0     2.877533227275     0.00000000     0.00000000

---------------------
BASIS SET INFORMATION
---------------------
There are 2 groups of distinct atoms

 Group   1 Type Au  : 8s8p6d2f1g contracted to 6s5p3d2f1g pattern {311111/41111/411/11/1}
 Group   2 Type H   : 5s3p1d contracted to 3s3p1d pattern {311/111/1}

Atom   0Au   basis set group =>   1
Atom   1H    basis set group =>   2
----------------------------------
AUXILIARY/JK BASIS SET INFORMATION
----------------------------------
There are 2 groups of distinct atoms

 Group   1 Type Au  : 13s12p11d9f5g3h2i contracted to 13s11p10d8f4g3h2i pattern {1111111111111/21111111111/2111111111/21111111/2111/111/11}
 Group   2 Type H   : 4s2p2d contracted to 2s2p2d pattern {31/11/11}

Atom   0Au   basis set group =>   1
Atom   1H    basis set group =>   2
-------------------------
ECP PARAMETER INFORMATION
-------------------------

 Group 1, Type Au ECP Def2-ECP (replacing 60 core electrons, lmax=3)

Atom   0Au   ECP group =>   1



           ************************************************************
           *        Program running with 24 parallel MPI-processes    *
           *              working on a common directory               *
           ************************************************************
------------------------------------------------------------------------------
                           ORCA GTO INTEGRAL CALCULATION
------------------------------------------------------------------------------

                         BASIS SET STATISTICS AND STARTUP INFO

 # of primitive gaussian shells          ...   34
 # of primitive gaussian functions       ...  104
 # of contracted shells                  ...   24
 # of contracted basis functions         ...   76
 Highest angular momentum                ...    4
 Maximum contraction depth               ...    4
 Integral package used                   ... LIBINT
 Integral threshhold            Thresh   ...  1.000e-10
 Primitive cut-off              TCut     ...  1.000e-11


------------------------------ INTEGRAL EVALUATION ----------------------------


 * One electron integrals 

   ECP integrals                         ... done
 Pre-screening matrix                    ... done
 Shell pair data                         ... done (   0.000 sec)



           ************************************************************
           *        Program running with 24 parallel MPI-processes    *
           *              working on a common directory               *
           ************************************************************
-------------------------------------------------------------------------------
                                 ORCA SCF
-------------------------------------------------------------------------------

------------
SCF SETTINGS
------------
Hamiltonian:
 Density Functional     Method          .... DFT(GTOs)
 Exchange Functional    Exchange        .... WB97M-V
 Correlation Functional Correlation     .... WB97M-V
 Gradients option       PostSCFGGA      .... off
 Hybrid DFT is turned on
   Fraction HF Exchange ScalHFX         ....  0.150000
   Scaling of DF-GGA-X  ScalDFX         ....  0.000000
   Scaling of DF-GGA-C  ScalDFC         ....  1.000000
   Scaling of DF-LDA-C  ScalLDAC        ....  1.000000
   Perturbative correction              ....  0.000000
   Density functional embedding theory  .... OFF
 Long-range corrected/Screened/Range-Separated Hybrid DFT is turned on
   Amount of maximum screened exact exchange              ....  0.850000
   Range separation parameter mu (erf(mu*r12)/r12)        ....  0.300000
   NL short-range parameter             ....  6.000000
   NL long-range parameter              ....  0.010000


General Settings:
 Integral files         IntName         .... Au01N0_H
 Hartree-Fock type      HFTyp           .... RHF
 Total Charge           Charge          ....    0
 Multiplicity           Mult            ....    1
 Number of Electrons    NEL             ....   20
 Basis Dimension        Dim             ....   76
 Nuclear Repulsion      ENuc            ....      6.6028777079 Eh

Convergence Acceleration:
 DIIS                   CNVDIIS         .... on
   Start iteration      DIISMaxIt       ....    12
   Startup error        DIISStart       ....  0.200000
   # of expansion vecs  DIISMaxEq       ....     5
   Bias factor          DIISBfac        ....   1.050
   Max. coefficient     DIISMaxC        ....  10.000
 Newton-Raphson         CNVNR           .... off
 SOSCF                  CNVSOSCF        .... off
 Level Shifting         CNVShift        .... on
   Level shift para.    LevelShift      ....    0.2500
   Turn off err/grad.   ShiftErr        ....    0.0010
 Zerner damping         CNVZerner       .... off
 Static damping         CNVDamp         .... on
   Fraction old density DampFac         ....    0.7000
   Max. Damping (<1)    DampMax         ....    0.9800
   Min. Damping (>=0)   DampMin         ....    0.0000
   Turn off err/grad.   DampErr         ....    0.1000
 Fernandez-Rico         CNVRico         .... off

SCF Procedure:
 Maximum # iterations   MaxIter         ....   125
 SCF integral mode      SCFMode         .... Direct
   Integral package                     .... LIBINT
 Reset frequency        DirectResetFreq ....    20
 Integral Threshold     Thresh          ....  1.000e-10 Eh
 Primitive CutOff       TCut            ....  1.000e-11 Eh

Convergence Tolerance:
 Convergence Check Mode ConvCheckMode   .... Total+1el-Energy
 Convergence forced     ConvForced      .... 0
 Energy Change          TolE            ....  1.000e-06 Eh
 1-El. energy change                    ....  1.000e-03 Eh
 DIIS Error             TolErr          ....  1.000e-06


Diagonalization of the overlap matrix:
Smallest eigenvalue                        ... 2.371e-03
Time for diagonalization                   ...    0.002 sec
Threshold for overlap eigenvalues          ... 1.000e-08
Number of eigenvalues below threshold      ... 0
Time for construction of square roots      ...    0.001 sec
Total time needed                          ...    0.004 sec

-------------------
DFT GRID GENERATION
-------------------

General Integration Accuracy     IntAcc      ...  4.670
Radial Grid Type                 RadialGrid  ... Gauss-Chebyshev
Angular Grid (max. acc.)         AngularGrid ... Lebedev-302
Angular grid pruning method      GridPruning ... 3 (G Style)
Weight generation scheme         WeightScheme... Becke
Basis function cutoff            BFCut       ...    1.0000e-10
Integration weight cutoff        WCut        ...    1.0000e-14
Grids for H and He will be reduced by one unit

# of grid points (after initial pruning)     ...  15046 (   0.0 sec)
# of grid points (after weights+screening)   ...  15004 (   0.0 sec)
nearest neighbour list constructed           ...    0.0 sec
Grid point re-assignment to atoms done       ...    0.0 sec
Grid point division into batches done        ...    0.1 sec
Reduced shell lists constructed in    0.1 sec

Total number of grid points                  ...    15004
Total number of batches                      ...      235
Average number of points per batch           ...       63
Average number of grid points per atom       ...     7502
Average number of shells per batch           ...     1.55 ( 6.44%)
Average number of basis functions per batch  ...     3.91 ( 5.14%)
Average number of large shells per batch     ...     1.27 (82.35%)
Average number of large basis fcns per batch ...     3.45 (88.37%)
Maximum spatial batch extension              ...  41.49, 37.74, 22.16 au
Average spatial batch extension              ...   1.25,  1.14,  0.83 au

Time for grid setup =    0.148 sec

------------------------------
INITIAL GUESS: MODEL POTENTIAL
------------------------------
Loading Hartree-Fock densities                     ... done
  calling /sw/apps/orca/orca_4_2_0_linux_x86-64_openmpi314/orca Au01N0_H_atom79.inp > Au01N0_H_atom79.out in order to generate an atomic fitting density for atom 0 (Au with ECP) on-the-fly... 
    atom 0 (Au), assumed electronic state with S=2: 1s2 2s2 2p6 3s2 3p6 4s2 3d10 4p6 5s2 4d10 5p6 6s1 4f14 5d10           ... done
Calculating cut-offs                               ... done
Setting up the integral package                    ... done
Initializing the effective Hamiltonian             ... done
Starting the Coulomb interaction                   ... done (   0.0 sec)
Reading the grid                                   ... done
Mapping shells                                     ... done
Starting the XC term evaluation                    ... done (   0.0 sec)
  promolecular density results
     # of electrons  =     80.002903992
     EX              =   -366.087238890
     EC              =     -4.843832197
     EX+EC           =   -370.931071087
Transforming the Hamiltonian                       ... done (   0.0 sec)
Diagonalizing the Hamiltonian                      ... done (   0.0 sec)
Back transforming the eigenvectors                 ... done (   0.0 sec)
Now organizing SCF variables                       ... done
                      ------------------
                      INITIAL GUESS DONE (   1.2 sec)
                      ------------------
--------------
SCF ITERATIONS
--------------
ITER       Energy         Delta-E        Max-DP      RMS-DP      [F,P]     Damp
               ***  Starting incremental Fock matrix formation  ***
  0   -136.2109605392   0.000000000000 0.24303477  0.00463460  0.5762695 0.7000
  1   -136.2438417374  -0.032881198242 0.16959230  0.00326771  0.3997916 0.7000
  2   -136.2616044761  -0.017762738673 0.11117720  0.00212240  0.2767072 0.7000
                               ***Turning on DIIS***
  3   -136.2730125386  -0.011408062442 0.07526223  0.00143230  0.1927072 0.7000
  4   -136.2809937768  -0.007981238228 0.05316257  0.00103522  0.1349056 0.7000
  5   -136.2866648760  -0.005671099213 0.13718321  0.00274847  0.0949915 0.0000
  6   -136.3003689946  -0.013704118558 0.01745506  0.00034051  0.0035892 0.0000
  7   -136.3004520797  -0.000083085148 0.00796839  0.00015861  0.0025120 0.0000
  8   -136.3004924494  -0.000040369694 0.00997103  0.00020511  0.0018259 0.0000
  9   -136.3005260716  -0.000033622221 0.00365708  0.00008996  0.0011779 0.0000
 10   -136.3005372577  -0.000011186069 0.00218010  0.00008398  0.0006680 0.0000
 11   -136.3005426478  -0.000005390137 0.00044310  0.00001550  0.0001480 0.0000
                 **** Energy Check signals convergence ****

               *****************************************************
               *                     SUCCESS                       *
               *           SCF CONVERGED AFTER  12 CYCLES          *
               *****************************************************


Setting up the DFT-NL grid :

General Integration Accuracy     IntAcc      ...  4.340
Radial Grid Type                 RadialGrid  ... Gauss-Chebyshev
Angular Grid (max. acc.)         AngularGrid ... Lebedev-110
Angular grid pruning method      GridPruning ... 3 (G Style)
Weight generation scheme         WeightScheme... Becke
Basis function cutoff            BFCut       ...    1.0000e-10
Integration weight cutoff        WCut        ...    1.0000e-14
Grids for H and He will be reduced by one unit

# of grid points (after initial pruning)     ...   4324 (   0.0 sec)
# of grid points (after weights+screening)   ...   4293 (   0.0 sec)
nearest neighbour list constructed           ...    0.0 sec
Grid point re-assignment to atoms done       ...    0.0 sec
Grid point division into batches done        ...    0.0 sec
Reduced shell lists constructed in    0.0 sec

Total number of grid points                  ...     4293
Total number of batches                      ...       68
Average number of points per batch           ...       63
Average number of grid points per atom       ...     2146
Average number of shells per batch           ...     7.50 (31.25%)
Average number of basis functions per batch  ...    21.50 (28.29%)
Average number of large shells per batch     ...     5.25 (70.00%)
Average number of large basis fcns per batch ...    12.75 (59.30%)
Maximum spatial batch extension              ...  27.21, 49.51, 26.07 au
Average spatial batch extension              ...   1.11,  1.87,  1.11 au

Final grid set up in    0.0 sec

-------------------------------------------------------------------------------
                         DFT-NL dispersion correction                          
-------------------------------------------------------------------------------

SC Energy -136.300542849 
NL    Energy 0.077197824 
SC+NL Energy -136.223345025 
NL done in    0.0 sec
-------------------------------------------------------------------------------

----------------
TOTAL SCF ENERGY
----------------

Total Energy       :         -136.22334503 Eh           -3706.82567 eV

Components:
Nuclear Repulsion  :            6.60287771 Eh             179.67344 eV
Electronic Energy  :         -142.82622273 Eh           -3886.49911 eV
One Electron Energy:         -252.11965805 Eh           -6860.52468 eV
Two Electron Energy:          109.29343532 Eh            2974.02557 eV

Virial components:
Potential Energy   :         -182.66355042 Eh           -4970.52790 eV
Kinetic Energy     :           46.44020539 Eh            1263.70223 eV
Virial Ratio       :            3.93330626


DFT components:
N(Alpha)           :       10.000001170656 electrons
N(Beta)            :       10.000001170656 electrons
N(Total)           :       20.000002341312 electrons
E(X)               :       -7.993634672335 Eh       
E(C)               :       -0.699248089714 Eh       
NL Energy, E(C,NL) :        0.077197824190 Eh       
E(XC)              :       -8.615684937859 Eh       
DFET-embed. en.    :        0.000000000000 Eh       

---------------
SCF CONVERGENCE
---------------

  Last Energy change         ...   -2.0141e-07  Tolerance :   1.0000e-06
  Last MAX-Density change    ...    1.3051e-04  Tolerance :   1.0000e-05
  Last RMS-Density change    ...    4.5834e-06  Tolerance :   1.0000e-06
  Last DIIS Error            ...    4.7180e-05  Tolerance :   1.0000e-06

             **** THE GBW FILE WAS UPDATED (Au01N0_H.gbw) ****
             **** DENSITY FILE WAS UPDATED (Au01N0_H.scfp) ****
             **** ENERGY FILE WAS UPDATED (Au01N0_H.en.tmp) ****
             **** THE GBW FILE WAS UPDATED (Au01N0_H.gbw) ****
             **** DENSITY FILE WAS UPDATED (Au01N0_H.scfp) ****
----------------
ORBITAL ENERGIES
----------------

  NO   OCC          E(Eh)            E(eV) 
   0   2.0000      -4.294711      -116.8650 
   1   2.0000      -2.480096       -67.4868 
   2   2.0000      -2.459792       -66.9343 
   3   2.0000      -2.459792       -66.9343 
   4   2.0000      -0.523229       -14.2378 
   5   2.0000      -0.433571       -11.7981 
   6   2.0000      -0.433571       -11.7981 
   7   2.0000      -0.413714       -11.2577 
   8   2.0000      -0.413713       -11.2577 
   9   2.0000      -0.353137        -9.6093 
  10   0.0000      -0.025102        -0.6831 
  11   0.0000       0.037712         1.0262 
  12   0.0000       0.037712         1.0262 
  13   0.0000       0.105385         2.8677 
  14   0.0000       0.137307         3.7363 
  15   0.0000       0.220439         5.9984 
  16   0.0000       0.220439         5.9984 
  17   0.0000       0.243139         6.6162 
  18   0.0000       0.269204         7.3254 
  19   0.0000       0.269204         7.3254 
  20   0.0000       0.374544        10.1919 
  21   0.0000       0.374545        10.1919 
  22   0.0000       0.428716        11.6660 
  23   0.0000       0.454108        12.3569 
  24   0.0000       0.454108        12.3569 
  25   0.0000       0.500703        13.6248 
  26   0.0000       0.533153        14.5078 
  27   0.0000       0.888879        24.1876 
  28   0.0000       0.888879        24.1876 
  29   0.0000       1.032842        28.1051 
  30   0.0000       1.147747        31.2318 
  31   0.0000       1.147747        31.2318 
  32   0.0000       1.213269        33.0147 
  33   0.0000       1.213272        33.0148 
  34   0.0000       1.233075        33.5537 
  35   0.0000       1.233075        33.5537 
  36   0.0000       1.289560        35.0907 
  37   0.0000       1.394548        37.9476 
  38   0.0000       1.394548        37.9476 
  39   0.0000       1.530339        41.6426 
  40   0.0000       1.579733        42.9867 
  41   0.0000       1.579735        42.9868 
  42   0.0000       1.699202        46.2376 
  43   0.0000       1.699202        46.2376 
  44   0.0000       2.054682        55.9107 
  45   0.0000       2.380946        64.7888 
  46   0.0000       2.615657        71.1757 
  47   0.0000       3.226304        87.7922 
  48   0.0000       3.226368        87.7939 
  49   0.0000       3.405421        92.6662 
  50   0.0000       3.405421        92.6662 
  51   0.0000       3.619936        98.5035 
  52   0.0000       3.702478       100.7495 
  53   0.0000       3.702478       100.7495 
  54   0.0000       3.746079       101.9360 
  55   0.0000       3.746097       101.9365 
  56   0.0000       3.788461       103.0893 
  57   0.0000       3.788461       103.0893 
  58   0.0000       3.886255       105.7504 
  59   0.0000       3.919623       106.6584 
  60   0.0000       3.919623       106.6584 
  61   0.0000       4.243274       115.4653 
  62   0.0000       4.243274       115.4653 
  63   0.0000       4.253937       115.7555 
  64   0.0000       4.253984       115.7568 
  65   0.0000       4.300504       117.0227 
  66   0.0000       4.300507       117.0228 
  67   0.0000       4.627750       125.9275 
  68   0.0000       4.895163       133.2042 
  69   0.0000       4.895163       133.2042 
  70   0.0000       5.555525       151.1735 
  71   0.0000      27.511291       748.6203 
  72   0.0000      27.511291       748.6203 
  73   0.0000      29.952804       815.0572 
  74   0.0000      44.442076      1209.3304 
  75   0.0000     205.309620      5586.7588 

                    ********************************
                    * MULLIKEN POPULATION ANALYSIS *
                    ********************************

-----------------------
MULLIKEN ATOMIC CHARGES
-----------------------
   0 Au:   -0.151582
   1 H :    0.151582
Sum of atomic charges:    0.0000000

--------------------------------
MULLIKEN REDUCED ORBITAL CHARGES
--------------------------------
  0 Aus       :     3.327978  s :     3.327978
      pz      :     2.086440  p :     6.086622
      px      :     2.000091
      py      :     2.000091
      dz2     :     1.758323  d :     9.731529
      dxz     :     1.986879
      dyz     :     1.986879
      dx2y2   :     1.999724
      dxy     :     1.999724
      f0      :     0.004782  f :     0.005080
      f+1     :     0.000020
      f-1     :     0.000020
      f+2     :     0.000129
      f-2     :     0.000129
      f+3     :     0.000000
      f-3     :     0.000000
      g0      :     0.000264  g :     0.000373
      g+1     :     0.000045
      g-1     :     0.000045
      g+2     :     0.000010
      g-2     :     0.000010
      g+3     :     0.000000
      g-3     :     0.000000
      g+4     :     0.000000
      g-4     :     0.000000
  1 H s       :     0.827480  s :     0.827480
      pz      :    -0.007309  p :     0.015272
      px      :     0.011291
      py      :     0.011291
      dz2     :     0.002043  d :     0.005666
      dxz     :     0.001675
      dyz     :     0.001675
      dx2y2   :     0.000137
      dxy     :     0.000137


                     *******************************
                     * LOEWDIN POPULATION ANALYSIS *
                     *******************************

----------------------
LOEWDIN ATOMIC CHARGES
----------------------
   0 Au:    0.352684
   1 H :   -0.352684

-------------------------------
LOEWDIN REDUCED ORBITAL CHARGES
-------------------------------
  0 Aus       :     2.960283  s :     2.960283
      pz      :     2.037960  p :     6.032307
      px      :     1.997173
      py      :     1.997173
      dz2     :     1.758205  d :     9.645867
      dxz     :     1.944598
      dyz     :     1.944598
      dx2y2   :     1.999234
      dxy     :     1.999234
      f0      :     0.007225  f :     0.008600
      f+1     :     0.000547
      f-1     :     0.000547
      f+2     :     0.000140
      f-2     :     0.000140
      f+3     :     0.000000
      f-3     :     0.000000
      g0      :     0.000239  g :     0.000258
      g+1     :     0.000001
      g-1     :     0.000001
      g+2     :     0.000008
      g-2     :     0.000008
      g+3     :     0.000000
      g-3     :     0.000000
      g+4     :     0.000000
      g-4     :     0.000000
  1 H s       :     1.057807  s :     1.057807
      pz      :     0.158532  p :     0.252160
      px      :     0.046814
      py      :     0.046814
      dz2     :     0.019749  d :     0.042717
      dxz     :     0.010866
      dyz     :     0.010866
      dx2y2   :     0.000617
      dxy     :     0.000617


                      *****************************
                      * MAYER POPULATION ANALYSIS *
                      *****************************

  NA   - Mulliken gross atomic population
  ZA   - Total nuclear charge
  QA   - Mulliken gross atomic charge
  VA   - Mayer's total valence
  BVA  - Mayer's bonded valence
  FA   - Mayer's free valence

  ATOM       NA         ZA         QA         VA         BVA        FA
  0 Au    19.1516    19.0000    -0.1516     1.0535     1.0535     0.0000
  1 H      0.8484     1.0000     0.1516     1.0535     1.0535     0.0000

  Mayer bond orders larger than 0.100000
B(  0-Au,  1-H ) :   1.0535 

-------
TIMINGS
-------

Total SCF time: 0 days 0 hours 0 min 3 sec 

Total time                  ....       3.690 sec
Sum of individual times     ....       3.504 sec  ( 95.0%)

Fock matrix formation       ....       2.273 sec  ( 61.6%)
  XC integration            ....       0.150 sec  (  6.6% of F)
    Basis function eval.    ....       0.015 sec  (  9.8% of XC)
    Density eval.           ....       0.019 sec  ( 12.3% of XC)
    XC-Functional eval.     ....       0.013 sec  (  8.3% of XC)
    XC-Potential eval.      ....       0.032 sec  ( 21.4% of XC)
Diagonalization             ....       0.011 sec  (  0.3%)
Density matrix formation    ....       0.007 sec  (  0.2%)
Population analysis         ....       0.002 sec  (  0.1%)
Initial guess               ....       1.043 sec  ( 28.3%)
Orbital Transformation      ....       0.000 sec  (  0.0%)
Orbital Orthonormalization  ....       0.000 sec  (  0.0%)
DIIS solution               ....       0.008 sec  (  0.2%)
Grid generation             ....       0.160 sec  (  4.3%)

-------------------------   --------------------
FINAL SINGLE POINT ENERGY      -136.223345025043
-------------------------   --------------------


                            ***************************************
                            *     ORCA property calculations      *
                            ***************************************

                                    ---------------------
                                    Active property flags
                                    ---------------------
   (+) Dipole Moment


------------------------------------------------------------------------------
                       ORCA ELECTRIC PROPERTIES CALCULATION
------------------------------------------------------------------------------

Dipole Moment Calculation                       ... on
Quadrupole Moment Calculation                   ... off
Polarizability Calculation                      ... off
GBWName                                         ... Au01N0_H.gbw
Electron density file                           ... Au01N0_H.scfp
The origin for moment calculation is the CENTER OF MASS  = ( 0.000000,  0.000000  0.021318)

-------------
DIPOLE MOMENT
-------------
                                X             Y             Z
Electronic contribution:      0.00000      -0.00000       3.28494
Nuclear contribution   :      0.00000       0.00000      -2.58451
                        -----------------------------------------
Total Dipole Moment    :      0.00000      -0.00000       0.70043
                        -----------------------------------------
Magnitude (a.u.)       :      0.70043
Magnitude (Debye)      :      1.78036



--------------------
Rotational spectrum 
--------------------
 
Rotational constants in cm-1:     0.000000     7.249537     7.249537 
Rotational constants in MHz :     0.000000 217335.666254 217335.666254 

 Dipole components along the rotational axes: 
x,y,z [a.u.] :     0.700434    -0.000000     0.000000 
x,y,z [Debye]:     1.780362    -0.000000     0.000000 

 

Timings for individual modules:

Sum of individual times         ...        4.769 sec (=   0.079 min)
GTO integral calculation        ...        0.711 sec (=   0.012 min)  14.9 %
SCF iterations                  ...        4.058 sec (=   0.068 min)  85.1 %
                             ****ORCA TERMINATED NORMALLY****
TOTAL RUN TIME: 0 days 0 hours 0 minutes 5 seconds 211 msec
