
                                 *****************
                                 * O   R   C   A *
                                 *****************

           --- An Ab Initio, DFT and Semiempirical electronic structure package ---

                  #######################################################
                  #                        -***-                        #
                  #          Department of theory and spectroscopy      #
                  #               Directorship: Frank Neese             #
                  #        Max Planck Institute fuer Kohlenforschung    #
                  #                Kaiser Wilhelm Platz 1               #
                  #                 D-45470 Muelheim/Ruhr               #
                  #                      Germany                        #
                  #                                                     #
                  #                  All rights reserved                #
                  #                        -***-                        #
                  #######################################################


                         Program Version 4.2.0 -  RELEASE  -


 With contributions from (in alphabetic order):
   Daniel Aravena         : Magnetic Suceptibility
   Michael Atanasov       : Ab Initio Ligand Field Theory (pilot matlab implementation)
   Alexander A. Auer      : GIAO ZORA, VPT2
   Ute Becker             : Parallelization
   Giovanni Bistoni       : ED, misc. LED, open-shell LED, HFLED
   Martin Brehm           : Molecular dynamics
   Dmytro Bykov           : SCF Hessian
   Vijay G. Chilkuri      : MRCI spin determinant printing, contributions to CSF-ICE
   Dipayan Datta          : RHF DLPNO-CCSD density
   Achintya Kumar Dutta   : EOM-CC, STEOM-CC
   Dmitry Ganyushin       : Spin-Orbit,Spin-Spin,Magnetic field MRCI
   Miquel Garcia          : C-PCM Hessian, Gaussian charge scheme
   Yang Guo               : DLPNO-NEVPT2, CIM, IAO-localization
   Andreas Hansen         : Spin unrestricted coupled pair/coupled cluster methods
   Benjamin Helmich-Paris : CASSCF linear response (MC-RPA)
   Lee Huntington         : MR-EOM, pCC
   Robert Izsak           : Overlap fitted RIJCOSX, COSX-SCS-MP3, EOM
   Christian Kollmar      : KDIIS, OOCD, Brueckner-CCSD(T), CCSD density
   Simone Kossmann        : Meta GGA functionals, TD-DFT gradient, OOMP2, MP2 Hessian
   Martin Krupicka        : AUTO-CI
   Lucas Lang             : DCDCAS
   Dagmar Lenk            : GEPOL surface, SMD
   Dimitrios Liakos       : Extrapolation schemes; Compound Job, initial MDCI parallelization
   Dimitrios Manganas     : Further ROCIS development; embedding schemes
   Dimitrios Pantazis     : SARC Basis sets
   Taras Petrenko         : DFT Hessian,TD-DFT gradient, ASA, ECA, R-Raman, ABS, FL, XAS/XES, NRVS
   Peter Pinski           : DLPNO-MP2, DLPNO-MP2 Gradient
   Christoph Reimann      : Effective Core Potentials
   Marius Retegan         : Local ZFS, SOC
   Christoph Riplinger    : Optimizer, TS searches, QM/MM, DLPNO-CCSD(T), (RO)-DLPNO pert. Triples
   Tobias Risthaus        : Range-separated hybrids, TD-DFT gradient, RPA, STAB
   Michael Roemelt        : Original ROCIS implementation
   Masaaki Saitow         : Open-shell DLPNO-CCSD energy and density
   Barbara Sandhoefer     : DKH picture change effects
   Avijit Sen             : IP-ROCIS
   Kantharuban Sivalingam : CASSCF convergence, NEVPT2, FIC-MRCI
   Bernardo de Souza      : ESD, SOC TD-DFT
   Georgi Stoychev        : AutoAux, RI-MP2 NMR
   Willem Van den Heuvel  : Paramagnetic NMR
   Boris Wezisla          : Elementary symmetry handling
   Frank Wennmohs         : Technical directorship


 We gratefully acknowledge several colleagues who have allowed us to
 interface, adapt or use parts of their codes:
   Stefan Grimme, W. Hujo, H. Kruse,             : VdW corrections, initial TS optimization,
                  C. Bannwarth                     DFT functionals, gCP, sTDA/sTD-DF
   Ed Valeev, F. Pavosevic, A. Kumar             : LibInt (2-el integral package), F12 methods
   Garnet Chan, S. Sharma, J. Yang, R. Olivares  : DMRG
   Ulf Ekstrom                                   : XCFun DFT Library
   Mihaly Kallay                                 : mrcc  (arbitrary order and MRCC methods)
   Andreas Klamt, Michael Diedenhofen            : otool_cosmo (COSMO solvation model)
   Jiri Pittner, Ondrej Demel                    : Mk-CCSD
   Frank Weinhold                                : gennbo (NPA and NBO analysis)
   Christopher J. Cramer and Donald G. Truhlar   : smd solvation model
   Lars Goerigk                                  : TD-DFT with DH, B97 family of functionals
   V. Asgeirsson, H. Jonsson                     : NEB implementation
   FAccTs GmbH                                   : IRC, NEB, NEB-TS, Multilevel, MM, QM/MM, CI optimization
   S Lehtola, MJT Oliveira, MAL Marques          : LibXC Library


 Your calculation uses the libint2 library for the computation of 2-el integrals
 For citations please refer to: http://libint.valeyev.net

 Your ORCA version has been built with support for libXC version: 4.2.3
 For citations please refer to: https://tddft.org/programs/libxc/

 This ORCA versions uses:
   CBLAS   interface :  Fast vector & matrix operations
   LAPACKE interface :  Fast linear algebra routines
   SCALAPACK package :  Parallel linear algebra routines


Your calculation utilizes the DFT-NL dispersion correction.
Cite in your paper:
Vydrov, O. A.; Van Voorhis, T. J. Chem. Phys. 2010, 133, 244103
Hujo, W.; Grimme, S. J. Chem. Theory Comput. 2011, 7, 3866 
   

----- Orbital basis set information -----
Your calculation utilizes the basis: def2-TZVPPD
   F. Weigend and R. Ahlrichs, Phys. Chem. Chem. Phys. 7, 3297 (2005).
   D. Rappoport and F. Furche, J. Chem. Phys. 133 134105 (2010).

----- AuxJK basis set information -----
Your calculation utilizes the auxiliary basis: def2/JK
   H-Ba, Hf-Rn: F. Weigend, J. Comput. Chem. 29, 167 (2008).

cite the ECPs for Au [Def2-ECP] as follows:
Ce-Yb(ecp-28): M. Dolg, H. Stoll, H.Preuss, J. Chem. Phys., 1989, 90, 1730-1734.
Y-Cd(ecp-28), Hf-Hg(ecp-46): D. Andrae,U. Haeussermann, M. Dolg, H. Stoll, H. Preuss, Theor. Chim. Acta, 1990, 77, 123-141.
In-Sb(ecp-28), Tl-Bi(ecp-46): B. Metz, H. Stoll, M. Dolg, J. Chem. Phys., 2000, 113, 2563-2569.
Te-Xe(ecp-28), Po-Rn(ecp-46): K. A. Peterson, D. Figgen, E. Goll, H. Stoll, M. Dolg, J. Chem. Phys., 2003, 119, 11113-11123.
Rb(ecp-28), Cs(ecp-46): T. Leininger, A. Nicklass, W. Kuechle, H. Stoll, M. Dolg, A. Bergner, Chem. Phys. Lett., 1996, 255, 274-280.
Sr(ecp-28), Ba(ecp-46): M. Kaupp, P. V. Schleyer, H. Stoll and H. Preuss, J. Chem. Phys., 1991, 94, 1360-1366.
La(ecp-46): M. Dolg, H. Stoll, A. Savin, H. Preuss, Theor. Chim. Acta, 1989, 75, 173-194.
Lu(ecp-28): X. Cao, M. Dolg, J. Chem. Phys., 2001, 115, 7348-7355.

ECP parameters for Au [Def2-ECP] have been obtained from:
TURBOMOLE (7.0.2)

================================================================================
                                        WARNINGS
                       Please study these warnings very carefully!
================================================================================


WARNING: your system is open-shell and RHF/RKS was chosen
  ===> : WILL SWITCH to UHF/UKS


INFO   : the flag for use of LIBINT has been found!

================================================================================
                                       INPUT FILE
================================================================================
NAME = Au03N0_LIN.in
|  1> #
|  2> # Au03N0_LIN wB97M-V/Def2-TZVPPD
|  3> #
|  4> ! wb97m-v def2-tzvppd def2/jk grid4 nofinalgrid
|  5> 
|  6> *xyz 0 2
|  7> Au       0.000000    0.000000    0.000000 
|  8> Au       0.000000    0.000000    2.547414 
|  9> Au       0.000000    0.000000   -2.547414 
| 10> *
| 11> 
| 12> %maxcore 5000
| 13> 
| 14> %pal
| 15> nprocs = 24
| 16> end
| 17> 
| 18> 
| 19>                          ****END OF INPUT****
================================================================================

                       ****************************
                       * Single Point Calculation *
                       ****************************

---------------------------------
CARTESIAN COORDINATES (ANGSTROEM)
---------------------------------
  Au     0.000000    0.000000    0.000000
  Au     0.000000    0.000000    2.547414
  Au     0.000000    0.000000   -2.547414

----------------------------
CARTESIAN COORDINATES (A.U.)
----------------------------
  NO LB      ZA    FRAG     MASS         X           Y           Z
   0 Au   19.0000*   0   196.966    0.000000    0.000000    0.000000
   1 Au   19.0000*   0   196.966    0.000000    0.000000    4.813915
   2 Au   19.0000*   0   196.966    0.000000    0.000000   -4.813915
* core charge reduced due to ECP

--------------------------------
INTERNAL COORDINATES (ANGSTROEM)
--------------------------------
 Au     0   0   0     0.000000000000     0.00000000     0.00000000
 Au     1   0   0     2.547414000000     0.00000000     0.00000000
 Au     1   2   0     2.547414000000   179.99999915     0.00000000

---------------------------
INTERNAL COORDINATES (A.U.)
---------------------------
 Au     0   0   0     0.000000000000     0.00000000     0.00000000
 Au     1   0   0     4.813914809717     0.00000000     0.00000000
 Au     1   2   0     4.813914809717   179.99999915     0.00000000

---------------------
BASIS SET INFORMATION
---------------------
There are 1 groups of distinct atoms

 Group   1 Type Au  : 8s8p6d2f1g contracted to 6s5p3d2f1g pattern {311111/41111/411/11/1}

Atom   0Au   basis set group =>   1
Atom   1Au   basis set group =>   1
Atom   2Au   basis set group =>   1
----------------------------------
AUXILIARY/JK BASIS SET INFORMATION
----------------------------------
There are 1 groups of distinct atoms

 Group   1 Type Au  : 13s12p11d9f5g3h2i contracted to 13s11p10d8f4g3h2i pattern {1111111111111/21111111111/2111111111/21111111/2111/111/11}

Atom   0Au   basis set group =>   1
Atom   1Au   basis set group =>   1
Atom   2Au   basis set group =>   1
-------------------------
ECP PARAMETER INFORMATION
-------------------------

 Group 1, Type Au ECP Def2-ECP (replacing 60 core electrons, lmax=3)

Atom   0Au   ECP group =>   1
Atom   1Au   ECP group =>   1
Atom   2Au   ECP group =>   1



           ************************************************************
           *        Program running with 24 parallel MPI-processes    *
           *              working on a common directory               *
           ************************************************************
------------------------------------------------------------------------------
                           ORCA GTO INTEGRAL CALCULATION
------------------------------------------------------------------------------

                         BASIS SET STATISTICS AND STARTUP INFO

 # of primitive gaussian shells          ...   75
 # of primitive gaussian functions       ...  255
 # of contracted shells                  ...   51
 # of contracted basis functions         ...  177
 Highest angular momentum                ...    4
 Maximum contraction depth               ...    4
 Integral package used                   ... LIBINT
 Integral threshhold            Thresh   ...  1.000e-10
 Primitive cut-off              TCut     ...  1.000e-11


------------------------------ INTEGRAL EVALUATION ----------------------------


 * One electron integrals 

   ECP integrals                         ... done
 Pre-screening matrix                    ... done
 Shell pair data                         ... done (   0.000 sec)



           ************************************************************
           *        Program running with 24 parallel MPI-processes    *
           *              working on a common directory               *
           ************************************************************
-------------------------------------------------------------------------------
                                 ORCA SCF
-------------------------------------------------------------------------------

------------
SCF SETTINGS
------------
Hamiltonian:
 Density Functional     Method          .... DFT(GTOs)
 Exchange Functional    Exchange        .... WB97M-V
 Correlation Functional Correlation     .... WB97M-V
 Gradients option       PostSCFGGA      .... off
 Hybrid DFT is turned on
   Fraction HF Exchange ScalHFX         ....  0.150000
   Scaling of DF-GGA-X  ScalDFX         ....  0.000000
   Scaling of DF-GGA-C  ScalDFC         ....  1.000000
   Scaling of DF-LDA-C  ScalLDAC        ....  1.000000
   Perturbative correction              ....  0.000000
   Density functional embedding theory  .... OFF
 Long-range corrected/Screened/Range-Separated Hybrid DFT is turned on
   Amount of maximum screened exact exchange              ....  0.850000
   Range separation parameter mu (erf(mu*r12)/r12)        ....  0.300000
   NL short-range parameter             ....  6.000000
   NL long-range parameter              ....  0.010000


General Settings:
 Integral files         IntName         .... Au03N0_LIN
 Hartree-Fock type      HFTyp           .... UHF
 Total Charge           Charge          ....    0
 Multiplicity           Mult            ....    2
 Number of Electrons    NEL             ....   57
 Basis Dimension        Dim             ....  177
 Nuclear Repulsion      ENuc            ....    187.4773517342 Eh

Convergence Acceleration:
 DIIS                   CNVDIIS         .... on
   Start iteration      DIISMaxIt       ....    12
   Startup error        DIISStart       ....  0.200000
   # of expansion vecs  DIISMaxEq       ....     5
   Bias factor          DIISBfac        ....   1.050
   Max. coefficient     DIISMaxC        ....  10.000
 Newton-Raphson         CNVNR           .... off
 SOSCF                  CNVSOSCF        .... off
 Level Shifting         CNVShift        .... on
   Level shift para.    LevelShift      ....    0.2500
   Turn off err/grad.   ShiftErr        ....    0.0010
 Zerner damping         CNVZerner       .... off
 Static damping         CNVDamp         .... on
   Fraction old density DampFac         ....    0.7000
   Max. Damping (<1)    DampMax         ....    0.9800
   Min. Damping (>=0)   DampMin         ....    0.0000
   Turn off err/grad.   DampErr         ....    0.1000
 Fernandez-Rico         CNVRico         .... off

SCF Procedure:
 Maximum # iterations   MaxIter         ....   125
 SCF integral mode      SCFMode         .... Direct
   Integral package                     .... LIBINT
 Reset frequency        DirectResetFreq ....    20
 Integral Threshold     Thresh          ....  1.000e-10 Eh
 Primitive CutOff       TCut            ....  1.000e-11 Eh

Convergence Tolerance:
 Convergence Check Mode ConvCheckMode   .... Total+1el-Energy
 Convergence forced     ConvForced      .... 0
 Energy Change          TolE            ....  1.000e-06 Eh
 1-El. energy change                    ....  1.000e-03 Eh
 DIIS Error             TolErr          ....  1.000e-06


Diagonalization of the overlap matrix:
Smallest eigenvalue                        ... 7.322e-04
Time for diagonalization                   ...    0.007 sec
Threshold for overlap eigenvalues          ... 1.000e-08
Number of eigenvalues below threshold      ... 0
Time for construction of square roots      ...    0.003 sec
Total time needed                          ...    0.010 sec

-------------------
DFT GRID GENERATION
-------------------

General Integration Accuracy     IntAcc      ...  4.670
Radial Grid Type                 RadialGrid  ... Gauss-Chebyshev
Angular Grid (max. acc.)         AngularGrid ... Lebedev-302
Angular grid pruning method      GridPruning ... 3 (G Style)
Weight generation scheme         WeightScheme... Becke
Basis function cutoff            BFCut       ...    1.0000e-10
Integration weight cutoff        WCut        ...    1.0000e-14
Grids for H and He will be reduced by one unit

# of grid points (after initial pruning)     ...  34956 (   0.0 sec)
# of grid points (after weights+screening)   ...  34728 (   0.0 sec)
nearest neighbour list constructed           ...    0.0 sec
Grid point re-assignment to atoms done       ...    0.0 sec
Grid point division into batches done        ...    0.3 sec
Reduced shell lists constructed in    0.3 sec

Total number of grid points                  ...    34728
Total number of batches                      ...      544
Average number of points per batch           ...       63
Average number of grid points per atom       ...    11576
Average number of shells per batch           ...    13.33 (26.14%)
Average number of basis functions per batch  ...    40.33 (22.79%)
Average number of large shells per batch     ...    10.04 (75.31%)
Average number of large basis fcns per batch ...    27.29 (67.67%)
Maximum spatial batch extension              ...  37.74, 37.74,  4.80 au
Average spatial batch extension              ...   0.53,  0.53,  0.19 au

Time for grid setup =    0.362 sec

------------------------------
INITIAL GUESS: MODEL POTENTIAL
------------------------------
Loading Hartree-Fock densities                     ... done
  calling /sw/apps/orca/orca_4_2_0_linux_x86-64_openmpi314/orca Au03N0_LIN_atom79.inp > Au03N0_LIN_atom79.out in order to generate an atomic fitting density for atom 0 (Au with ECP) on-the-fly... 
    atom 0 (Au), assumed electronic state with S=2: 1s2 2s2 2p6 3s2 3p6 4s2 3d10 4p6 5s2 4d10 5p6 6s1 4f14 5d10           ... done
Calculating cut-offs                               ... done
Setting up the integral package                    ... done
Initializing the effective Hamiltonian             ... done
Starting the Coulomb interaction                   ... done (   0.0 sec)
Reading the grid                                   ... done
Mapping shells                                     ... done
Starting the XC term evaluation                    ... done (   0.0 sec)
  promolecular density results
     # of electrons  =    237.007935912
     EX              =  -1097.391673659
     EC              =    -14.469987343
     EX+EC           =  -1111.861661002
Transforming the Hamiltonian                       ... done (   0.0 sec)
Diagonalizing the Hamiltonian                      ... done (   0.0 sec)
Back transforming the eigenvectors                 ... done (   0.0 sec)
Now organizing SCF variables                       ... done
                      ------------------
                      INITIAL GUESS DONE (   1.4 sec)
                      ------------------
--------------
SCF ITERATIONS
--------------
ITER       Energy         Delta-E        Max-DP      RMS-DP      [F,P]     Damp
               ***  Starting incremental Fock matrix formation  ***
  0   -406.8511856231   0.000000000000 0.13422674  0.00180582  0.5925431 0.7000
  1   -406.9714091473  -0.120223524140 0.09213775  0.00128646  0.4111141 0.7000
  2   -407.0324457265  -0.061036579185 0.05889951  0.00082528  0.2843771 0.7000
                               ***Turning on DIIS***
  3   -407.0713015984  -0.038855871956 0.03934308  0.00054742  0.1977925 0.7000
  4   -407.0989580920  -0.027656493578 0.02840057  0.00039250  0.1382439 0.7000
  5   -407.1188643348  -0.019906242770 0.07495445  0.00104111  0.0973185 0.0000
  6   -407.1677817026  -0.048917367853 0.00967960  0.00013892  0.0058709 0.0000
  7   -407.1683380390  -0.000556336359 0.00506184  0.00008540  0.0046322 0.0000
  8   -407.1686480212  -0.000309982183 0.00748483  0.00012057  0.0037392 0.0000
  9   -407.1689441879  -0.000296166726 0.00484177  0.00007857  0.0023955 0.0000
 10   -407.1690478761  -0.000103688235 0.00314419  0.00004442  0.0014463 0.0000
 11   -407.1690746872  -0.000026811077 0.00330688  0.00004797  0.0008537 0.0000
 12   -407.1690700932   0.000004593951 0.00083057  0.00001262  0.0002816 0.0000
 13   -407.1690673122   0.000002781039 0.00048170  0.00000779  0.0001139 0.0000
 14   -407.1690661183   0.000001193890 0.00030479  0.00000461  0.0000530 0.0000
 15   -407.1690650684   0.000001049948 0.00017806  0.00000249  0.0000224 0.0000
                 **** Energy Check signals convergence ****

               *****************************************************
               *                     SUCCESS                       *
               *           SCF CONVERGED AFTER  16 CYCLES          *
               *****************************************************


Setting up the DFT-NL grid :

General Integration Accuracy     IntAcc      ...  4.340
Radial Grid Type                 RadialGrid  ... Gauss-Chebyshev
Angular Grid (max. acc.)         AngularGrid ... Lebedev-110
Angular grid pruning method      GridPruning ... 3 (G Style)
Weight generation scheme         WeightScheme... Becke
Basis function cutoff            BFCut       ...    1.0000e-10
Integration weight cutoff        WCut        ...    1.0000e-14
Grids for H and He will be reduced by one unit

# of grid points (after initial pruning)     ...  10590 (   0.0 sec)
# of grid points (after weights+screening)   ...  10518 (   0.0 sec)
nearest neighbour list constructed           ...    0.0 sec
Grid point re-assignment to atoms done       ...    0.0 sec
Grid point division into batches done        ...    0.0 sec
Reduced shell lists constructed in    0.0 sec

Total number of grid points                  ...    10518
Total number of batches                      ...      167
Average number of points per batch           ...       62
Average number of grid points per atom       ...     3506
Average number of shells per batch           ...    18.12 (35.54%)
Average number of basis functions per batch  ...    56.38 (31.85%)
Average number of large shells per batch     ...    14.50 (80.00%)
Average number of large basis fcns per batch ...    43.00 (76.27%)
Maximum spatial batch extension              ...  26.72, 49.51,  4.53 au
Average spatial batch extension              ...   0.67,  1.04,  0.19 au

Final grid set up in    0.0 sec

-------------------------------------------------------------------------------
                         DFT-NL dispersion correction                          
-------------------------------------------------------------------------------

SC Energy -407.169064878 
NL    Energy 0.212442903 
SC+NL Energy -406.956621975 
NL done in    0.0 sec
-------------------------------------------------------------------------------

----------------
TOTAL SCF ENERGY
----------------

Total Energy       :         -406.95662198 Eh          -11073.85267 eV

Components:
Nuclear Repulsion  :          187.47735173 Eh            5101.51810 eV
Electronic Energy  :         -594.43397371 Eh          -16175.37076 eV
One Electron Energy:        -1091.06215540 Eh          -29689.31062 eV
Two Electron Energy:          496.62818169 Eh           13513.93986 eV

Virial components:
Potential Energy   :         -545.01845717 Eh          -14830.70620 eV
Kinetic Energy     :          138.06183520 Eh            3756.85353 eV
Virial Ratio       :            3.94764025


DFT components:
N(Alpha)           :       28.999996098887 electrons
N(Beta)            :       27.999994683488 electrons
N(Total)           :       56.999990782375 electrons
E(X)               :      -23.601214423223 Eh       
E(C)               :       -2.046884268458 Eh       
NL Energy, E(C,NL) :        0.212442903328 Eh       
E(XC)              :      -25.435655788354 Eh       
DFET-embed. en.    :        0.000000000000 Eh       

---------------
SCF CONVERGENCE
---------------

  Last Energy change         ...    1.8989e-07  Tolerance :   1.0000e-06
  Last MAX-Density change    ...    6.7535e-05  Tolerance :   1.0000e-05
  Last RMS-Density change    ...    9.8586e-07  Tolerance :   1.0000e-06
  Last DIIS Error            ...    9.8932e-06  Tolerance :   1.0000e-06

             **** THE GBW FILE WAS UPDATED (Au03N0_LIN.gbw) ****
             **** DENSITY FILE WAS UPDATED (Au03N0_LIN.scfp) ****
             **** ENERGY FILE WAS UPDATED (Au03N0_LIN.en.tmp) ****
----------------------
UHF SPIN CONTAMINATION
----------------------

Warning: in a DFT calculation there is little theoretical justification to 
         calculate <S**2> as in Hartree-Fock theory. We will do it anyways
         but you should keep in mind that the values have only limited relevance

Expectation value of <S**2>     :     0.790548
Ideal value S*(S+1) for S=0.5   :     0.750000
Deviation                       :     0.040548

             **** THE GBW FILE WAS UPDATED (Au03N0_LIN.gbw) ****
             **** DENSITY FILE WAS UPDATED (Au03N0_LIN.scfp) ****
----------------
ORBITAL ENERGIES
----------------
                 SPIN UP ORBITALS
  NO   OCC          E(Eh)            E(eV) 
   0   1.0000      -4.279497      -116.4510 
   1   1.0000      -4.279492      -116.4509 
   2   1.0000      -4.261626      -115.9647 
   3   1.0000      -2.459751       -66.9332 
   4   1.0000      -2.457040       -66.8595 
   5   1.0000      -2.450552       -66.6829 
   6   1.0000      -2.450552       -66.6829 
   7   1.0000      -2.450550       -66.6829 
   8   1.0000      -2.450550       -66.6829 
   9   1.0000      -2.438952       -66.3672 
  10   1.0000      -2.429799       -66.1182 
  11   1.0000      -2.429799       -66.1182 
  12   1.0000      -0.500305       -13.6140 
  13   1.0000      -0.455688       -12.3999 
  14   1.0000      -0.455688       -12.3999 
  15   1.0000      -0.425038       -11.5659 
  16   1.0000      -0.424069       -11.5395 
  17   1.0000      -0.424069       -11.5395 
  18   1.0000      -0.416490       -11.3333 
  19   1.0000      -0.416479       -11.3330 
  20   1.0000      -0.414044       -11.2667 
  21   1.0000      -0.414034       -11.2664 
  22   1.0000      -0.385302       -10.4846 
  23   1.0000      -0.385288       -10.4842 
  24   1.0000      -0.368146       -10.0178 
  25   1.0000      -0.364357        -9.9147 
  26   1.0000      -0.364357        -9.9147 
  27   1.0000      -0.346268        -9.4224 
  28   1.0000      -0.312668        -8.5081 
  29   0.0000      -0.036547        -0.9945 
  30   0.0000       0.015271         0.4155 
  31   0.0000       0.015271         0.4155 
  32   0.0000       0.033887         0.9221 
  33   0.0000       0.052652         1.4327 
  34   0.0000       0.052652         1.4327 
  35   0.0000       0.112727         3.0675 
  36   0.0000       0.116609         3.1731 
  37   0.0000       0.116609         3.1731 
  38   0.0000       0.142071         3.8659 
  39   0.0000       0.182578         4.9682 
  40   0.0000       0.214263         5.8304 
  41   0.0000       0.214263         5.8304 
  42   0.0000       0.216639         5.8950 
  43   0.0000       0.252571         6.8728 
  44   0.0000       0.252571         6.8728 
  45   0.0000       0.261181         7.1071 
  46   0.0000       0.319286         8.6882 
  47   0.0000       0.319286         8.6882 
  48   0.0000       0.341971         9.3055 
  49   0.0000       0.341971         9.3055 
  50   0.0000       0.361039         9.8244 
  51   0.0000       0.364232         9.9113 
  52   0.0000       0.373921        10.1749 
  53   0.0000       0.373921        10.1749 
  54   0.0000       0.403191        10.9714 
  55   0.0000       0.403191        10.9714 
  56   0.0000       0.457660        12.4536 
  57   0.0000       0.457660        12.4536 
  58   0.0000       0.476144        12.9565 
  59   0.0000       0.493463        13.4278 
  60   0.0000       0.493463        13.4278 
  61   0.0000       0.583742        15.8844 
  62   0.0000       0.627684        17.0802 
  63   0.0000       0.627684        17.0802 
  64   0.0000       0.663797        18.0628 
  65   0.0000       0.693788        18.8789 
  66   0.0000       0.921965        25.0879 
  67   0.0000       1.027021        27.9467 
  68   0.0000       1.027021        27.9467 
  69   0.0000       1.124379        30.5959 
  70   0.0000       1.133255        30.8374 
  71   0.0000       1.133255        30.8374 
  72   0.0000       1.144868        31.1534 
  73   0.0000       1.144870        31.1535 
  74   0.0000       1.159199        31.5434 
  75   0.0000       1.159199        31.5434 
  76   0.0000       1.200494        32.6671 
  77   0.0000       1.200494        32.6671 
  78   0.0000       1.218891        33.1677 
  79   0.0000       1.218891        33.1677 
  80   0.0000       1.222539        33.2670 
  81   0.0000       1.222539        33.2670 
  82   0.0000       1.231568        33.5127 
  83   0.0000       1.231571        33.5127 
  84   0.0000       1.257913        34.2295 
  85   0.0000       1.259123        34.2625 
  86   0.0000       1.259123        34.2625 
  87   0.0000       1.331472        36.2312 
  88   0.0000       1.331478        36.2314 
  89   0.0000       1.337559        36.3968 
  90   0.0000       1.337559        36.3968 
  91   0.0000       1.370285        37.2874 
  92   0.0000       1.493632        40.6438 
  93   0.0000       1.493632        40.6438 
  94   0.0000       1.529191        41.6114 
  95   0.0000       1.529191        41.6114 
  96   0.0000       1.536091        41.7992 
  97   0.0000       1.547314        42.1046 
  98   0.0000       1.561670        42.4952 
  99   0.0000       1.561680        42.4955 
 100   0.0000       1.577858        42.9357 
 101   0.0000       1.577866        42.9359 
 102   0.0000       1.616007        43.9738 
 103   0.0000       1.643084        44.7106 
 104   0.0000       1.643093        44.7108 
 105   0.0000       1.744310        47.4651 
 106   0.0000       1.744310        47.4651 
 107   0.0000       1.831777        49.8452 
 108   0.0000       1.831777        49.8452 
 109   0.0000       2.013973        54.8030 
 110   0.0000       2.167353        58.9767 
 111   0.0000       2.237428        60.8835 
 112   0.0000       2.524193        68.6868 
 113   0.0000       2.891962        78.6943 
 114   0.0000       3.611100        98.2630 
 115   0.0000       3.611100        98.2630 
 116   0.0000       3.639458        99.0347 
 117   0.0000       3.639578        99.0380 
 118   0.0000       3.701059       100.7109 
 119   0.0000       3.701059       100.7109 
 120   0.0000       3.704793       100.8125 
 121   0.0000       3.704793       100.8125 
 122   0.0000       3.708646       100.9174 
 123   0.0000       3.708752       100.9203 
 124   0.0000       3.732567       101.5683 
 125   0.0000       3.732567       101.5683 
 126   0.0000       3.771452       102.6264 
 127   0.0000       3.771452       102.6264 
 128   0.0000       3.804712       103.5315 
 129   0.0000       3.804858       103.5355 
 130   0.0000       3.852743       104.8385 
 131   0.0000       3.915406       106.5436 
 132   0.0000       4.005727       109.0014 
 133   0.0000       4.005727       109.0014 
 134   0.0000       4.100779       111.5879 
 135   0.0000       4.236625       115.2844 
 136   0.0000       4.237715       115.3141 
 137   0.0000       4.237715       115.3141 
 138   0.0000       4.242215       115.4365 
 139   0.0000       4.242285       115.4384 
 140   0.0000       4.247247       115.5735 
 141   0.0000       4.247247       115.5735 
 142   0.0000       4.247345       115.5761 
 143   0.0000       4.247345       115.5761 
 144   0.0000       4.247987       115.5936 
 145   0.0000       4.248049       115.5953 
 146   0.0000       4.250922       115.6735 
 147   0.0000       4.250922       115.6735 
 148   0.0000       4.251357       115.6853 
 149   0.0000       4.251358       115.6853 
 150   0.0000       4.271897       116.2442 
 151   0.0000       4.271897       116.2442 
 152   0.0000       4.272412       116.2582 
 153   0.0000       4.272515       116.2610 
 154   0.0000       4.278199       116.4157 
 155   0.0000       4.278816       116.4325 
 156   0.0000       4.326489       117.7297 
 157   0.0000       4.326489       117.7297 
 158   0.0000       4.343685       118.1977 
 159   0.0000       4.343685       118.1977 
 160   0.0000       4.560457       124.0963 
 161   0.0000       4.569593       124.3449 
 162   0.0000      27.283301       742.4164 
 163   0.0000      27.283301       742.4164 
 164   0.0000      27.609295       751.2871 
 165   0.0000      27.609295       751.2871 
 166   0.0000      27.851346       757.8737 
 167   0.0000      27.851346       757.8737 
 168   0.0000      28.183634       766.9157 
 169   0.0000      28.570709       777.4485 
 170   0.0000      31.465780       856.2274 
 171   0.0000      44.030885      1198.1413 
 172   0.0000      44.325281      1206.1522 
 173   0.0000      44.728801      1217.1326 
 174   0.0000     205.147790      5582.3552 
 175   0.0000     205.273139      5585.7661 
 176   0.0000     205.454580      5590.7034 

                 SPIN DOWN ORBITALS
  NO   OCC          E(Eh)            E(eV) 
   0   1.0000      -4.278140      -116.4141 
   1   1.0000      -4.278134      -116.4140 
   2   1.0000      -4.262431      -115.9866 
   3   1.0000      -2.458980       -66.9122 
   4   1.0000      -2.456110       -66.8341 
   5   1.0000      -2.449074       -66.6427 
   6   1.0000      -2.449074       -66.6427 
   7   1.0000      -2.449014       -66.6411 
   8   1.0000      -2.449014       -66.6411 
   9   1.0000      -2.439759       -66.3892 
  10   1.0000      -2.430842       -66.1466 
  11   1.0000      -2.430842       -66.1466 
  12   1.0000      -0.495357       -13.4793 
  13   1.0000      -0.451486       -12.2856 
  14   1.0000      -0.451486       -12.2856 
  15   1.0000      -0.422824       -11.5056 
  16   1.0000      -0.418733       -11.3943 
  17   1.0000      -0.418733       -11.3943 
  18   1.0000      -0.411088       -11.1863 
  19   1.0000      -0.411078       -11.1860 
  20   1.0000      -0.407918       -11.1000 
  21   1.0000      -0.407908       -11.0997 
  22   1.0000      -0.385618       -10.4932 
  23   1.0000      -0.385604       -10.4928 
  24   1.0000      -0.363464        -9.8904 
  25   1.0000      -0.363464        -9.8904 
  26   1.0000      -0.354715        -9.6523 
  27   1.0000      -0.318689        -8.6720 
  28   0.0000      -0.125283        -3.4091 
  29   0.0000      -0.037025        -1.0075 
  30   0.0000       0.007419         0.2019 
  31   0.0000       0.007419         0.2019 
  32   0.0000       0.013002         0.3538 
  33   0.0000       0.038606         1.0505 
  34   0.0000       0.038606         1.0505 
  35   0.0000       0.092056         2.5050 
  36   0.0000       0.102640         2.7930 
  37   0.0000       0.102640         2.7930 
  38   0.0000       0.135837         3.6963 
  39   0.0000       0.182556         4.9676 
  40   0.0000       0.205150         5.5824 
  41   0.0000       0.217182         5.9098 
  42   0.0000       0.217182         5.9098 
  43   0.0000       0.250487         6.8161 
  44   0.0000       0.254695         6.9306 
  45   0.0000       0.254695         6.9306 
  46   0.0000       0.316836         8.6215 
  47   0.0000       0.316836         8.6215 
  48   0.0000       0.332967         9.0605 
  49   0.0000       0.332967         9.0605 
  50   0.0000       0.352827         9.6009 
  51   0.0000       0.356603         9.7037 
  52   0.0000       0.357302         9.7227 
  53   0.0000       0.357302         9.7227 
  54   0.0000       0.389883        10.6093 
  55   0.0000       0.389884        10.6093 
  56   0.0000       0.450308        12.2535 
  57   0.0000       0.450309        12.2535 
  58   0.0000       0.465520        12.6675 
  59   0.0000       0.481096        13.0913 
  60   0.0000       0.481096        13.0913 
  61   0.0000       0.575852        15.6697 
  62   0.0000       0.623381        16.9631 
  63   0.0000       0.623381        16.9631 
  64   0.0000       0.661719        18.0063 
  65   0.0000       0.693800        18.8793 
  66   0.0000       0.926240        25.2043 
  67   0.0000       1.031343        28.0643 
  68   0.0000       1.031343        28.0643 
  69   0.0000       1.126964        30.6662 
  70   0.0000       1.134905        30.8823 
  71   0.0000       1.134905        30.8823 
  72   0.0000       1.151799        31.3420 
  73   0.0000       1.151802        31.3421 
  74   0.0000       1.161950        31.6183 
  75   0.0000       1.161950        31.6183 
  76   0.0000       1.199749        32.6468 
  77   0.0000       1.199749        32.6468 
  78   0.0000       1.229587        33.4588 
  79   0.0000       1.229587        33.4588 
  80   0.0000       1.235010        33.6063 
  81   0.0000       1.235010        33.6063 
  82   0.0000       1.243218        33.8297 
  83   0.0000       1.243219        33.8297 
  84   0.0000       1.256362        34.1874 
  85   0.0000       1.259556        34.2743 
  86   0.0000       1.259556        34.2743 
  87   0.0000       1.335504        36.3409 
  88   0.0000       1.335508        36.3410 
  89   0.0000       1.344248        36.5788 
  90   0.0000       1.344248        36.5788 
  91   0.0000       1.376063        37.4446 
  92   0.0000       1.496645        40.7258 
  93   0.0000       1.496645        40.7258 
  94   0.0000       1.532804        41.7097 
  95   0.0000       1.532804        41.7097 
  96   0.0000       1.537140        41.8277 
  97   0.0000       1.548789        42.1447 
  98   0.0000       1.565594        42.6020 
  99   0.0000       1.565605        42.6023 
 100   0.0000       1.584860        43.1262 
 101   0.0000       1.584869        43.1265 
 102   0.0000       1.618446        44.0402 
 103   0.0000       1.644482        44.7486 
 104   0.0000       1.644490        44.7489 
 105   0.0000       1.750809        47.6419 
 106   0.0000       1.750809        47.6419 
 107   0.0000       1.834412        49.9169 
 108   0.0000       1.834412        49.9169 
 109   0.0000       2.020676        54.9854 
 110   0.0000       2.172222        59.1092 
 111   0.0000       2.239410        60.9374 
 112   0.0000       2.527722        68.7828 
 113   0.0000       2.893539        78.7372 
 114   0.0000       3.612095        98.2901 
 115   0.0000       3.612095        98.2901 
 116   0.0000       3.640728        99.0693 
 117   0.0000       3.640849        99.0725 
 118   0.0000       3.703059       100.7653 
 119   0.0000       3.703059       100.7653 
 120   0.0000       3.707265       100.8798 
 121   0.0000       3.707265       100.8798 
 122   0.0000       3.711203       100.9870 
 123   0.0000       3.711306       100.9898 
 124   0.0000       3.732090       101.5553 
 125   0.0000       3.732090       101.5553 
 126   0.0000       3.773184       102.6736 
 127   0.0000       3.773184       102.6736 
 128   0.0000       3.805775       103.5604 
 129   0.0000       3.805919       103.5643 
 130   0.0000       3.853830       104.8680 
 131   0.0000       3.916517       106.5738 
 132   0.0000       4.007694       109.0549 
 133   0.0000       4.007694       109.0549 
 134   0.0000       4.102892       111.6454 
 135   0.0000       4.237914       115.3195 
 136   0.0000       4.239753       115.3696 
 137   0.0000       4.239753       115.3696 
 138   0.0000       4.245088       115.5147 
 139   0.0000       4.245163       115.5168 
 140   0.0000       4.251058       115.6772 
 141   0.0000       4.251058       115.6772 
 142   0.0000       4.251161       115.6800 
 143   0.0000       4.251161       115.6800 
 144   0.0000       4.251273       115.6830 
 145   0.0000       4.251339       115.6848 
 146   0.0000       4.255141       115.7883 
 147   0.0000       4.255141       115.7883 
 148   0.0000       4.255575       115.8001 
 149   0.0000       4.255575       115.8001 
 150   0.0000       4.270678       116.2111 
 151   0.0000       4.270678       116.2111 
 152   0.0000       4.270865       116.2162 
 153   0.0000       4.270969       116.2190 
 154   0.0000       4.277765       116.4039 
 155   0.0000       4.278382       116.4207 
 156   0.0000       4.329500       117.8117 
 157   0.0000       4.329500       117.8117 
 158   0.0000       4.342785       118.1732 
 159   0.0000       4.342785       118.1732 
 160   0.0000       4.561989       124.1380 
 161   0.0000       4.573339       124.4469 
 162   0.0000      27.283685       742.4268 
 163   0.0000      27.283685       742.4268 
 164   0.0000      27.610126       751.3097 
 165   0.0000      27.610126       751.3097 
 166   0.0000      27.851365       757.8742 
 167   0.0000      27.851365       757.8742 
 168   0.0000      28.183329       766.9074 
 169   0.0000      28.571696       777.4754 
 170   0.0000      31.467378       856.2709 
 171   0.0000      44.030423      1198.1287 
 172   0.0000      44.324628      1206.1344 
 173   0.0000      44.728616      1217.1275 
 174   0.0000     205.148107      5582.3638 
 175   0.0000     205.273586      5585.7782 
 176   0.0000     205.454639      5590.7049 

                    ********************************
                    * MULLIKEN POPULATION ANALYSIS *
                    ********************************

--------------------------------------------
MULLIKEN ATOMIC CHARGES AND SPIN POPULATIONS
--------------------------------------------
   0 Au:   -0.151000   -0.009932
   1 Au:    0.075495    0.504964
   2 Au:    0.075505    0.504968
Sum of atomic charges         :   -0.0000000
Sum of atomic spin populations:    1.0000000

-----------------------------------------------------
MULLIKEN REDUCED ORBITAL CHARGES AND SPIN POPULATIONS
-----------------------------------------------------
CHARGE
  0 Aus       :     3.114270  s :     3.114270
      pz      :     2.162501  p :     6.188402
      px      :     2.012950
      py      :     2.012950
      dz2     :     1.884707  d :     9.835989
      dxz     :     1.976465
      dyz     :     1.976465
      dx2y2   :     1.999175
      dxy     :     1.999175
      f0      :     0.005195  f :     0.012097
      f+1     :     0.003162
      f-1     :     0.003162
      f+2     :     0.000289
      f-2     :     0.000289
      f+3     :     0.000000
      f-3     :     0.000000
      g0      :     0.000103  g :     0.000243
      g+1     :     0.000060
      g-1     :     0.000060
      g+2     :     0.000010
      g-2     :     0.000010
      g+3     :     0.000000
      g-3     :     0.000000
      g+4     :     0.000000
      g-4     :     0.000000
  1 Aus       :     2.940807  s :     2.940807
      pz      :     2.035635  p :     6.055687
      px      :     2.010026
      py      :     2.010026
      dz2     :     1.937717  d :     9.921444
      dxz     :     1.991811
      dyz     :     1.991811
      dx2y2   :     2.000053
      dxy     :     2.000053
      f0      :     0.002411  f :     0.006451
      f+1     :     0.001814
      f-1     :     0.001814
      f+2     :     0.000206
      f-2     :     0.000206
      f+3     :     0.000000
      f-3     :     0.000000
      g0      :     0.000046  g :     0.000115
      g+1     :     0.000030
      g-1     :     0.000030
      g+2     :     0.000004
      g-2     :     0.000004
      g+3     :     0.000000
      g-3     :     0.000000
      g+4     :     0.000000
      g-4     :     0.000000
  2 Aus       :     2.940800  s :     2.940800
      pz      :     2.035633  p :     6.055685
      px      :     2.010026
      py      :     2.010026
      dz2     :     1.937717  d :     9.921444
      dxz     :     1.991811
      dyz     :     1.991811
      dx2y2   :     2.000053
      dxy     :     2.000053
      f0      :     0.002411  f :     0.006451
      f+1     :     0.001814
      f-1     :     0.001814
      f+2     :     0.000206
      f-2     :     0.000206
      f+3     :     0.000000
      f-3     :     0.000000
      g0      :     0.000046  g :     0.000115
      g+1     :     0.000030
      g-1     :     0.000030
      g+2     :     0.000004
      g-2     :     0.000004
      g+3     :     0.000000
      g-3     :     0.000000
      g+4     :     0.000000
      g-4     :     0.000000

SPIN
  0 Aus       :    -0.133849  s :    -0.133849
      pz      :     0.142705  p :     0.142604
      px      :    -0.000051
      py      :    -0.000051
      dz2     :    -0.016878  d :    -0.019196
      dxz     :    -0.001309
      dyz     :    -0.001309
      dx2y2   :     0.000149
      dxy     :     0.000149
      f0      :     0.000326  f :     0.000511
      f+1     :     0.000081
      f-1     :     0.000081
      f+2     :     0.000011
      f-2     :     0.000011
      f+3     :    -0.000000
      f-3     :    -0.000000
      g0      :    -0.000001  g :    -0.000001
      g+1     :     0.000000
      g-1     :     0.000000
      g+2     :    -0.000000
      g-2     :    -0.000000
      g+3     :    -0.000000
      g-3     :    -0.000000
      g+4     :    -0.000000
      g-4     :    -0.000000
  1 Aus       :     0.525732  s :     0.525732
      pz      :    -0.009896  p :    -0.007959
      px      :     0.000969
      py      :     0.000969
      dz2     :    -0.011965  d :    -0.012864
      dxz     :    -0.000368
      dyz     :    -0.000368
      dx2y2   :    -0.000082
      dxy     :    -0.000082
      f0      :    -0.000024  f :     0.000057
      f+1     :     0.000039
      f-1     :     0.000039
      f+2     :     0.000002
      f-2     :     0.000002
      f+3     :    -0.000000
      f-3     :    -0.000000
      g0      :    -0.000001  g :    -0.000002
      g+1     :    -0.000000
      g-1     :    -0.000000
      g+2     :    -0.000000
      g-2     :    -0.000000
      g+3     :    -0.000000
      g-3     :    -0.000000
      g+4     :     0.000000
      g-4     :    -0.000000
  2 Aus       :     0.525735  s :     0.525735
      pz      :    -0.009895  p :    -0.007958
      px      :     0.000969
      py      :     0.000969
      dz2     :    -0.011965  d :    -0.012864
      dxz     :    -0.000368
      dyz     :    -0.000368
      dx2y2   :    -0.000082
      dxy     :    -0.000082
      f0      :    -0.000024  f :     0.000057
      f+1     :     0.000039
      f-1     :     0.000039
      f+2     :     0.000002
      f-2     :     0.000002
      f+3     :    -0.000000
      f-3     :    -0.000000
      g0      :    -0.000001  g :    -0.000002
      g+1     :    -0.000000
      g-1     :    -0.000000
      g+2     :    -0.000000
      g-2     :    -0.000000
      g+3     :    -0.000000
      g-3     :    -0.000000
      g+4     :     0.000000
      g-4     :    -0.000000


                     *******************************
                     * LOEWDIN POPULATION ANALYSIS *
                     *******************************

-------------------------------------------
LOEWDIN ATOMIC CHARGES AND SPIN POPULATIONS
-------------------------------------------
   0 Au:   -0.199599    0.284814
   1 Au:    0.099799    0.357593
   2 Au:    0.099799    0.357593

----------------------------------------------------
LOEWDIN REDUCED ORBITAL CHARGES AND SPIN POPULATIONS
----------------------------------------------------
CHARGE
  0 Aus       :     2.841672  s :     2.841672
      pz      :     2.392771  p :     6.429499
      px      :     2.018364
      py      :     2.018364
      dz2     :     1.974921  d :     9.903937
      dxz     :     1.965353
      dyz     :     1.965353
      dx2y2   :     1.999155
      dxy     :     1.999155
      f0      :     0.012522  f :     0.024140
      f+1     :     0.005388
      f-1     :     0.005388
      f+2     :     0.000421
      f-2     :     0.000421
      f+3     :     0.000000
      f-3     :     0.000000
      g0      :     0.000152  g :     0.000351
      g+1     :     0.000088
      g-1     :     0.000088
      g+2     :     0.000011
      g-2     :     0.000011
      g+3     :     0.000000
      g-3     :     0.000000
      g+4     :     0.000000
      g-4     :     0.000000
  1 Aus       :     2.802552  s :     2.802552
      pz      :     2.107191  p :     6.138927
      px      :     2.015868
      py      :     2.015868
      dz2     :     1.974531  d :     9.946948
      dxz     :     1.986283
      dyz     :     1.986283
      dx2y2   :     1.999926
      dxy     :     1.999926
      f0      :     0.004635  f :     0.011604
      f+1     :     0.003209
      f-1     :     0.003209
      f+2     :     0.000275
      f-2     :     0.000275
      f+3     :     0.000000
      f-3     :     0.000000
      g0      :     0.000073  g :     0.000170
      g+1     :     0.000043
      g-1     :     0.000043
      g+2     :     0.000005
      g-2     :     0.000005
      g+3     :     0.000000
      g-3     :     0.000000
      g+4     :     0.000000
      g-4     :     0.000000
  2 Aus       :     2.802551  s :     2.802551
      pz      :     2.107191  p :     6.138927
      px      :     2.015868
      py      :     2.015868
      dz2     :     1.974532  d :     9.946948
      dxz     :     1.986283
      dyz     :     1.986283
      dx2y2   :     1.999926
      dxy     :     1.999926
      f0      :     0.004635  f :     0.011604
      f+1     :     0.003209
      f-1     :     0.003209
      f+2     :     0.000275
      f-2     :     0.000275
      f+3     :     0.000000
      f-3     :     0.000000
      g0      :     0.000073  g :     0.000170
      g+1     :     0.000043
      g-1     :     0.000043
      g+2     :     0.000005
      g-2     :     0.000005
      g+3     :     0.000000
      g-3     :     0.000000
      g+4     :     0.000000
      g-4     :     0.000000

SPIN
  0 Aus       :    -0.071281  s :    -0.071281
      pz      :     0.353090  p :     0.353171
      px      :     0.000040
      py      :     0.000040
      dz2     :     0.004332  d :     0.000672
      dxz     :    -0.001838
      dyz     :    -0.001838
      dx2y2   :     0.000007
      dxy     :     0.000007
      f0      :     0.002019  f :     0.002248
      f+1     :     0.000111
      f-1     :     0.000111
      f+2     :     0.000003
      f-2     :     0.000003
      f+3     :    -0.000000
      f-3     :    -0.000000
      g0      :     0.000002  g :     0.000004
      g+1     :     0.000001
      g-1     :     0.000001
      g+2     :    -0.000000
      g-2     :    -0.000000
      g+3     :    -0.000000
      g-3     :    -0.000000
      g+4     :    -0.000000
      g-4     :    -0.000000
  1 Aus       :     0.390434  s :     0.390434
      pz      :    -0.022593  p :    -0.021260
      px      :     0.000666
      py      :     0.000666
      dz2     :    -0.011536  d :    -0.011235
      dxz     :     0.000155
      dyz     :     0.000155
      dx2y2   :    -0.000005
      dxy     :    -0.000005
      f0      :    -0.000383  f :    -0.000342
      f+1     :     0.000021
      f-1     :     0.000021
      f+2     :     0.000000
      f-2     :     0.000000
      f+3     :    -0.000000
      f-3     :    -0.000000
      g0      :    -0.000004  g :    -0.000005
      g+1     :    -0.000000
      g-1     :    -0.000000
      g+2     :    -0.000000
      g-2     :    -0.000000
      g+3     :    -0.000000
      g-3     :    -0.000000
      g+4     :     0.000000
      g-4     :    -0.000000
  2 Aus       :     0.390434  s :     0.390434
      pz      :    -0.022593  p :    -0.021260
      px      :     0.000666
      py      :     0.000666
      dz2     :    -0.011536  d :    -0.011235
      dxz     :     0.000155
      dyz     :     0.000155
      dx2y2   :    -0.000005
      dxy     :    -0.000005
      f0      :    -0.000383  f :    -0.000342
      f+1     :     0.000021
      f-1     :     0.000021
      f+2     :     0.000000
      f-2     :     0.000000
      f+3     :    -0.000000
      f-3     :    -0.000000
      g0      :    -0.000004  g :    -0.000005
      g+1     :    -0.000000
      g-1     :    -0.000000
      g+2     :    -0.000000
      g-2     :    -0.000000
      g+3     :    -0.000000
      g-3     :    -0.000000
      g+4     :     0.000000
      g-4     :    -0.000000


                      *****************************
                      * MAYER POPULATION ANALYSIS *
                      *****************************

  NA   - Mulliken gross atomic population
  ZA   - Total nuclear charge
  QA   - Mulliken gross atomic charge
  VA   - Mayer's total valence
  BVA  - Mayer's bonded valence
  FA   - Mayer's free valence

  ATOM       NA         ZA         QA         VA         BVA        FA
  0 Au    19.1510    19.0000    -0.1510     1.4640     1.4206     0.0434
  1 Au    18.9245    19.0000     0.0755     1.1717     0.8798     0.2919
  2 Au    18.9245    19.0000     0.0755     1.1717     0.8798     0.2919

  Mayer bond orders larger than 0.100000
B(  0-Au,  1-Au) :   0.7103 B(  0-Au,  2-Au) :   0.7103 B(  1-Au,  2-Au) :   0.1695 


-------
TIMINGS
-------

Total SCF time: 0 days 0 hours 0 min 11 sec 

Total time                  ....      11.448 sec
Sum of individual times     ....      11.186 sec  ( 97.7%)

Fock matrix formation       ....       9.543 sec  ( 83.4%)
  XC integration            ....       1.139 sec  ( 11.9% of F)
    Basis function eval.    ....       0.058 sec  (  5.1% of XC)
    Density eval.           ....       0.152 sec  ( 13.3% of XC)
    XC-Functional eval.     ....       0.037 sec  (  3.2% of XC)
    XC-Potential eval.      ....       0.326 sec  ( 28.7% of XC)
Diagonalization             ....       0.135 sec  (  1.2%)
Density matrix formation    ....       0.021 sec  (  0.2%)
Population analysis         ....       0.010 sec  (  0.1%)
Initial guess               ....       1.038 sec  (  9.1%)
Orbital Transformation      ....       0.000 sec  (  0.0%)
Orbital Orthonormalization  ....       0.000 sec  (  0.0%)
DIIS solution               ....       0.044 sec  (  0.4%)
Grid generation             ....       0.395 sec  (  3.5%)

-------------------------   --------------------
FINAL SINGLE POINT ENERGY      -406.956621975149
-------------------------   --------------------


                            ***************************************
                            *     ORCA property calculations      *
                            ***************************************

                                    ---------------------
                                    Active property flags
                                    ---------------------
   (+) Dipole Moment


------------------------------------------------------------------------------
                       ORCA ELECTRIC PROPERTIES CALCULATION
------------------------------------------------------------------------------

Dipole Moment Calculation                       ... on
Quadrupole Moment Calculation                   ... off
Polarizability Calculation                      ... off
GBWName                                         ... Au03N0_LIN.gbw
Electron density file                           ... Au03N0_LIN.scfp
The origin for moment calculation is the CENTER OF MASS  = ( 0.000000,  0.000000  0.000000)

-------------
DIPOLE MOMENT
-------------
                                X             Y             Z
Electronic contribution:      0.00000       0.00000       0.00000
Nuclear contribution   :      0.00000       0.00000       0.00000
                        -----------------------------------------
Total Dipole Moment    :      0.00000       0.00000       0.00000
                        -----------------------------------------
Magnitude (a.u.)       :      0.00000
Magnitude (Debye)      :      0.00000



--------------------
Rotational spectrum 
--------------------
 
Rotational constants in cm-1:     0.000000     0.006594     0.006594 
Rotational constants in MHz :     0.000000   197.695224   197.695224 

 Dipole components along the rotational axes: 
x,y,z [a.u.] :     0.000000     0.000000     0.000000 
x,y,z [Debye]:     0.000001     0.000000     0.000000 

 

Timings for individual modules:

Sum of individual times         ...       12.821 sec (=   0.214 min)
GTO integral calculation        ...        0.991 sec (=   0.017 min)   7.7 %
SCF iterations                  ...       11.830 sec (=   0.197 min)  92.3 %
                             ****ORCA TERMINATED NORMALLY****
TOTAL RUN TIME: 0 days 0 hours 0 minutes 13 seconds 262 msec
