
                                 *****************
                                 * O   R   C   A *
                                 *****************

           --- An Ab Initio, DFT and Semiempirical electronic structure package ---

                  #######################################################
                  #                        -***-                        #
                  #          Department of theory and spectroscopy      #
                  #               Directorship: Frank Neese             #
                  #        Max Planck Institute fuer Kohlenforschung    #
                  #                Kaiser Wilhelm Platz 1               #
                  #                 D-45470 Muelheim/Ruhr               #
                  #                      Germany                        #
                  #                                                     #
                  #                  All rights reserved                #
                  #                        -***-                        #
                  #######################################################


                         Program Version 4.2.0 -  RELEASE  -


 With contributions from (in alphabetic order):
   Daniel Aravena         : Magnetic Suceptibility
   Michael Atanasov       : Ab Initio Ligand Field Theory (pilot matlab implementation)
   Alexander A. Auer      : GIAO ZORA, VPT2
   Ute Becker             : Parallelization
   Giovanni Bistoni       : ED, misc. LED, open-shell LED, HFLED
   Martin Brehm           : Molecular dynamics
   Dmytro Bykov           : SCF Hessian
   Vijay G. Chilkuri      : MRCI spin determinant printing, contributions to CSF-ICE
   Dipayan Datta          : RHF DLPNO-CCSD density
   Achintya Kumar Dutta   : EOM-CC, STEOM-CC
   Dmitry Ganyushin       : Spin-Orbit,Spin-Spin,Magnetic field MRCI
   Miquel Garcia          : C-PCM Hessian, Gaussian charge scheme
   Yang Guo               : DLPNO-NEVPT2, CIM, IAO-localization
   Andreas Hansen         : Spin unrestricted coupled pair/coupled cluster methods
   Benjamin Helmich-Paris : CASSCF linear response (MC-RPA)
   Lee Huntington         : MR-EOM, pCC
   Robert Izsak           : Overlap fitted RIJCOSX, COSX-SCS-MP3, EOM
   Christian Kollmar      : KDIIS, OOCD, Brueckner-CCSD(T), CCSD density
   Simone Kossmann        : Meta GGA functionals, TD-DFT gradient, OOMP2, MP2 Hessian
   Martin Krupicka        : AUTO-CI
   Lucas Lang             : DCDCAS
   Dagmar Lenk            : GEPOL surface, SMD
   Dimitrios Liakos       : Extrapolation schemes; Compound Job, initial MDCI parallelization
   Dimitrios Manganas     : Further ROCIS development; embedding schemes
   Dimitrios Pantazis     : SARC Basis sets
   Taras Petrenko         : DFT Hessian,TD-DFT gradient, ASA, ECA, R-Raman, ABS, FL, XAS/XES, NRVS
   Peter Pinski           : DLPNO-MP2, DLPNO-MP2 Gradient
   Christoph Reimann      : Effective Core Potentials
   Marius Retegan         : Local ZFS, SOC
   Christoph Riplinger    : Optimizer, TS searches, QM/MM, DLPNO-CCSD(T), (RO)-DLPNO pert. Triples
   Tobias Risthaus        : Range-separated hybrids, TD-DFT gradient, RPA, STAB
   Michael Roemelt        : Original ROCIS implementation
   Masaaki Saitow         : Open-shell DLPNO-CCSD energy and density
   Barbara Sandhoefer     : DKH picture change effects
   Avijit Sen             : IP-ROCIS
   Kantharuban Sivalingam : CASSCF convergence, NEVPT2, FIC-MRCI
   Bernardo de Souza      : ESD, SOC TD-DFT
   Georgi Stoychev        : AutoAux, RI-MP2 NMR
   Willem Van den Heuvel  : Paramagnetic NMR
   Boris Wezisla          : Elementary symmetry handling
   Frank Wennmohs         : Technical directorship


 We gratefully acknowledge several colleagues who have allowed us to
 interface, adapt or use parts of their codes:
   Stefan Grimme, W. Hujo, H. Kruse,             : VdW corrections, initial TS optimization,
                  C. Bannwarth                     DFT functionals, gCP, sTDA/sTD-DF
   Ed Valeev, F. Pavosevic, A. Kumar             : LibInt (2-el integral package), F12 methods
   Garnet Chan, S. Sharma, J. Yang, R. Olivares  : DMRG
   Ulf Ekstrom                                   : XCFun DFT Library
   Mihaly Kallay                                 : mrcc  (arbitrary order and MRCC methods)
   Andreas Klamt, Michael Diedenhofen            : otool_cosmo (COSMO solvation model)
   Jiri Pittner, Ondrej Demel                    : Mk-CCSD
   Frank Weinhold                                : gennbo (NPA and NBO analysis)
   Christopher J. Cramer and Donald G. Truhlar   : smd solvation model
   Lars Goerigk                                  : TD-DFT with DH, B97 family of functionals
   V. Asgeirsson, H. Jonsson                     : NEB implementation
   FAccTs GmbH                                   : IRC, NEB, NEB-TS, Multilevel, MM, QM/MM, CI optimization
   S Lehtola, MJT Oliveira, MAL Marques          : LibXC Library


 Your calculation uses the libint2 library for the computation of 2-el integrals
 For citations please refer to: http://libint.valeyev.net

 Your ORCA version has been built with support for libXC version: 4.2.3
 For citations please refer to: https://tddft.org/programs/libxc/

 This ORCA versions uses:
   CBLAS   interface :  Fast vector & matrix operations
   LAPACKE interface :  Fast linear algebra routines
   SCALAPACK package :  Parallel linear algebra routines


Your calculation utilizes the DFT-NL dispersion correction.
Cite in your paper:
Vydrov, O. A.; Van Voorhis, T. J. Chem. Phys. 2010, 133, 244103
Hujo, W.; Grimme, S. J. Chem. Theory Comput. 2011, 7, 3866 
   

----- Orbital basis set information -----
Your calculation utilizes the basis: def2-TZVPPD
   F. Weigend and R. Ahlrichs, Phys. Chem. Chem. Phys. 7, 3297 (2005).
   D. Rappoport and F. Furche, J. Chem. Phys. 133 134105 (2010).

----- AuxJK basis set information -----
Your calculation utilizes the auxiliary basis: def2/JK
   H-Ba, Hf-Rn: F. Weigend, J. Comput. Chem. 29, 167 (2008).

cite the ECPs for Au [Def2-ECP] as follows:
Ce-Yb(ecp-28): M. Dolg, H. Stoll, H.Preuss, J. Chem. Phys., 1989, 90, 1730-1734.
Y-Cd(ecp-28), Hf-Hg(ecp-46): D. Andrae,U. Haeussermann, M. Dolg, H. Stoll, H. Preuss, Theor. Chim. Acta, 1990, 77, 123-141.
In-Sb(ecp-28), Tl-Bi(ecp-46): B. Metz, H. Stoll, M. Dolg, J. Chem. Phys., 2000, 113, 2563-2569.
Te-Xe(ecp-28), Po-Rn(ecp-46): K. A. Peterson, D. Figgen, E. Goll, H. Stoll, M. Dolg, J. Chem. Phys., 2003, 119, 11113-11123.
Rb(ecp-28), Cs(ecp-46): T. Leininger, A. Nicklass, W. Kuechle, H. Stoll, M. Dolg, A. Bergner, Chem. Phys. Lett., 1996, 255, 274-280.
Sr(ecp-28), Ba(ecp-46): M. Kaupp, P. V. Schleyer, H. Stoll and H. Preuss, J. Chem. Phys., 1991, 94, 1360-1366.
La(ecp-46): M. Dolg, H. Stoll, A. Savin, H. Preuss, Theor. Chim. Acta, 1989, 75, 173-194.
Lu(ecp-28): X. Cao, M. Dolg, J. Chem. Phys., 2001, 115, 7348-7355.

ECP parameters for Au [Def2-ECP] have been obtained from:
TURBOMOLE (7.0.2)

================================================================================
                                        WARNINGS
                       Please study these warnings very carefully!
================================================================================


INFO   : the flag for use of LIBINT has been found!

================================================================================
                                       INPUT FILE
================================================================================
NAME = Au04C2_NH3_A.in
|  1> #
|  2> # Au04C2_NH3_A wB97M-V/Def2-TZVPPD
|  3> #
|  4> ! wb97m-v def2-tzvppd def2/jk grid4 nofinalgrid
|  5> 
|  6> *xyz 2 1
|  7> Au      -0.274490    1.572639   -0.000000 
|  8> Au       1.635934   -0.418177    0.000000 
|  9> Au      -0.639028   -0.815642    1.333593 
| 10> Au      -0.639028   -0.815642   -1.333593 
| 11> N       -0.639028    3.654013   -0.000000 
| 12> H       -0.235750    4.112347    0.824759 
| 13> H       -0.235750    4.112347   -0.824759 
| 14> H       -1.642949    3.866239   -0.000000 
| 15> *
| 16> 
| 17> %maxcore 5000
| 18> 
| 19> %pal
| 20> nprocs = 24
| 21> end
| 22> 
| 23> 
| 24>                          ****END OF INPUT****
================================================================================

                       ****************************
                       * Single Point Calculation *
                       ****************************

---------------------------------
CARTESIAN COORDINATES (ANGSTROEM)
---------------------------------
  Au    -0.274490    1.572639   -0.000000
  Au     1.635934   -0.418177    0.000000
  Au    -0.639028   -0.815642    1.333593
  Au    -0.639028   -0.815642   -1.333593
  N     -0.639028    3.654013   -0.000000
  H     -0.235750    4.112347    0.824759
  H     -0.235750    4.112347   -0.824759
  H     -1.642949    3.866239   -0.000000

----------------------------
CARTESIAN COORDINATES (A.U.)
----------------------------
  NO LB      ZA    FRAG     MASS         X           Y           Z
   0 Au   19.0000*   0   196.966   -0.518711    2.971857   -0.000000
   1 Au   19.0000*   0   196.966    3.091467   -0.790240    0.000000
   2 Au   19.0000*   0   196.966   -1.207588   -1.541340    2.520126
   3 Au   19.0000*   0   196.966   -1.207588   -1.541340   -2.520126
   4 N     7.0000    0    14.007   -1.207588    6.905084   -0.000000
   5 H     1.0000    0     1.008   -0.445503    7.771210    1.558569
   6 H     1.0000    0     1.008   -0.445503    7.771210   -1.558569
   7 H     1.0000    0     1.008   -3.104724    7.306133   -0.000000
* core charge reduced due to ECP

--------------------------------
INTERNAL COORDINATES (ANGSTROEM)
--------------------------------
 Au     0   0   0     0.000000000000     0.00000000     0.00000000
 Au     1   0   0     2.759178900621     0.00000000     0.00000000
 Au     2   1   0     2.666814732470    61.11098622     0.00000000
 Au     2   1   3     2.666814732470    61.11098622    69.66013843
 N      1   2   3     2.113056005249   146.11470736   145.16993078
 H      5   1   2     1.026124070920   111.84933476   300.00661803
 H      5   1   2     1.026124070920   111.84933476    59.99338197
 H      5   1   2     1.026107815640   111.87061795   180.00000085

---------------------------
INTERNAL COORDINATES (A.U.)
---------------------------
 Au     0   0   0     0.000000000000     0.00000000     0.00000000
 Au     1   0   0     5.214092476668     0.00000000     0.00000000
 Au     2   1   0     5.039549494274    61.11098622     0.00000000
 Au     2   1   3     5.039549494274    61.11098622    69.66013843
 N      1   2   3     3.993097155559   146.11470736   145.16993078
 H      5   1   2     1.939093473463   111.84933476   300.00661803
 H      5   1   2     1.939093473463   111.84933476    59.99338197
 H      5   1   2     1.939062755435   111.87061795   180.00000085

---------------------
BASIS SET INFORMATION
---------------------
There are 3 groups of distinct atoms

 Group   1 Type Au  : 8s8p6d2f1g contracted to 6s5p3d2f1g pattern {311111/41111/411/11/1}
 Group   2 Type N   : 12s6p3d1f contracted to 6s3p3d1f pattern {621111/411/111/1}
 Group   3 Type H   : 5s3p1d contracted to 3s3p1d pattern {311/111/1}

Atom   0Au   basis set group =>   1
Atom   1Au   basis set group =>   1
Atom   2Au   basis set group =>   1
Atom   3Au   basis set group =>   1
Atom   4N    basis set group =>   2
Atom   5H    basis set group =>   3
Atom   6H    basis set group =>   3
Atom   7H    basis set group =>   3
----------------------------------
AUXILIARY/JK BASIS SET INFORMATION
----------------------------------
There are 3 groups of distinct atoms

 Group   1 Type Au  : 13s12p11d9f5g3h2i contracted to 13s11p10d8f4g3h2i pattern {1111111111111/21111111111/2111111111/21111111/2111/111/11}
 Group   2 Type N   : 14s10p6d2f1g contracted to 10s8p4d2f1g pattern {5111111111/31111111/3111/11/1}
 Group   3 Type H   : 4s2p2d contracted to 2s2p2d pattern {31/11/11}

Atom   0Au   basis set group =>   1
Atom   1Au   basis set group =>   1
Atom   2Au   basis set group =>   1
Atom   3Au   basis set group =>   1
Atom   4N    basis set group =>   2
Atom   5H    basis set group =>   3
Atom   6H    basis set group =>   3
Atom   7H    basis set group =>   3
-------------------------
ECP PARAMETER INFORMATION
-------------------------

 Group 1, Type Au ECP Def2-ECP (replacing 60 core electrons, lmax=3)

Atom   0Au   ECP group =>   1
Atom   1Au   ECP group =>   1
Atom   2Au   ECP group =>   1
Atom   3Au   ECP group =>   1



           ************************************************************
           *        Program running with 24 parallel MPI-processes    *
           *              working on a common directory               *
           ************************************************************
------------------------------------------------------------------------------
                           ORCA GTO INTEGRAL CALCULATION
------------------------------------------------------------------------------

                         BASIS SET STATISTICS AND STARTUP INFO

 # of primitive gaussian shells          ...  149
 # of primitive gaussian functions       ...  449
 # of contracted shells                  ...  102
 # of contracted basis functions         ...  324
 Highest angular momentum                ...    4
 Maximum contraction depth               ...    6
 Integral package used                   ... LIBINT
 Integral threshhold            Thresh   ...  1.000e-10
 Primitive cut-off              TCut     ...  1.000e-11


------------------------------ INTEGRAL EVALUATION ----------------------------


 * One electron integrals 

   ECP integrals                         ... done
 Pre-screening matrix                    ... done
 Shell pair data                         ... done (   0.001 sec)



           ************************************************************
           *        Program running with 24 parallel MPI-processes    *
           *              working on a common directory               *
           ************************************************************
-------------------------------------------------------------------------------
                                 ORCA SCF
-------------------------------------------------------------------------------

------------
SCF SETTINGS
------------
Hamiltonian:
 Density Functional     Method          .... DFT(GTOs)
 Exchange Functional    Exchange        .... WB97M-V
 Correlation Functional Correlation     .... WB97M-V
 Gradients option       PostSCFGGA      .... off
 Hybrid DFT is turned on
   Fraction HF Exchange ScalHFX         ....  0.150000
   Scaling of DF-GGA-X  ScalDFX         ....  0.000000
   Scaling of DF-GGA-C  ScalDFC         ....  1.000000
   Scaling of DF-LDA-C  ScalLDAC        ....  1.000000
   Perturbative correction              ....  0.000000
   Density functional embedding theory  .... OFF
 Long-range corrected/Screened/Range-Separated Hybrid DFT is turned on
   Amount of maximum screened exact exchange              ....  0.850000
   Range separation parameter mu (erf(mu*r12)/r12)        ....  0.300000
   NL short-range parameter             ....  6.000000
   NL long-range parameter              ....  0.010000


General Settings:
 Integral files         IntName         .... Au04C2_NH3_A
 Hartree-Fock type      HFTyp           .... RHF
 Total Charge           Charge          ....    2
 Multiplicity           Mult            ....    1
 Number of Electrons    NEL             ....   84
 Basis Dimension        Dim             ....  324
 Nuclear Repulsion      ENuc            ....    541.9645160282 Eh

Convergence Acceleration:
 DIIS                   CNVDIIS         .... on
   Start iteration      DIISMaxIt       ....    12
   Startup error        DIISStart       ....  0.200000
   # of expansion vecs  DIISMaxEq       ....     5
   Bias factor          DIISBfac        ....   1.050
   Max. coefficient     DIISMaxC        ....  10.000
 Newton-Raphson         CNVNR           .... off
 SOSCF                  CNVSOSCF        .... off
 Level Shifting         CNVShift        .... on
   Level shift para.    LevelShift      ....    0.2500
   Turn off err/grad.   ShiftErr        ....    0.0010
 Zerner damping         CNVZerner       .... off
 Static damping         CNVDamp         .... on
   Fraction old density DampFac         ....    0.7000
   Max. Damping (<1)    DampMax         ....    0.9800
   Min. Damping (>=0)   DampMin         ....    0.0000
   Turn off err/grad.   DampErr         ....    0.1000
 Fernandez-Rico         CNVRico         .... off

SCF Procedure:
 Maximum # iterations   MaxIter         ....   125
 SCF integral mode      SCFMode         .... Direct
   Integral package                     .... LIBINT
 Reset frequency        DirectResetFreq ....    20
 Integral Threshold     Thresh          ....  1.000e-10 Eh
 Primitive CutOff       TCut            ....  1.000e-11 Eh

Convergence Tolerance:
 Convergence Check Mode ConvCheckMode   .... Total+1el-Energy
 Convergence forced     ConvForced      .... 0
 Energy Change          TolE            ....  1.000e-06 Eh
 1-El. energy change                    ....  1.000e-03 Eh
 DIIS Error             TolErr          ....  1.000e-06


Diagonalization of the overlap matrix:
Smallest eigenvalue                        ... 1.703e-04
Time for diagonalization                   ...    0.015 sec
Threshold for overlap eigenvalues          ... 1.000e-08
Number of eigenvalues below threshold      ... 0
Time for construction of square roots      ...    0.013 sec
Total time needed                          ...    0.028 sec

-------------------
DFT GRID GENERATION
-------------------

General Integration Accuracy     IntAcc      ...  4.670
Radial Grid Type                 RadialGrid  ... Gauss-Chebyshev
Angular Grid (max. acc.)         AngularGrid ... Lebedev-302
Angular grid pruning method      GridPruning ... 3 (G Style)
Weight generation scheme         WeightScheme... Becke
Basis function cutoff            BFCut       ...    1.0000e-10
Integration weight cutoff        WCut        ...    1.0000e-14
Grids for H and He will be reduced by one unit

# of grid points (after initial pruning)     ...  63002 (   0.0 sec)
# of grid points (after weights+screening)   ...  60968 (   0.0 sec)
nearest neighbour list constructed           ...    0.0 sec
Grid point re-assignment to atoms done       ...    0.0 sec
Grid point division into batches done        ...    0.4 sec
Reduced shell lists constructed in    0.4 sec

Total number of grid points                  ...    60968
Total number of batches                      ...      958
Average number of points per batch           ...       63
Average number of grid points per atom       ...     7621
Average number of shells per batch           ...    72.85 (71.43%)
Average number of basis functions per batch  ...   241.68 (74.59%)
Average number of large shells per batch     ...    58.78 (80.68%)
Average number of large basis fcns per batch ...   188.24 (77.89%)
Maximum spatial batch extension              ...   3.81,  2.44,  4.04 au
Average spatial batch extension              ...   0.09,  0.08,  0.09 au

Time for grid setup =    0.497 sec

------------------------------
INITIAL GUESS: MODEL POTENTIAL
------------------------------
Loading Hartree-Fock densities                     ... done
  calling /sw/apps/orca/orca_4_2_0_linux_x86-64_openmpi314/orca Au04C2_NH3_A_atom79.inp > Au04C2_NH3_A_atom79.out in order to generate an atomic fitting density for atom 0 (Au with ECP) on-the-fly... 
    atom 0 (Au), assumed electronic state with S=2: 1s2 2s2 2p6 3s2 3p6 4s2 3d10 4p6 5s2 4d10 5p6 6s1 4f14 5d10           ... done
Calculating cut-offs                               ... done
Setting up the integral package                    ... done
Initializing the effective Hamiltonian             ... done
Starting the Coulomb interaction                   ... done (   0.0 sec)
Reading the grid                                   ... done
Mapping shells                                     ... done
Starting the XC term evaluation                    ... done (   0.0 sec)
  promolecular density results
     # of electrons  =    326.007375335
     EX              =  -1470.711171373
     EC              =    -19.653389136
     EX+EC           =  -1490.364560509
Transforming the Hamiltonian                       ... done (   0.0 sec)
Diagonalizing the Hamiltonian                      ... done (   0.0 sec)
Back transforming the eigenvectors                 ... done (   0.0 sec)
Now organizing SCF variables                       ... done
                      ------------------
                      INITIAL GUESS DONE (   1.6 sec)
                      ------------------
--------------
SCF ITERATIONS
--------------
ITER       Energy         Delta-E        Max-DP      RMS-DP      [F,P]     Damp
               ***  Starting incremental Fock matrix formation  ***
  0   -598.5219152011   0.000000000000 0.21415496  0.00202998  0.5938892 0.7000
  1   -598.6773032528  -0.155388051695 0.15361678  0.00145748  0.4148453 0.7000
  2   -598.7578710168  -0.080567763935 0.10550580  0.00098323  0.2889209 0.7000
  3   -598.8104887117  -0.052617694976 0.07446318  0.00068467  0.2019495 0.7000
                               ***Turning on DIIS***
  4   -598.8479124524  -0.037423740633 0.05377134  0.00049136  0.1415699 0.7000
  5   -598.8746734442  -0.026760991807 0.13706931  0.00125958  0.0994265 0.0000
  6   -598.9397210861  -0.065047641880 0.01581734  0.00016670  0.0038012 0.0000
  7   -598.9402820589  -0.000560972811 0.00824557  0.00008587  0.0024037 0.0000
  8   -598.9404852058  -0.000203146965 0.00589914  0.00007089  0.0016309 0.0000
  9   -598.9405801370  -0.000094931124 0.00272728  0.00004030  0.0007138 0.0000
 10   -598.9406016138  -0.000021476802 0.00025791  0.00000544  0.0003932 0.0000
 11   -598.9406027700  -0.000001156238 0.00041003  0.00000419  0.0001428 0.0000
 12   -598.9406031538  -0.000000383813 0.00012304  0.00000192  0.0000615 0.0000
                 **** Energy Check signals convergence ****

               *****************************************************
               *                     SUCCESS                       *
               *           SCF CONVERGED AFTER  13 CYCLES          *
               *****************************************************


Setting up the DFT-NL grid :

General Integration Accuracy     IntAcc      ...  4.340
Radial Grid Type                 RadialGrid  ... Gauss-Chebyshev
Angular Grid (max. acc.)         AngularGrid ... Lebedev-110
Angular grid pruning method      GridPruning ... 3 (G Style)
Weight generation scheme         WeightScheme... Becke
Basis function cutoff            BFCut       ...    1.0000e-10
Integration weight cutoff        WCut        ...    1.0000e-14
Grids for H and He will be reduced by one unit

# of grid points (after initial pruning)     ...  18204 (   0.0 sec)
# of grid points (after weights+screening)   ...  17748 (   0.0 sec)
nearest neighbour list constructed           ...    0.0 sec
Grid point re-assignment to atoms done       ...    0.0 sec
Grid point division into batches done        ...    0.0 sec
Reduced shell lists constructed in    0.0 sec

Total number of grid points                  ...    17748
Total number of batches                      ...      281
Average number of points per batch           ...       63
Average number of grid points per atom       ...     2218
Average number of shells per batch           ...    73.31 (71.87%)
Average number of basis functions per batch  ...   243.31 (75.09%)
Average number of large shells per batch     ...    60.54 (82.58%)
Average number of large basis fcns per batch ...   198.23 (81.47%)
Maximum spatial batch extension              ...   5.00,  3.62,  5.43 au
Average spatial batch extension              ...   0.14,  0.12,  0.14 au

Final grid set up in    0.1 sec

-------------------------------------------------------------------------------
                         DFT-NL dispersion correction                          
-------------------------------------------------------------------------------

SC Energy -598.940603227 
NL    Energy 0.307756666 
SC+NL Energy -598.632846561 
NL done in    0.1 sec
-------------------------------------------------------------------------------

----------------
TOTAL SCF ENERGY
----------------

Total Energy       :         -598.63284656 Eh          -16289.62790 eV

Components:
Nuclear Repulsion  :          541.96451603 Eh           14747.60423 eV
Electronic Energy  :        -1140.59736259 Eh          -31037.23214 eV
One Electron Energy:        -2084.09839839 Eh          -56711.20056 eV
Two Electron Energy:          943.50103580 Eh           25673.96842 eV

Virial components:
Potential Energy   :         -838.75861349 Eh          -22823.78221 eV
Kinetic Energy     :          240.12576692 Eh            6534.15431 eV
Virial Ratio       :            3.49299712


DFT components:
N(Alpha)           :       41.999982760629 electrons
N(Beta)            :       41.999982760629 electrons
N(Total)           :       83.999965521259 electrons
E(X)               :      -36.628117496918 Eh       
E(C)               :       -3.001996574590 Eh       
NL Energy, E(C,NL) :        0.307756666088 Eh       
E(XC)              :      -39.322357405421 Eh       
DFET-embed. en.    :        0.000000000000 Eh       

---------------
SCF CONVERGENCE
---------------

  Last Energy change         ...   -7.3411e-08  Tolerance :   1.0000e-06
  Last MAX-Density change    ...    1.0439e-04  Tolerance :   1.0000e-05
  Last RMS-Density change    ...    1.2971e-06  Tolerance :   1.0000e-06
  Last DIIS Error            ...    5.1113e-05  Tolerance :   1.0000e-06

             **** THE GBW FILE WAS UPDATED (Au04C2_NH3_A.gbw) ****
             **** DENSITY FILE WAS UPDATED (Au04C2_NH3_A.scfp) ****
             **** ENERGY FILE WAS UPDATED (Au04C2_NH3_A.en.tmp) ****
             **** THE GBW FILE WAS UPDATED (Au04C2_NH3_A.gbw) ****
             **** DENSITY FILE WAS UPDATED (Au04C2_NH3_A.scfp) ****
----------------
ORBITAL ENERGIES
----------------

  NO   OCC          E(Eh)            E(eV) 
   0   2.0000     -14.862624      -404.4326 
   1   2.0000      -4.629769      -125.9824 
   2   2.0000      -4.629454      -125.9739 
   3   2.0000      -4.629444      -125.9736 
   4   2.0000      -4.623558      -125.8134 
   5   2.0000      -2.812381       -76.5288 
   6   2.0000      -2.806557       -76.3703 
   7   2.0000      -2.806554       -76.3702 
   8   2.0000      -2.803963       -76.2997 
   9   2.0000      -2.801545       -76.2339 
  10   2.0000      -2.801542       -76.2338 
  11   2.0000      -2.799697       -76.1836 
  12   2.0000      -2.799688       -76.1834 
  13   2.0000      -2.799553       -76.1797 
  14   2.0000      -2.799323       -76.1735 
  15   2.0000      -2.790970       -75.9462 
  16   2.0000      -2.790964       -75.9460 
  17   2.0000      -1.334976       -36.3265 
  18   2.0000      -0.923180       -25.1210 
  19   2.0000      -0.923170       -25.1207 
  20   2.0000      -0.885457       -24.0945 
  21   2.0000      -0.837649       -22.7936 
  22   2.0000      -0.818446       -22.2710 
  23   2.0000      -0.818407       -22.2700 
  24   2.0000      -0.805961       -21.9313 
  25   2.0000      -0.800648       -21.7867 
  26   2.0000      -0.800645       -21.7867 
  27   2.0000      -0.783094       -21.3091 
  28   2.0000      -0.775746       -21.1091 
  29   2.0000      -0.775743       -21.1090 
  30   2.0000      -0.742790       -20.2123 
  31   2.0000      -0.742770       -20.2118 
  32   2.0000      -0.741485       -20.1768 
  33   2.0000      -0.740036       -20.1374 
  34   2.0000      -0.740035       -20.1374 
  35   2.0000      -0.735285       -20.0081 
  36   2.0000      -0.735274       -20.0078 
  37   2.0000      -0.734504       -19.9869 
  38   2.0000      -0.704804       -19.1787 
  39   2.0000      -0.704504       -19.1705 
  40   2.0000      -0.704487       -19.1701 
  41   2.0000      -0.693369       -18.8675 
  42   0.0000      -0.374641       -10.1945 
  43   0.0000      -0.374624       -10.1940 
  44   0.0000      -0.332421        -9.0456 
  45   0.0000      -0.248688        -6.7671 
  46   0.0000      -0.237628        -6.4662 
  47   0.0000      -0.237617        -6.4659 
  48   0.0000      -0.222791        -6.0625 
  49   0.0000      -0.222790        -6.0624 
  50   0.0000      -0.214331        -5.8323 
  51   0.0000      -0.155744        -4.2380 
  52   0.0000      -0.152523        -4.1504 
  53   0.0000      -0.152514        -4.1501 
  54   0.0000      -0.131147        -3.5687 
  55   0.0000      -0.131134        -3.5683 
  56   0.0000      -0.122003        -3.3199 
  57   0.0000      -0.119958        -3.2642 
  58   0.0000      -0.100854        -2.7444 
  59   0.0000      -0.100853        -2.7443 
  60   0.0000      -0.080016        -2.1774 
  61   0.0000      -0.079959        -2.1758 
  62   0.0000      -0.059754        -1.6260 
  63   0.0000      -0.041999        -1.1429 
  64   0.0000      -0.041990        -1.1426 
  65   0.0000      -0.041722        -1.1353 
  66   0.0000      -0.035746        -0.9727 
  67   0.0000      -0.023239        -0.6324 
  68   0.0000      -0.023238        -0.6323 
  69   0.0000       0.005827         0.1586 
  70   0.0000       0.027221         0.7407 
  71   0.0000       0.027231         0.7410 
  72   0.0000       0.032507         0.8846 
  73   0.0000       0.041353         1.1253 
  74   0.0000       0.041405         1.1267 
  75   0.0000       0.068712         1.8697 
  76   0.0000       0.069426         1.8892 
  77   0.0000       0.069442         1.8896 
  78   0.0000       0.073427         1.9980 
  79   0.0000       0.083497         2.2721 
  80   0.0000       0.083501         2.2722 
  81   0.0000       0.086745         2.3605 
  82   0.0000       0.096021         2.6129 
  83   0.0000       0.097622         2.6564 
  84   0.0000       0.097632         2.6567 
  85   0.0000       0.131161         3.5691 
  86   0.0000       0.131161         3.5691 
  87   0.0000       0.133192         3.6243 
  88   0.0000       0.174007         4.7350 
  89   0.0000       0.174947         4.7605 
  90   0.0000       0.174948         4.7606 
  91   0.0000       0.194054         5.2805 
  92   0.0000       0.205489         5.5916 
  93   0.0000       0.205520         5.5925 
  94   0.0000       0.209399         5.6980 
  95   0.0000       0.209419         5.6986 
  96   0.0000       0.253608         6.9010 
  97   0.0000       0.253639         6.9019 
  98   0.0000       0.257283         7.0010 
  99   0.0000       0.267448         7.2776 
 100   0.0000       0.267474         7.2783 
 101   0.0000       0.279574         7.6076 
 102   0.0000       0.307611         8.3705 
 103   0.0000       0.307613         8.3706 
 104   0.0000       0.317458         8.6385 
 105   0.0000       0.321500         8.7485 
 106   0.0000       0.321503         8.7485 
 107   0.0000       0.323735         8.8093 
 108   0.0000       0.366290         9.9673 
 109   0.0000       0.411457        11.1963 
 110   0.0000       0.411604        11.2003 
 111   0.0000       0.449661        12.2359 
 112   0.0000       0.488057        13.2807 
 113   0.0000       0.488068        13.2810 
 114   0.0000       0.559178        15.2160 
 115   0.0000       0.569702        15.5024 
 116   0.0000       0.569738        15.5034 
 117   0.0000       0.613381        16.6909 
 118   0.0000       0.680370        18.5138 
 119   0.0000       0.699240        19.0273 
 120   0.0000       0.699258        19.0278 
 121   0.0000       0.737330        20.0638 
 122   0.0000       0.737398        20.0656 
 123   0.0000       0.753286        20.4980 
 124   0.0000       0.777260        21.1503 
 125   0.0000       0.780222        21.2309 
 126   0.0000       0.780261        21.2320 
 127   0.0000       0.828542        22.5458 
 128   0.0000       0.839586        22.8463 
 129   0.0000       0.845772        23.0146 
 130   0.0000       0.858541        23.3621 
 131   0.0000       0.858566        23.3628 
 132   0.0000       0.868951        23.6454 
 133   0.0000       0.884962        24.0810 
 134   0.0000       0.884966        24.0812 
 135   0.0000       0.895097        24.3568 
 136   0.0000       0.895099        24.3569 
 137   0.0000       0.929207        25.2850 
 138   0.0000       0.929240        25.2859 
 139   0.0000       0.950268        25.8581 
 140   0.0000       0.950302        25.8590 
 141   0.0000       0.958289        26.0764 
 142   0.0000       0.963035        26.2055 
 143   0.0000       0.964748        26.2521 
 144   0.0000       0.964755        26.2523 
 145   0.0000       0.973561        26.4919 
 146   0.0000       1.024620        27.8813 
 147   0.0000       1.024661        27.8824 
 148   0.0000       1.039142        28.2765 
 149   0.0000       1.039167        28.2772 
 150   0.0000       1.045447        28.4480 
 151   0.0000       1.089794        29.6548 
 152   0.0000       1.089796        29.6549 
 153   0.0000       1.089954        29.6592 
 154   0.0000       1.113012        30.2866 
 155   0.0000       1.113054        30.2878 
 156   0.0000       1.138203        30.9721 
 157   0.0000       1.142175        31.0801 
 158   0.0000       1.142192        31.0806 
 159   0.0000       1.173064        31.9207 
 160   0.0000       1.181566        32.1520 
 161   0.0000       1.181575        32.1523 
 162   0.0000       1.207660        32.8621 
 163   0.0000       1.225632        33.3511 
 164   0.0000       1.228369        33.4256 
 165   0.0000       1.228387        33.4261 
 166   0.0000       1.245947        33.9039 
 167   0.0000       1.257706        34.2239 
 168   0.0000       1.257893        34.2290 
 169   0.0000       1.257896        34.2291 
 170   0.0000       1.301539        35.4167 
 171   0.0000       1.301583        35.4179 
 172   0.0000       1.334214        36.3058 
 173   0.0000       1.335046        36.3284 
 174   0.0000       1.335127        36.3307 
 175   0.0000       1.347400        36.6646 
 176   0.0000       1.374385        37.3989 
 177   0.0000       1.374416        37.3998 
 178   0.0000       1.392742        37.8984 
 179   0.0000       1.392756        37.8988 
 180   0.0000       1.438020        39.1305 
 181   0.0000       1.492343        40.6087 
 182   0.0000       1.549585        42.1664 
 183   0.0000       1.549663        42.1685 
 184   0.0000       1.566742        42.6332 
 185   0.0000       1.566803        42.6349 
 186   0.0000       1.623102        44.1668 
 187   0.0000       1.623286        44.1719 
 188   0.0000       1.674586        45.5678 
 189   0.0000       1.743658        47.4473 
 190   0.0000       1.743868        47.4531 
 191   0.0000       1.783352        48.5275 
 192   0.0000       2.182787        59.3966 
 193   0.0000       2.304851        62.7182 
 194   0.0000       2.406502        65.4842 
 195   0.0000       2.406504        65.4843 
 196   0.0000       2.493539        67.8526 
 197   0.0000       2.547522        69.3216 
 198   0.0000       2.583619        70.3038 
 199   0.0000       2.583790        70.3085 
 200   0.0000       2.692123        73.2564 
 201   0.0000       2.704348        73.5890 
 202   0.0000       2.704350        73.5891 
 203   0.0000       2.962195        80.6054 
 204   0.0000       3.008180        81.8567 
 205   0.0000       3.034492        82.5727 
 206   0.0000       3.034500        82.5729 
 207   0.0000       3.108137        84.5767 
 208   0.0000       3.108190        84.5781 
 209   0.0000       3.194597        86.9294 
 210   0.0000       3.223607        87.7188 
 211   0.0000       3.223844        87.7253 
 212   0.0000       3.223873        87.7260 
 213   0.0000       3.258750        88.6751 
 214   0.0000       3.258766        88.6755 
 215   0.0000       3.293179        89.6120 
 216   0.0000       3.348896        91.1281 
 217   0.0000       3.350030        91.1590 
 218   0.0000       3.350143        91.1620 
 219   0.0000       3.380371        91.9846 
 220   0.0000       3.401745        92.5662 
 221   0.0000       3.401874        92.5697 
 222   0.0000       3.411385        92.8285 
 223   0.0000       3.411398        92.8289 
 224   0.0000       3.424372        93.1819 
 225   0.0000       3.441337        93.6436 
 226   0.0000       3.515236        95.6544 
 227   0.0000       3.515316        95.6566 
 228   0.0000       3.554342        96.7186 
 229   0.0000       3.563690        96.9729 
 230   0.0000       3.563838        96.9770 
 231   0.0000       3.585036        97.5538 
 232   0.0000       3.585207        97.5584 
 233   0.0000       3.617544        98.4384 
 234   0.0000       3.651715        99.3682 
 235   0.0000       3.651810        99.3708 
 236   0.0000       3.676241       100.0356 
 237   0.0000       3.683792       100.2411 
 238   0.0000       3.683796       100.2412 
 239   0.0000       3.707483       100.8857 
 240   0.0000       3.735371       101.6446 
 241   0.0000       3.760385       102.3253 
 242   0.0000       3.760467       102.3275 
 243   0.0000       3.778736       102.8246 
 244   0.0000       3.778752       102.8251 
 245   0.0000       3.864953       105.1707 
 246   0.0000       3.867800       105.2482 
 247   0.0000       3.867925       105.2516 
 248   0.0000       3.891623       105.8964 
 249   0.0000       3.891836       105.9022 
 250   0.0000       3.892877       105.9306 
 251   0.0000       3.895608       106.0049 
 252   0.0000       3.895904       106.0129 
 253   0.0000       3.896741       106.0357 
 254   0.0000       3.900956       106.1504 
 255   0.0000       3.902562       106.1941 
 256   0.0000       3.902645       106.1964 
 257   0.0000       3.903503       106.2197 
 258   0.0000       3.903525       106.2203 
 259   0.0000       3.903903       106.2306 
 260   0.0000       3.906870       106.3113 
 261   0.0000       3.913524       106.4924 
 262   0.0000       3.913691       106.4969 
 263   0.0000       3.915325       106.5414 
 264   0.0000       3.922148       106.7271 
 265   0.0000       3.922280       106.7307 
 266   0.0000       3.923390       106.7609 
 267   0.0000       3.935577       107.0925 
 268   0.0000       3.935651       107.0945 
 269   0.0000       3.937057       107.1328 
 270   0.0000       3.941667       107.2582 
 271   0.0000       3.941739       107.2602 
 272   0.0000       3.942719       107.2868 
 273   0.0000       3.964360       107.8757 
 274   0.0000       3.964450       107.8782 
 275   0.0000       3.987417       108.5031 
 276   0.0000       4.012249       109.1789 
 277   0.0000       4.012345       109.1815 
 278   0.0000       4.057911       110.4214 
 279   0.0000       4.090100       111.2973 
 280   0.0000       4.090380       111.3049 
 281   0.0000       4.146875       112.8422 
 282   0.0000       4.152099       112.9844 
 283   0.0000       4.209955       114.5587 
 284   0.0000       4.210001       114.5599 
 285   0.0000       4.278145       116.4142 
 286   0.0000       4.279031       116.4384 
 287   0.0000       4.279082       116.4397 
 288   0.0000       4.696554       127.7997 
 289   0.0000       4.696584       127.8005 
 290   0.0000       4.820652       131.1766 
 291   0.0000       4.959691       134.9601 
 292   0.0000       4.959695       134.9602 
 293   0.0000       5.058648       137.6528 
 294   0.0000       5.381735       146.4445 
 295   0.0000       5.531602       150.5225 
 296   0.0000       5.531613       150.5229 
 297   0.0000       5.618672       152.8919 
 298   0.0000       5.708008       155.3228 
 299   0.0000       5.708040       155.3237 
 300   0.0000       6.211552       169.0249 
 301   0.0000       6.380565       173.6240 
 302   0.0000       6.380701       173.6277 
 303   0.0000      27.351304       744.2668 
 304   0.0000      27.351308       744.2669 
 305   0.0000      27.595552       750.9132 
 306   0.0000      27.595771       750.9191 
 307   0.0000      27.678603       753.1731 
 308   0.0000      28.664226       779.9933 
 309   0.0000      28.776775       783.0559 
 310   0.0000      28.777557       783.0771 
 311   0.0000      28.957231       787.9663 
 312   0.0000      29.656205       806.9864 
 313   0.0000      29.657854       807.0312 
 314   0.0000      31.247883       850.2981 
 315   0.0000      32.919835       895.7943 
 316   0.0000      43.998364      1197.2564 
 317   0.0000      44.428550      1208.9623 
 318   0.0000      44.428795      1208.9690 
 319   0.0000      44.566883      1212.7265 
 320   0.0000     204.925411      5576.3039 
 321   0.0000     205.116222      5581.4961 
 322   0.0000     205.116321      5581.4988 
 323   0.0000     205.174669      5583.0866 

                    ********************************
                    * MULLIKEN POPULATION ANALYSIS *
                    ********************************

-----------------------
MULLIKEN ATOMIC CHARGES
-----------------------
   0 Au:    0.285094
   1 Au:    0.433081
   2 Au:    0.433071
   3 Au:    0.433078
   4 N :   -0.276183
   5 H :    0.230642
   6 H :    0.230641
   7 H :    0.230576
Sum of atomic charges:    2.0000000

--------------------------------
MULLIKEN REDUCED ORBITAL CHARGES
--------------------------------
  0 Aus       :     2.812810  s :     2.812810
      pz      :     2.018759  p :     6.149291
      px      :     2.021528
      py      :     2.109003
      dz2     :     1.960531  d :     9.735091
      dxz     :     1.992267
      dyz     :     1.934570
      dx2y2   :     1.905224
      dxy     :     1.942499
      f0      :     0.001374  f :     0.017404
      f+1     :     0.000520
      f-1     :     0.003656
      f+2     :     0.002234
      f-2     :     0.001240
      f+3     :     0.003453
      f-3     :     0.004926
      g0      :     0.000027  g :     0.000309
      g+1     :     0.000004
      g-1     :     0.000034
      g+2     :     0.000046
      g-2     :     0.000016
      g+3     :     0.000019
      g-3     :     0.000031
      g+4     :     0.000071
      g-4     :     0.000060
  1 Aus       :     2.594774  s :     2.594774
      pz      :     2.021039  p :     6.143943
      px      :     2.099408
      py      :     2.023496
      dz2     :     1.982662  d :     9.817243
      dxz     :     1.929290
      dyz     :     1.990175
      dx2y2   :     1.962708
      dxy     :     1.952408
      f0      :     0.001081  f :     0.010795
      f+1     :     0.001969
      f-1     :     0.000448
      f+2     :     0.001842
      f-2     :     0.001599
      f+3     :     0.001944
      f-3     :     0.001913
      g0      :     0.000012  g :     0.000163
      g+1     :     0.000022
      g-1     :     0.000004
      g+2     :     0.000019
      g-2     :     0.000011
      g+3     :     0.000026
      g-3     :     0.000022
      g+4     :     0.000024
      g-4     :     0.000024
  2 Aus       :     2.594625  s :     2.594625
      pz      :     2.075915  p :     6.143990
      px      :     2.035431
      py      :     2.032645
      dz2     :     1.939363  d :     9.817365
      dxz     :     1.964885
      dyz     :     1.968625
      dx2y2   :     1.957877
      dxy     :     1.986615
      f0      :     0.002379  f :     0.010787
      f+1     :     0.001912
      f-1     :     0.001717
      f+2     :     0.001608
      f-2     :     0.001066
      f+3     :     0.001033
      f-3     :     0.001071
      g0      :     0.000034  g :     0.000163
      g+1     :     0.000025
      g-1     :     0.000023
      g+2     :     0.000018
      g-2     :     0.000008
      g+3     :     0.000017
      g-3     :     0.000017
      g+4     :     0.000010
      g-4     :     0.000010
  3 Aus       :     2.594620  s :     2.594620
      pz      :     2.075913  p :     6.143988
      px      :     2.035431
      py      :     2.032645
      dz2     :     1.939363  d :     9.817364
      dxz     :     1.964885
      dyz     :     1.968625
      dx2y2   :     1.957877
      dxy     :     1.986615
      f0      :     0.002379  f :     0.010787
      f+1     :     0.001912
      f-1     :     0.001717
      f+2     :     0.001608
      f-2     :     0.001066
      f+3     :     0.001033
      f-3     :     0.001071
      g0      :     0.000034  g :     0.000163
      g+1     :     0.000025
      g-1     :     0.000023
      g+2     :     0.000018
      g-2     :     0.000008
      g+3     :     0.000017
      g-3     :     0.000017
      g+4     :     0.000010
      g-4     :     0.000010
  4 N s       :     3.362362  s :     3.362362
      pz      :     1.223081  p :     3.892904
      px      :     1.229625
      py      :     1.440198
      dz2     :     0.005069  d :     0.020633
      dxz     :     0.006492
      dyz     :     0.002735
      dx2y2   :     0.002643
      dxy     :     0.003693
      f0      :     0.000047  f :     0.000285
      f+1     :     0.000021
      f-1     :     0.000038
      f+2     :     0.000057
      f-2     :    -0.000152
      f+3     :     0.000135
      f-3     :     0.000139
  5 H s       :     0.688955  s :     0.688955
      pz      :     0.032084  p :     0.074911
      px      :     0.021640
      py      :     0.021187
      dz2     :     0.001654  d :     0.005492
      dxz     :     0.001302
      dyz     :     0.001406
      dx2y2   :     0.000688
      dxy     :     0.000441
  6 H s       :     0.688957  s :     0.688957
      pz      :     0.032084  p :     0.074911
      px      :     0.021640
      py      :     0.021187
      dz2     :     0.001654  d :     0.005492
      dxz     :     0.001302
      dyz     :     0.001406
      dx2y2   :     0.000688
      dxy     :     0.000441
  7 H s       :     0.689040  s :     0.689040
      pz      :     0.019049  p :     0.074894
      px      :     0.039149
      py      :     0.016696
      dz2     :     0.000547  d :     0.005490
      dxz     :     0.001449
      dyz     :     0.000005
      dx2y2   :     0.001797
      dxy     :     0.001693


                     *******************************
                     * LOEWDIN POPULATION ANALYSIS *
                     *******************************

----------------------
LOEWDIN ATOMIC CHARGES
----------------------
   0 Au:    0.410788
   1 Au:    0.458730
   2 Au:    0.458779
   3 Au:    0.458779
   4 N :    0.403606
   5 H :   -0.063562
   6 H :   -0.063562
   7 H :   -0.063558

-------------------------------
LOEWDIN REDUCED ORBITAL CHARGES
-------------------------------
  0 Aus       :     2.388152  s :     2.388152
      pz      :     2.037305  p :     6.434480
      px      :     2.046885
      py      :     2.350290
      dz2     :     1.959871  d :     9.732227
      dxz     :     1.984696
      dyz     :     1.937281
      dx2y2   :     1.913008
      dxy     :     1.937370
      f0      :     0.002708  f :     0.033825
      f+1     :     0.001068
      f-1     :     0.006937
      f+2     :     0.004513
      f-2     :     0.001931
      f+3     :     0.006681
      f-3     :     0.009987
      g0      :     0.000047  g :     0.000528
      g+1     :     0.000006
      g-1     :     0.000056
      g+2     :     0.000085
      g-2     :     0.000024
      g+3     :     0.000028
      g-3     :     0.000050
      g+4     :     0.000124
      g-4     :     0.000108
  1 Aus       :     2.388486  s :     2.388486
      pz      :     2.041093  p :     6.254735
      px      :     2.158384
      py      :     2.055257
      dz2     :     1.985389  d :     9.877892
      dxz     :     1.953369
      dyz     :     1.990447
      dx2y2   :     1.983791
      dxy     :     1.964896
      f0      :     0.002256  f :     0.019912
      f+1     :     0.003033
      f-1     :     0.000739
      f+2     :     0.004118
      f-2     :     0.002554
      f+3     :     0.003945
      f-3     :     0.003268
      g0      :     0.000018  g :     0.000245
      g+1     :     0.000036
      g-1     :     0.000006
      g+2     :     0.000025
      g-2     :     0.000015
      g+3     :     0.000044
      g-3     :     0.000031
      g+4     :     0.000037
      g-4     :     0.000032
  2 Aus       :     2.388363  s :     2.388363
      pz      :     2.124194  p :     6.254720
      px      :     2.064013
      py      :     2.066513
      dz2     :     1.964717  d :     9.877998
      dxz     :     1.975579
      dyz     :     1.973725
      dx2y2   :     1.976974
      dxy     :     1.987002
      f0      :     0.005408  f :     0.019896
      f+1     :     0.002879
      f-1     :     0.002644
      f+2     :     0.003502
      f-2     :     0.001644
      f+3     :     0.001850
      f-3     :     0.001969
      g0      :     0.000059  g :     0.000245
      g+1     :     0.000035
      g-1     :     0.000032
      g+2     :     0.000027
      g-2     :     0.000009
      g+3     :     0.000027
      g-3     :     0.000026
      g+4     :     0.000015
      g-4     :     0.000016
  3 Aus       :     2.388363  s :     2.388363
      pz      :     2.124194  p :     6.254720
      px      :     2.064013
      py      :     2.066513
      dz2     :     1.964717  d :     9.877998
      dxz     :     1.975579
      dyz     :     1.973725
      dx2y2   :     1.976974
      dxy     :     1.987002
      f0      :     0.005408  f :     0.019896
      f+1     :     0.002879
      f-1     :     0.002644
      f+2     :     0.003502
      f-2     :     0.001644
      f+3     :     0.001850
      f-3     :     0.001969
      g0      :     0.000059  g :     0.000245
      g+1     :     0.000035
      g-1     :     0.000032
      g+2     :     0.000027
      g-2     :     0.000009
      g+3     :     0.000027
      g-3     :     0.000026
      g+4     :     0.000015
      g-4     :     0.000016
  4 N s       :     2.872592  s :     2.872592
      pz      :     1.114382  p :     3.465973
      px      :     1.118029
      py      :     1.233562
      dz2     :     0.049113  d :     0.249177
      dxz     :     0.030167
      dyz     :     0.053129
      dx2y2   :     0.075961
      dxy     :     0.040807
      f0      :     0.000176  f :     0.008652
      f+1     :     0.001723
      f-1     :     0.002008
      f+2     :     0.000489
      f-2     :     0.002083
      f+3     :     0.000962
      f-3     :     0.001210
  5 H s       :     0.630368  s :     0.630368
      pz      :     0.136079  p :     0.376898
      px      :     0.097272
      py      :     0.143547
      dz2     :     0.016103  d :     0.056296
      dxz     :     0.012681
      dyz     :     0.014902
      dx2y2   :     0.006914
      dxy     :     0.005696
  6 H s       :     0.630368  s :     0.630368
      pz      :     0.136079  p :     0.376898
      px      :     0.097272
      py      :     0.143547
      dz2     :     0.016103  d :     0.056296
      dxz     :     0.012681
      dyz     :     0.014902
      dx2y2   :     0.006914
      dxy     :     0.005696
  7 H s       :     0.630373  s :     0.630373
      pz      :     0.083979  p :     0.376886
      px      :     0.163446
      py      :     0.129461
      dz2     :     0.005142  d :     0.056299
      dxz     :     0.016288
      dyz     :     0.000572
      dx2y2   :     0.014922
      dxy     :     0.019375


                      *****************************
                      * MAYER POPULATION ANALYSIS *
                      *****************************

  NA   - Mulliken gross atomic population
  ZA   - Total nuclear charge
  QA   - Mulliken gross atomic charge
  VA   - Mayer's total valence
  BVA  - Mayer's bonded valence
  FA   - Mayer's free valence

  ATOM       NA         ZA         QA         VA         BVA        FA
  0 Au    18.7149    19.0000     0.2851     1.6343     1.6343    -0.0000
  1 Au    18.5669    19.0000     0.4331     1.2827     1.2827    -0.0000
  2 Au    18.5669    19.0000     0.4331     1.2824     1.2824    -0.0000
  3 Au    18.5669    19.0000     0.4331     1.2824     1.2824    -0.0000
  4 N      7.2762     7.0000    -0.2762     3.5942     3.5942    -0.0000
  5 H      0.7694     1.0000     0.2306     1.0180     1.0180    -0.0000
  6 H      0.7694     1.0000     0.2306     1.0180     1.0180    -0.0000
  7 H      0.7694     1.0000     0.2306     1.0180     1.0180    -0.0000

  Mayer bond orders larger than 0.100000
B(  0-Au,  1-Au) :   0.3140 B(  0-Au,  2-Au) :   0.3139 B(  0-Au,  3-Au) :   0.3139 
B(  0-Au,  4-N ) :   0.6600 B(  1-Au,  2-Au) :   0.4778 B(  1-Au,  3-Au) :   0.4778 
B(  2-Au,  3-Au) :   0.4776 B(  4-N ,  5-H ) :   0.9648 B(  4-N ,  6-H ) :   0.9648 
B(  4-N ,  7-H ) :   0.9648 

-------
TIMINGS
-------

Total SCF time: 0 days 0 hours 0 min 43 sec 

Total time                  ....      43.611 sec
Sum of individual times     ....      43.249 sec  ( 99.2%)

Fock matrix formation       ....      41.178 sec  ( 94.4%)
  XC integration            ....       1.636 sec  (  4.0% of F)
    Basis function eval.    ....       0.172 sec  ( 10.5% of XC)
    Density eval.           ....       0.362 sec  ( 22.1% of XC)
    XC-Functional eval.     ....       0.058 sec  (  3.6% of XC)
    XC-Potential eval.      ....       0.582 sec  ( 35.6% of XC)
Diagonalization             ....       0.241 sec  (  0.6%)
Density matrix formation    ....       0.023 sec  (  0.1%)
Population analysis         ....       0.017 sec  (  0.0%)
Initial guess               ....       1.122 sec  (  2.6%)
Orbital Transformation      ....       0.000 sec  (  0.0%)
Orbital Orthonormalization  ....       0.000 sec  (  0.0%)
DIIS solution               ....       0.120 sec  (  0.3%)
Grid generation             ....       0.548 sec  (  1.3%)

-------------------------   --------------------
FINAL SINGLE POINT ENERGY      -598.632846561143
-------------------------   --------------------


                            ***************************************
                            *     ORCA property calculations      *
                            ***************************************

                                    ---------------------
                                    Active property flags
                                    ---------------------
   (+) Dipole Moment


------------------------------------------------------------------------------
                       ORCA ELECTRIC PROPERTIES CALCULATION
------------------------------------------------------------------------------

Dipole Moment Calculation                       ... on
Quadrupole Moment Calculation                   ... off
Polarizability Calculation                      ... off
GBWName                                         ... Au04C2_NH3_A.gbw
Electron density file                           ... Au04C2_NH3_A.scfp
The origin for moment calculation is the CENTER OF MASS  = ( 0.012543, -0.071721  0.000000)

-------------
DIPOLE MOMENT
-------------
                                X             Y             Z
Electronic contribution:     10.10610     -57.79011       0.00000
Nuclear contribution   :    -10.53350      60.23199       0.00000
                        -----------------------------------------
Total Dipole Moment    :     -0.42740       2.44187       0.00000
                        -----------------------------------------
Magnitude (a.u.)       :      2.47899
Magnitude (Debye)      :      6.30110



--------------------
Rotational spectrum 
--------------------
 
Rotational constants in cm-1:     0.012010     0.009744     0.009743 
Rotational constants in MHz :   360.039216   292.121240   292.077350 

 Dipole components along the rotational axes: 
x,y,z [a.u.] :    -2.478994     0.000000     0.001285 
x,y,z [Debye]:    -6.301101     0.000000     0.003265 

 

Timings for individual modules:

Sum of individual times         ...       46.267 sec (=   0.771 min)
GTO integral calculation        ...        2.258 sec (=   0.038 min)   4.9 %
SCF iterations                  ...       44.010 sec (=   0.733 min)  95.1 %
                             ****ORCA TERMINATED NORMALLY****
TOTAL RUN TIME: 0 days 0 hours 0 minutes 46 seconds 754 msec
