
                                 *****************
                                 * O   R   C   A *
                                 *****************

           --- An Ab Initio, DFT and Semiempirical electronic structure package ---

                  #######################################################
                  #                        -***-                        #
                  #          Department of theory and spectroscopy      #
                  #               Directorship: Frank Neese             #
                  #        Max Planck Institute fuer Kohlenforschung    #
                  #                Kaiser Wilhelm Platz 1               #
                  #                 D-45470 Muelheim/Ruhr               #
                  #                      Germany                        #
                  #                                                     #
                  #                  All rights reserved                #
                  #                        -***-                        #
                  #######################################################


                         Program Version 4.2.0 -  RELEASE  -


 With contributions from (in alphabetic order):
   Daniel Aravena         : Magnetic Suceptibility
   Michael Atanasov       : Ab Initio Ligand Field Theory (pilot matlab implementation)
   Alexander A. Auer      : GIAO ZORA, VPT2
   Ute Becker             : Parallelization
   Giovanni Bistoni       : ED, misc. LED, open-shell LED, HFLED
   Martin Brehm           : Molecular dynamics
   Dmytro Bykov           : SCF Hessian
   Vijay G. Chilkuri      : MRCI spin determinant printing, contributions to CSF-ICE
   Dipayan Datta          : RHF DLPNO-CCSD density
   Achintya Kumar Dutta   : EOM-CC, STEOM-CC
   Dmitry Ganyushin       : Spin-Orbit,Spin-Spin,Magnetic field MRCI
   Miquel Garcia          : C-PCM Hessian, Gaussian charge scheme
   Yang Guo               : DLPNO-NEVPT2, CIM, IAO-localization
   Andreas Hansen         : Spin unrestricted coupled pair/coupled cluster methods
   Benjamin Helmich-Paris : CASSCF linear response (MC-RPA)
   Lee Huntington         : MR-EOM, pCC
   Robert Izsak           : Overlap fitted RIJCOSX, COSX-SCS-MP3, EOM
   Christian Kollmar      : KDIIS, OOCD, Brueckner-CCSD(T), CCSD density
   Simone Kossmann        : Meta GGA functionals, TD-DFT gradient, OOMP2, MP2 Hessian
   Martin Krupicka        : AUTO-CI
   Lucas Lang             : DCDCAS
   Dagmar Lenk            : GEPOL surface, SMD
   Dimitrios Liakos       : Extrapolation schemes; Compound Job, initial MDCI parallelization
   Dimitrios Manganas     : Further ROCIS development; embedding schemes
   Dimitrios Pantazis     : SARC Basis sets
   Taras Petrenko         : DFT Hessian,TD-DFT gradient, ASA, ECA, R-Raman, ABS, FL, XAS/XES, NRVS
   Peter Pinski           : DLPNO-MP2, DLPNO-MP2 Gradient
   Christoph Reimann      : Effective Core Potentials
   Marius Retegan         : Local ZFS, SOC
   Christoph Riplinger    : Optimizer, TS searches, QM/MM, DLPNO-CCSD(T), (RO)-DLPNO pert. Triples
   Tobias Risthaus        : Range-separated hybrids, TD-DFT gradient, RPA, STAB
   Michael Roemelt        : Original ROCIS implementation
   Masaaki Saitow         : Open-shell DLPNO-CCSD energy and density
   Barbara Sandhoefer     : DKH picture change effects
   Avijit Sen             : IP-ROCIS
   Kantharuban Sivalingam : CASSCF convergence, NEVPT2, FIC-MRCI
   Bernardo de Souza      : ESD, SOC TD-DFT
   Georgi Stoychev        : AutoAux, RI-MP2 NMR
   Willem Van den Heuvel  : Paramagnetic NMR
   Boris Wezisla          : Elementary symmetry handling
   Frank Wennmohs         : Technical directorship


 We gratefully acknowledge several colleagues who have allowed us to
 interface, adapt or use parts of their codes:
   Stefan Grimme, W. Hujo, H. Kruse,             : VdW corrections, initial TS optimization,
                  C. Bannwarth                     DFT functionals, gCP, sTDA/sTD-DF
   Ed Valeev, F. Pavosevic, A. Kumar             : LibInt (2-el integral package), F12 methods
   Garnet Chan, S. Sharma, J. Yang, R. Olivares  : DMRG
   Ulf Ekstrom                                   : XCFun DFT Library
   Mihaly Kallay                                 : mrcc  (arbitrary order and MRCC methods)
   Andreas Klamt, Michael Diedenhofen            : otool_cosmo (COSMO solvation model)
   Jiri Pittner, Ondrej Demel                    : Mk-CCSD
   Frank Weinhold                                : gennbo (NPA and NBO analysis)
   Christopher J. Cramer and Donald G. Truhlar   : smd solvation model
   Lars Goerigk                                  : TD-DFT with DH, B97 family of functionals
   V. Asgeirsson, H. Jonsson                     : NEB implementation
   FAccTs GmbH                                   : IRC, NEB, NEB-TS, Multilevel, MM, QM/MM, CI optimization
   S Lehtola, MJT Oliveira, MAL Marques          : LibXC Library


 Your calculation uses the libint2 library for the computation of 2-el integrals
 For citations please refer to: http://libint.valeyev.net

 Your ORCA version has been built with support for libXC version: 4.2.3
 For citations please refer to: https://tddft.org/programs/libxc/

 This ORCA versions uses:
   CBLAS   interface :  Fast vector & matrix operations
   LAPACKE interface :  Fast linear algebra routines
   SCALAPACK package :  Parallel linear algebra routines


Your calculation utilizes the DFT-NL dispersion correction.
Cite in your paper:
Vydrov, O. A.; Van Voorhis, T. J. Chem. Phys. 2010, 133, 244103
Hujo, W.; Grimme, S. J. Chem. Theory Comput. 2011, 7, 3866 
   

----- Orbital basis set information -----
Your calculation utilizes the basis: def2-TZVPPD
   F. Weigend and R. Ahlrichs, Phys. Chem. Chem. Phys. 7, 3297 (2005).
   D. Rappoport and F. Furche, J. Chem. Phys. 133 134105 (2010).

----- AuxJK basis set information -----
Your calculation utilizes the auxiliary basis: def2/JK
   H-Ba, Hf-Rn: F. Weigend, J. Comput. Chem. 29, 167 (2008).

================================================================================
                                        WARNINGS
                       Please study these warnings very carefully!
================================================================================


WARNING: your system is open-shell and RHF/RKS was chosen
  ===> : WILL SWITCH to UHF/UKS


INFO   : the flag for use of LIBINT has been found!

================================================================================
                                       INPUT FILE
================================================================================
NAME = Cu03N0_D3H.in
|  1> #
|  2> # Cu03N0_D3H wB97M-V/Def2-TZVPPD
|  3> #
|  4> ! wb97m-v def2-tzvppd def2/jk grid4 nofinalgrid
|  5> 
|  6> *xyz 0 2
|  7> Cu       0.000000    1.346828   -0.000000 
|  8> Cu       1.166387   -0.673414   -0.000000 
|  9> Cu      -1.166387   -0.673414   -0.000000 
| 10> *
| 11> 
| 12> %maxcore 5000
| 13> 
| 14> %pal
| 15> nprocs = 24
| 16> end
| 17> 
| 18> 
| 19>                          ****END OF INPUT****
================================================================================

                       ****************************
                       * Single Point Calculation *
                       ****************************

---------------------------------
CARTESIAN COORDINATES (ANGSTROEM)
---------------------------------
  Cu     0.000000    1.346828   -0.000000
  Cu     1.166387   -0.673414   -0.000000
  Cu    -1.166387   -0.673414   -0.000000

----------------------------
CARTESIAN COORDINATES (A.U.)
----------------------------
  NO LB      ZA    FRAG     MASS         X           Y           Z
   0 Cu   29.0000    0    63.550    0.000000    2.545136   -0.000000
   1 Cu   29.0000    0    63.550    2.204152   -1.272568   -0.000000
   2 Cu   29.0000    0    63.550   -2.204152   -1.272568   -0.000000

--------------------------------
INTERNAL COORDINATES (ANGSTROEM)
--------------------------------
 Cu     0   0   0     0.000000000000     0.00000000     0.00000000
 Cu     1   0   0     2.332774393792     0.00000000     0.00000000
 Cu     2   1   0     2.332774000000    60.00000558     0.00000000

---------------------------
INTERNAL COORDINATES (A.U.)
---------------------------
 Cu     0   0   0     0.000000000000     0.00000000     0.00000000
 Cu     1   0   0     4.408304736492     0.00000000     0.00000000
 Cu     2   1   0     4.408303992332    60.00000558     0.00000000

---------------------
BASIS SET INFORMATION
---------------------
There are 1 groups of distinct atoms

 Group   1 Type Cu  : 17s13p7d2f1g contracted to 6s6p4d2f1g pattern {842111/631111/4111/11/1}

Atom   0Cu   basis set group =>   1
Atom   1Cu   basis set group =>   1
Atom   2Cu   basis set group =>   1
----------------------------------
AUXILIARY/JK BASIS SET INFORMATION
----------------------------------
There are 1 groups of distinct atoms

 Group   1 Type Cu  : 19s14p12d10f7g3h1i contracted to 16s13p11d9f5g3h1i pattern {4111111111111111/2111111111111/21111111111/211111111/31111/111/1}

Atom   0Cu   basis set group =>   1
Atom   1Cu   basis set group =>   1
Atom   2Cu   basis set group =>   1


           ************************************************************
           *        Program running with 24 parallel MPI-processes    *
           *              working on a common directory               *
           ************************************************************
------------------------------------------------------------------------------
                           ORCA GTO INTEGRAL CALCULATION
------------------------------------------------------------------------------

                         BASIS SET STATISTICS AND STARTUP INFO

 # of primitive gaussian shells          ...  120
 # of primitive gaussian functions       ...  342
 # of contracted shells                  ...   57
 # of contracted basis functions         ...  201
 Highest angular momentum                ...    4
 Maximum contraction depth               ...    8
 Integral package used                   ... LIBINT
 Integral threshhold            Thresh   ...  1.000e-10
 Primitive cut-off              TCut     ...  1.000e-11


------------------------------ INTEGRAL EVALUATION ----------------------------


 * One electron integrals 
 Pre-screening matrix                    ... done
 Shell pair data                         ... done (   0.000 sec)



           ************************************************************
           *        Program running with 24 parallel MPI-processes    *
           *              working on a common directory               *
           ************************************************************
-------------------------------------------------------------------------------
                                 ORCA SCF
-------------------------------------------------------------------------------

------------
SCF SETTINGS
------------
Hamiltonian:
 Density Functional     Method          .... DFT(GTOs)
 Exchange Functional    Exchange        .... WB97M-V
 Correlation Functional Correlation     .... WB97M-V
 Gradients option       PostSCFGGA      .... off
 Hybrid DFT is turned on
   Fraction HF Exchange ScalHFX         ....  0.150000
   Scaling of DF-GGA-X  ScalDFX         ....  0.000000
   Scaling of DF-GGA-C  ScalDFC         ....  1.000000
   Scaling of DF-LDA-C  ScalLDAC        ....  1.000000
   Perturbative correction              ....  0.000000
   Density functional embedding theory  .... OFF
 Long-range corrected/Screened/Range-Separated Hybrid DFT is turned on
   Amount of maximum screened exact exchange              ....  0.850000
   Range separation parameter mu (erf(mu*r12)/r12)        ....  0.300000
   NL short-range parameter             ....  6.000000
   NL long-range parameter              ....  0.010000


General Settings:
 Integral files         IntName         .... Cu03N0_D3H
 Hartree-Fock type      HFTyp           .... UHF
 Total Charge           Charge          ....    0
 Multiplicity           Mult            ....    2
 Number of Electrons    NEL             ....   87
 Basis Dimension        Dim             ....  201
 Nuclear Repulsion      ENuc            ....    572.3288866767 Eh

Convergence Acceleration:
 DIIS                   CNVDIIS         .... on
   Start iteration      DIISMaxIt       ....    12
   Startup error        DIISStart       ....  0.200000
   # of expansion vecs  DIISMaxEq       ....     5
   Bias factor          DIISBfac        ....   1.050
   Max. coefficient     DIISMaxC        ....  10.000
 Newton-Raphson         CNVNR           .... off
 SOSCF                  CNVSOSCF        .... off
 Level Shifting         CNVShift        .... on
   Level shift para.    LevelShift      ....    0.2500
   Turn off err/grad.   ShiftErr        ....    0.0010
 Zerner damping         CNVZerner       .... off
 Static damping         CNVDamp         .... on
   Fraction old density DampFac         ....    0.7000
   Max. Damping (<1)    DampMax         ....    0.9800
   Min. Damping (>=0)   DampMin         ....    0.0000
   Turn off err/grad.   DampErr         ....    0.1000
 Fernandez-Rico         CNVRico         .... off

SCF Procedure:
 Maximum # iterations   MaxIter         ....   125
 SCF integral mode      SCFMode         .... Direct
   Integral package                     .... LIBINT
 Reset frequency        DirectResetFreq ....    20
 Integral Threshold     Thresh          ....  1.000e-10 Eh
 Primitive CutOff       TCut            ....  1.000e-11 Eh

Convergence Tolerance:
 Convergence Check Mode ConvCheckMode   .... Total+1el-Energy
 Convergence forced     ConvForced      .... 0
 Energy Change          TolE            ....  1.000e-06 Eh
 1-El. energy change                    ....  1.000e-03 Eh
 DIIS Error             TolErr          ....  1.000e-06


Diagonalization of the overlap matrix:
Smallest eigenvalue                        ... 7.631e-04
Time for diagonalization                   ...    0.008 sec
Threshold for overlap eigenvalues          ... 1.000e-08
Number of eigenvalues below threshold      ... 0
Time for construction of square roots      ...    0.006 sec
Total time needed                          ...    0.014 sec

-------------------
DFT GRID GENERATION
-------------------

General Integration Accuracy     IntAcc      ...  4.670
Radial Grid Type                 RadialGrid  ... Gauss-Chebyshev
Angular Grid (max. acc.)         AngularGrid ... Lebedev-302
Angular grid pruning method      GridPruning ... 3 (G Style)
Weight generation scheme         WeightScheme... Becke
Basis function cutoff            BFCut       ...    1.0000e-10
Integration weight cutoff        WCut        ...    1.0000e-14
Grids for H and He will be reduced by one unit

# of grid points (after initial pruning)     ...  28668 (   0.0 sec)
# of grid points (after weights+screening)   ...  28566 (   0.0 sec)
nearest neighbour list constructed           ...    0.0 sec
Grid point re-assignment to atoms done       ...    0.0 sec
Grid point division into batches done        ...    0.2 sec
Reduced shell lists constructed in    0.2 sec

Total number of grid points                  ...    28566
Total number of batches                      ...      448
Average number of points per batch           ...       63
Average number of grid points per atom       ...     9522
Average number of shells per batch           ...    12.75 (22.37%)
Average number of basis functions per batch  ...    35.15 (17.49%)
Average number of large shells per batch     ...     9.05 (70.98%)
Average number of large basis fcns per batch ...    24.35 (69.27%)
Maximum spatial batch extension              ...  20.08, 17.16, 22.17 au
Average spatial batch extension              ...   0.56,  0.48,  0.54 au

Time for grid setup =    0.264 sec

------------------------------
INITIAL GUESS: MODEL POTENTIAL
------------------------------
Loading Hartree-Fock densities                     ... done
Calculating cut-offs                               ... done
Setting up the integral package                    ... done
Initializing the effective Hamiltonian             ... done
Starting the Coulomb interaction                   ... done (   0.0 sec)
Reading the grid                                   ... done
Mapping shells                                     ... done
Starting the XC term evaluation                    ... done (   0.0 sec)
  promolecular density results
     # of electrons  =     87.000078989
     EX              =   -196.482367750
     EC              =     -4.058912258
     EX+EC           =   -200.541280008
Transforming the Hamiltonian                       ... done (   0.0 sec)
Diagonalizing the Hamiltonian                      ... done (   0.0 sec)
Back transforming the eigenvectors                 ... done (   0.0 sec)
Now organizing SCF variables                       ... done
                      ------------------
                      INITIAL GUESS DONE (   0.4 sec)
                      ------------------
--------------
SCF ITERATIONS
--------------
ITER       Energy         Delta-E        Max-DP      RMS-DP      [F,P]     Damp
               ***  Starting incremental Fock matrix formation  ***
  0  -4921.5259452423   0.000000000000 0.11629610  0.00087504  0.1636282 0.7000
  1  -4921.5757207567  -0.049775514474 0.09492227  0.00068337  0.0517896 0.7000
                               ***Turning on DIIS***
  2  -4921.5963734601  -0.020652703332 0.21754952  0.00167956  0.0328681 0.0000
  3  -4921.6432591134  -0.046885653323 0.04065637  0.00031939  0.0220405 0.0000
  4  -4921.6456662772  -0.002407163769 0.02737115  0.00023896  0.0091984 0.0000
  5  -4921.6457905727  -0.000124295502 0.01656346  0.00014993  0.0079460 0.0000
  6  -4921.6459432305  -0.000152657863 0.01307230  0.00012194  0.0011731 0.0000
  7  -4921.6459261175   0.000017113020 0.01449237  0.00013197  0.0008235 0.0000
  8  -4921.6458165245   0.000109592967 0.00066002  0.00000893  0.0017661 0.0000
  9  -4921.6458174291  -0.000000904572 0.00222626  0.00002319  0.0003266 0.0000
 10  -4921.6458056106   0.000011818514 0.00038133  0.00000702  0.0001162 0.0000
 11  -4921.6458090404  -0.000003429783 0.00018029  0.00000403  0.0000947 0.0000
 12  -4921.6458128606  -0.000003820207 0.00007068  0.00000157  0.0001357 0.0000
 13  -4921.6458140301  -0.000001169547 0.00014657  0.00000244  0.0000360 0.0000
 14  -4921.6458167372  -0.000002707107 0.00004880  0.00000102  0.0000403 0.0000
                 **** Energy Check signals convergence ****

               *****************************************************
               *                     SUCCESS                       *
               *           SCF CONVERGED AFTER  15 CYCLES          *
               *****************************************************


Setting up the DFT-NL grid :

General Integration Accuracy     IntAcc      ...  4.340
Radial Grid Type                 RadialGrid  ... Gauss-Chebyshev
Angular Grid (max. acc.)         AngularGrid ... Lebedev-110
Angular grid pruning method      GridPruning ... 3 (G Style)
Weight generation scheme         WeightScheme... Becke
Basis function cutoff            BFCut       ...    1.0000e-10
Integration weight cutoff        WCut        ...    1.0000e-14
Grids for H and He will be reduced by one unit

# of grid points (after initial pruning)     ...   8736 (   0.0 sec)
# of grid points (after weights+screening)   ...   8688 (   0.0 sec)
nearest neighbour list constructed           ...    0.0 sec
Grid point re-assignment to atoms done       ...    0.0 sec
Grid point division into batches done        ...    0.0 sec
Reduced shell lists constructed in    0.0 sec

Total number of grid points                  ...     8688
Total number of batches                      ...      137
Average number of points per batch           ...       63
Average number of grid points per atom       ...     2896
Average number of shells per batch           ...    15.86 (27.82%)
Average number of basis functions per batch  ...    45.57 (22.67%)
Average number of large shells per batch     ...    13.57 (85.59%)
Average number of large basis fcns per batch ...    37.86 (83.07%)
Maximum spatial batch extension              ...  32.25, 15.58, 17.81 au
Average spatial batch extension              ...   1.02,  0.65,  0.70 au

Final grid set up in    0.0 sec

-------------------------------------------------------------------------------
                         DFT-NL dispersion correction                          
-------------------------------------------------------------------------------

SC Energy -4921.645817539 
NL    Energy 0.364115266 
SC+NL Energy -4921.281702273 
NL done in    0.0 sec
-------------------------------------------------------------------------------

----------------
TOTAL SCF ENERGY
----------------

Total Energy       :        -4921.28170227 Eh         -133914.88322 eV

Components:
Nuclear Repulsion  :          572.32888668 Eh           15573.86077 eV
Electronic Energy  :        -5493.61058895 Eh         -149488.74399 eV
One Electron Energy:        -8006.65597119 Eh         -217872.18538 eV
Two Electron Energy:         2513.04538224 Eh           68383.44140 eV

Virial components:
Potential Energy   :        -9836.11022790 Eh         -267654.16658 eV
Kinetic Energy     :         4914.82852563 Eh          133739.28336 eV
Virial Ratio       :            2.00131300


DFT components:
N(Alpha)           :       44.000001667605 electrons
N(Beta)            :       43.000000174929 electrons
N(Total)           :       87.000001842534 electrons
E(X)               :     -155.298984398487 Eh       
E(C)               :       -4.822609122091 Eh       
NL Energy, E(C,NL) :        0.364115266322 Eh       
E(XC)              :     -159.757478254255 Eh       
DFET-embed. en.    :        0.000000000000 Eh       

---------------
SCF CONVERGENCE
---------------

  Last Energy change         ...   -8.0218e-07  Tolerance :   1.0000e-06
  Last MAX-Density change    ...    4.9036e-05  Tolerance :   1.0000e-05
  Last RMS-Density change    ...    7.1199e-07  Tolerance :   1.0000e-06
  Last DIIS Error            ...    5.7883e-05  Tolerance :   1.0000e-06

             **** THE GBW FILE WAS UPDATED (Cu03N0_D3H.gbw) ****
             **** DENSITY FILE WAS UPDATED (Cu03N0_D3H.scfp) ****
             **** ENERGY FILE WAS UPDATED (Cu03N0_D3H.en.tmp) ****
----------------------
UHF SPIN CONTAMINATION
----------------------

Warning: in a DFT calculation there is little theoretical justification to 
         calculate <S**2> as in Hartree-Fock theory. We will do it anyways
         but you should keep in mind that the values have only limited relevance

Expectation value of <S**2>     :     0.759253
Ideal value S*(S+1) for S=0.5   :     0.750000
Deviation                       :     0.009253

             **** THE GBW FILE WAS UPDATED (Cu03N0_D3H.gbw) ****
             **** DENSITY FILE WAS UPDATED (Cu03N0_D3H.scfp) ****
----------------
ORBITAL ENERGIES
----------------
                 SPIN UP ORBITALS
  NO   OCC          E(Eh)            E(eV) 
   0   1.0000    -323.551038     -8804.2714 
   1   1.0000    -323.551033     -8804.2712 
   2   1.0000    -323.536106     -8803.8650 
   3   1.0000     -39.063271     -1062.9656 
   4   1.0000     -39.063247     -1062.9650 
   5   1.0000     -39.051128     -1062.6352 
   6   1.0000     -34.164652      -929.6674 
   7   1.0000     -34.164646      -929.6673 
   8   1.0000     -34.164095      -929.6523 
   9   1.0000     -34.164083      -929.6520 
  10   1.0000     -34.163748      -929.6428 
  11   1.0000     -34.163742      -929.6427 
  12   1.0000     -34.152485      -929.3364 
  13   1.0000     -34.152011      -929.3235 
  14   1.0000     -34.150389      -929.2793 
  15   1.0000      -4.452874      -121.1689 
  16   1.0000      -4.452541      -121.1598 
  17   1.0000      -4.438472      -120.7770 
  18   1.0000      -2.920592       -79.4734 
  19   1.0000      -2.917667       -79.3938 
  20   1.0000      -2.916404       -79.3594 
  21   1.0000      -2.915626       -79.3382 
  22   1.0000      -2.914968       -79.3203 
  23   1.0000      -2.914733       -79.3139 
  24   1.0000      -2.903479       -79.0077 
  25   1.0000      -2.902466       -78.9801 
  26   1.0000      -2.898848       -78.8817 
  27   1.0000      -0.433542       -11.7973 
  28   1.0000      -0.412945       -11.2368 
  29   1.0000      -0.410251       -11.1635 
  30   1.0000      -0.406590       -11.0639 
  31   1.0000      -0.396683       -10.7943 
  32   1.0000      -0.394089       -10.7237 
  33   1.0000      -0.389256       -10.5922 
  34   1.0000      -0.375942       -10.2299 
  35   1.0000      -0.372245       -10.1293 
  36   1.0000      -0.371757       -10.1160 
  37   1.0000      -0.365016        -9.9326 
  38   1.0000      -0.362958        -9.8766 
  39   1.0000      -0.362818        -9.8728 
  40   1.0000      -0.359697        -9.7878 
  41   1.0000      -0.348089        -9.4720 
  42   1.0000      -0.343008        -9.3337 
  43   1.0000      -0.199942        -5.4407 
  44   0.0000      -0.041403        -1.1266 
  45   0.0000       0.004624         0.1258 
  46   0.0000       0.020221         0.5502 
  47   0.0000       0.040769         1.1094 
  48   0.0000       0.045205         1.2301 
  49   0.0000       0.058026         1.5790 
  50   0.0000       0.058440         1.5902 
  51   0.0000       0.062441         1.6991 
  52   0.0000       0.069821         1.8999 
  53   0.0000       0.098192         2.6719 
  54   0.0000       0.131867         3.5883 
  55   0.0000       0.138247         3.7619 
  56   0.0000       0.159950         4.3525 
  57   0.0000       0.160176         4.3586 
  58   0.0000       0.162903         4.4328 
  59   0.0000       0.208863         5.6834 
  60   0.0000       0.209537         5.7018 
  61   0.0000       0.218157         5.9364 
  62   0.0000       0.225897         6.1470 
  63   0.0000       0.242650         6.6028 
  64   0.0000       0.254551         6.9267 
  65   0.0000       0.257303         7.0016 
  66   0.0000       0.264283         7.1915 
  67   0.0000       0.268015         7.2931 
  68   0.0000       0.275732         7.5031 
  69   0.0000       0.285878         7.7791 
  70   0.0000       0.329466         8.9652 
  71   0.0000       0.330810         9.0018 
  72   0.0000       0.346424         9.4267 
  73   0.0000       0.360271         9.8035 
  74   0.0000       0.379998        10.3403 
  75   0.0000       0.381757        10.3881 
  76   0.0000       0.383720        10.4416 
  77   0.0000       0.390237        10.6189 
  78   0.0000       0.489866        13.3299 
  79   0.0000       0.540465        14.7068 
  80   0.0000       0.542032        14.7494 
  81   0.0000       0.692952        18.8562 
  82   0.0000       0.699566        19.0362 
  83   0.0000       0.746585        20.3156 
  84   0.0000       0.749173        20.3860 
  85   0.0000       0.796769        21.6812 
  86   0.0000       0.808210        21.9925 
  87   0.0000       0.856197        23.2983 
  88   0.0000       0.863716        23.5029 
  89   0.0000       0.870523        23.6881 
  90   0.0000       0.889883        24.2149 
  91   0.0000       0.922106        25.0918 
  92   0.0000       0.925048        25.1718 
  93   0.0000       0.979321        26.6487 
  94   0.0000       1.002451        27.2781 
  95   0.0000       1.029407        28.0116 
  96   0.0000       1.029757        28.0211 
  97   0.0000       1.105647        30.0862 
  98   0.0000       1.121698        30.5230 
  99   0.0000       1.128783        30.7157 
 100   0.0000       1.163096        31.6495 
 101   0.0000       1.171063        31.8663 
 102   0.0000       1.344773        36.5931 
 103   0.0000       1.349455        36.7205 
 104   0.0000       1.363761        37.1098 
 105   0.0000       3.081512        83.8522 
 106   0.0000       3.140607        85.4603 
 107   0.0000       3.162900        86.0669 
 108   0.0000       3.167992        86.2054 
 109   0.0000       3.182685        86.6052 
 110   0.0000       3.196048        86.9689 
 111   0.0000       3.207296        87.2750 
 112   0.0000       3.210323        87.3573 
 113   0.0000       3.226616        87.8007 
 114   0.0000       3.330187        90.6190 
 115   0.0000       3.506741        95.4233 
 116   0.0000       3.520845        95.8071 
 117   0.0000       3.526281        95.9550 
 118   0.0000       3.533243        96.1444 
 119   0.0000       3.537400        96.2575 
 120   0.0000       3.537870        96.2703 
 121   0.0000       3.550013        96.6008 
 122   0.0000       3.552146        96.6588 
 123   0.0000       3.553497        96.6956 
 124   0.0000       3.554643        96.7268 
 125   0.0000       3.559060        96.8469 
 126   0.0000       3.561909        96.9245 
 127   0.0000       3.562720        96.9465 
 128   0.0000       3.566504        97.0495 
 129   0.0000       3.571218        97.1778 
 130   0.0000       3.571632        97.1891 
 131   0.0000       3.571720        97.1914 
 132   0.0000       3.574520        97.2676 
 133   0.0000       3.576943        97.3336 
 134   0.0000       3.596915        97.8770 
 135   0.0000       3.660951        99.6196 
 136   0.0000       3.714012       101.0634 
 137   0.0000       3.722573       101.2964 
 138   0.0000       3.815342       103.8207 
 139   0.0000       3.819403       103.9312 
 140   0.0000       3.821916       103.9996 
 141   0.0000       3.851949       104.8169 
 142   0.0000       3.866441       105.2112 
 143   0.0000       3.877755       105.5191 
 144   0.0000       3.891002       105.8796 
 145   0.0000       3.933330       107.0314 
 146   0.0000       3.945302       107.3571 
 147   0.0000       4.075129       110.8899 
 148   0.0000       4.077902       110.9654 
 149   0.0000       4.104377       111.6858 
 150   0.0000       4.118762       112.0772 
 151   0.0000       4.354332       118.4874 
 152   0.0000       4.361283       118.6766 
 153   0.0000      13.148663       357.7933 
 154   0.0000      13.148986       357.8021 
 155   0.0000      13.149037       357.8035 
 156   0.0000      13.149121       357.8058 
 157   0.0000      13.149894       357.8268 
 158   0.0000      13.149903       357.8270 
 159   0.0000      13.150215       357.8355 
 160   0.0000      13.150267       357.8370 
 161   0.0000      13.151207       357.8625 
 162   0.0000      13.151281       357.8645 
 163   0.0000      13.151583       357.8728 
 164   0.0000      13.151699       357.8759 
 165   0.0000      13.151810       357.8789 
 166   0.0000      13.152008       357.8843 
 167   0.0000      13.153628       357.9284 
 168   0.0000      13.153631       357.9285 
 169   0.0000      13.153763       357.9321 
 170   0.0000      13.153776       357.9324 
 171   0.0000      13.164491       358.2240 
 172   0.0000      13.165668       358.2560 
 173   0.0000      13.166392       358.2757 
 174   0.0000      13.167242       358.2989 
 175   0.0000      13.168467       358.3322 
 176   0.0000      13.169024       358.3474 
 177   0.0000      13.169200       358.3521 
 178   0.0000      13.169995       358.3738 
 179   0.0000      13.170149       358.3780 
 180   0.0000      13.327034       362.6470 
 181   0.0000      13.328363       362.6832 
 182   0.0000      13.328471       362.6861 
 183   0.0000      13.328819       362.6956 
 184   0.0000      13.328837       362.6961 
 185   0.0000      13.329648       362.7182 
 186   0.0000      13.330367       362.7377 
 187   0.0000      13.331525       362.7692 
 188   0.0000      13.332123       362.7855 
 189   0.0000      13.335481       362.8769 
 190   0.0000      13.340423       363.0114 
 191   0.0000      13.340952       363.0258 
 192   0.0000      13.342460       363.0668 
 193   0.0000      13.345552       363.1509 
 194   0.0000      13.346040       363.1642 
 195   0.0000      13.353182       363.3586 
 196   0.0000      13.353193       363.3589 
 197   0.0000      13.355081       363.4102 
 198   0.0000      13.425240       365.3193 
 199   0.0000      13.433490       365.5438 
 200   0.0000      13.436238       365.6186 

                 SPIN DOWN ORBITALS
  NO   OCC          E(Eh)            E(eV) 
   0   1.0000    -323.550792     -8804.2646 
   1   1.0000    -323.550786     -8804.2645 
   2   1.0000    -323.535455     -8803.8473 
   3   1.0000     -39.062857     -1062.9544 
   4   1.0000     -39.062833     -1062.9537 
   5   1.0000     -39.050061     -1062.6062 
   6   1.0000     -34.164030      -929.6505 
   7   1.0000     -34.164020      -929.6503 
   8   1.0000     -34.163717      -929.6420 
   9   1.0000     -34.163708      -929.6418 
  10   1.0000     -34.163579      -929.6383 
  11   1.0000     -34.163573      -929.6381 
  12   1.0000     -34.151420      -929.3074 
  13   1.0000     -34.151214      -929.3018 
  14   1.0000     -34.149869      -929.2652 
  15   1.0000      -4.451983      -121.1446 
  16   1.0000      -4.451651      -121.1356 
  17   1.0000      -4.436154      -120.7139 
  18   1.0000      -2.919548       -79.4449 
  19   1.0000      -2.916827       -79.3709 
  20   1.0000      -2.915270       -79.3285 
  21   1.0000      -2.914389       -79.3046 
  22   1.0000      -2.914364       -79.3039 
  23   1.0000      -2.914167       -79.2985 
  24   1.0000      -2.901622       -78.9572 
  25   1.0000      -2.900087       -78.9154 
  26   1.0000      -2.896800       -78.8259 
  27   1.0000      -0.429855       -11.6970 
  28   1.0000      -0.410283       -11.1644 
  29   1.0000      -0.409133       -11.1331 
  30   1.0000      -0.403148       -10.9702 
  31   1.0000      -0.393704       -10.7132 
  32   1.0000      -0.392498       -10.6804 
  33   1.0000      -0.387848       -10.5539 
  34   1.0000      -0.374490       -10.1904 
  35   1.0000      -0.371555       -10.1105 
  36   1.0000      -0.371085       -10.0977 
  37   1.0000      -0.362297        -9.8586 
  38   1.0000      -0.360580        -9.8119 
  39   1.0000      -0.357947        -9.7402 
  40   1.0000      -0.357289        -9.7223 
  41   1.0000      -0.343866        -9.3571 
  42   1.0000      -0.328688        -8.9440 
  43   0.0000      -0.080502        -2.1906 
  44   0.0000      -0.060533        -1.6472 
  45   0.0000      -0.046194        -1.2570 
  46   0.0000      -0.016380        -0.4457 
  47   0.0000      -0.008331        -0.2267 
  48   0.0000       0.004686         0.1275 
  49   0.0000       0.008681         0.2362 
  50   0.0000       0.011238         0.3058 
  51   0.0000       0.014718         0.4005 
  52   0.0000       0.036969         1.0060 
  53   0.0000       0.052301         1.4232 
  54   0.0000       0.105017         2.8577 
  55   0.0000       0.123256         3.3540 
  56   0.0000       0.140673         3.8279 
  57   0.0000       0.142285         3.8718 
  58   0.0000       0.153466         4.1760 
  59   0.0000       0.187370         5.0986 
  60   0.0000       0.189583         5.1588 
  61   0.0000       0.195391         5.3169 
  62   0.0000       0.197612         5.3773 
  63   0.0000       0.212086         5.7712 
  64   0.0000       0.223170         6.0728 
  65   0.0000       0.229888         6.2556 
  66   0.0000       0.232287         6.3209 
  67   0.0000       0.232752         6.3335 
  68   0.0000       0.247747         6.7415 
  69   0.0000       0.259667         7.0659 
  70   0.0000       0.288374         7.8470 
  71   0.0000       0.288668         7.8551 
  72   0.0000       0.308022         8.3817 
  73   0.0000       0.329899         8.9770 
  74   0.0000       0.346047         9.4164 
  75   0.0000       0.348872         9.4933 
  76   0.0000       0.349241         9.5033 
  77   0.0000       0.360925         9.8213 
  78   0.0000       0.467680        12.7262 
  79   0.0000       0.523155        14.2358 
  80   0.0000       0.529478        14.4078 
  81   0.0000       0.682200        18.5636 
  82   0.0000       0.693993        18.8845 
  83   0.0000       0.736757        20.0482 
  84   0.0000       0.737396        20.0656 
  85   0.0000       0.791576        21.5399 
  86   0.0000       0.798884        21.7387 
  87   0.0000       0.851958        23.1830 
  88   0.0000       0.857587        23.3361 
  89   0.0000       0.865196        23.5432 
  90   0.0000       0.887672        24.1548 
  91   0.0000       0.919426        25.0189 
  92   0.0000       0.923037        25.1171 
  93   0.0000       0.968759        26.3613 
  94   0.0000       1.000117        27.2146 
  95   0.0000       1.028178        27.9781 
  96   0.0000       1.028937        27.9988 
  97   0.0000       1.106672        30.1141 
  98   0.0000       1.123173        30.5631 
  99   0.0000       1.128556        30.7096 
 100   0.0000       1.162927        31.6449 
 101   0.0000       1.168316        31.7915 
 102   0.0000       1.345208        36.6050 
 103   0.0000       1.347278        36.6613 
 104   0.0000       1.366334        37.1798 
 105   0.0000       3.081349        83.8478 
 106   0.0000       3.141377        85.4812 
 107   0.0000       3.163408        86.0807 
 108   0.0000       3.167650        86.1961 
 109   0.0000       3.182443        86.5987 
 110   0.0000       3.196112        86.9706 
 111   0.0000       3.208152        87.2983 
 112   0.0000       3.212074        87.4050 
 113   0.0000       3.227007        87.8113 
 114   0.0000       3.331715        90.6606 
 115   0.0000       3.509298        95.4929 
 116   0.0000       3.521042        95.8124 
 117   0.0000       3.526391        95.9580 
 118   0.0000       3.533858        96.1612 
 119   0.0000       3.540638        96.3456 
 120   0.0000       3.541058        96.3571 
 121   0.0000       3.551429        96.6393 
 122   0.0000       3.553606        96.6985 
 123   0.0000       3.554724        96.7290 
 124   0.0000       3.555332        96.7455 
 125   0.0000       3.559678        96.8638 
 126   0.0000       3.562279        96.9346 
 127   0.0000       3.563011        96.9544 
 128   0.0000       3.569176        97.1222 
 129   0.0000       3.573063        97.2280 
 130   0.0000       3.573801        97.2481 
 131   0.0000       3.574263        97.2606 
 132   0.0000       3.576538        97.3225 
 133   0.0000       3.579468        97.4023 
 134   0.0000       3.600062        97.9627 
 135   0.0000       3.661419        99.6323 
 136   0.0000       3.714918       101.0881 
 137   0.0000       3.723396       101.3188 
 138   0.0000       3.815586       103.8274 
 139   0.0000       3.819717       103.9398 
 140   0.0000       3.822770       104.0228 
 141   0.0000       3.852481       104.8313 
 142   0.0000       3.867717       105.2459 
 143   0.0000       3.879381       105.5633 
 144   0.0000       3.892365       105.9166 
 145   0.0000       3.933915       107.0473 
 146   0.0000       3.946943       107.4018 
 147   0.0000       4.076798       110.9353 
 148   0.0000       4.079933       111.0206 
 149   0.0000       4.105068       111.7046 
 150   0.0000       4.121376       112.1483 
 151   0.0000       4.354677       118.4968 
 152   0.0000       4.361363       118.6787 
 153   0.0000      13.149143       357.8064 
 154   0.0000      13.149215       357.8083 
 155   0.0000      13.149250       357.8093 
 156   0.0000      13.149406       357.8135 
 157   0.0000      13.150076       357.8318 
 158   0.0000      13.150451       357.8420 
 159   0.0000      13.150576       357.8454 
 160   0.0000      13.150592       357.8458 
 161   0.0000      13.151423       357.8684 
 162   0.0000      13.151677       357.8753 
 163   0.0000      13.152036       357.8851 
 164   0.0000      13.152171       357.8888 
 165   0.0000      13.152267       357.8914 
 166   0.0000      13.152645       357.9017 
 167   0.0000      13.153664       357.9294 
 168   0.0000      13.153674       357.9297 
 169   0.0000      13.153805       357.9332 
 170   0.0000      13.153837       357.9341 
 171   0.0000      13.165305       358.2462 
 172   0.0000      13.166466       358.2777 
 173   0.0000      13.166875       358.2889 
 174   0.0000      13.167765       358.3131 
 175   0.0000      13.168952       358.3454 
 176   0.0000      13.169464       358.3593 
 177   0.0000      13.169695       358.3656 
 178   0.0000      13.170536       358.3885 
 179   0.0000      13.170697       358.3929 
 180   0.0000      13.327936       362.6716 
 181   0.0000      13.329251       362.7074 
 182   0.0000      13.329550       362.7155 
 183   0.0000      13.329673       362.7189 
 184   0.0000      13.329895       362.7249 
 185   0.0000      13.330936       362.7532 
 186   0.0000      13.331060       362.7566 
 187   0.0000      13.332550       362.7971 
 188   0.0000      13.332812       362.8043 
 189   0.0000      13.336192       362.8962 
 190   0.0000      13.341785       363.0484 
 191   0.0000      13.342794       363.0759 
 192   0.0000      13.345092       363.1384 
 193   0.0000      13.346691       363.1819 
 194   0.0000      13.348383       363.2280 
 195   0.0000      13.354796       363.4025 
 196   0.0000      13.355093       363.4106 
 197   0.0000      13.356650       363.4529 
 198   0.0000      13.426581       365.3559 
 199   0.0000      13.434627       365.5748 
 200   0.0000      13.437700       365.6584 

                    ********************************
                    * MULLIKEN POPULATION ANALYSIS *
                    ********************************

--------------------------------------------
MULLIKEN ATOMIC CHARGES AND SPIN POPULATIONS
--------------------------------------------
   0 Cu:   -0.081495    0.544424
   1 Cu:    0.040756    0.227774
   2 Cu:    0.040739    0.227801
Sum of atomic charges         :    0.0000000
Sum of atomic spin populations:    1.0000000

-----------------------------------------------------
MULLIKEN REDUCED ORBITAL CHARGES AND SPIN POPULATIONS
-----------------------------------------------------
CHARGE
  0 Cus       :     7.070063  s :     7.070063
      pz      :     4.010139  p :    12.110240
      px      :     4.009602
      py      :     4.090500
      dz2     :     1.987817  d :     9.901003
      dxz     :     1.996881
      dyz     :     1.989569
      dx2y2   :     1.982237
      dxy     :     1.944498
      f0      :     0.000020  f :     0.000188
      f+1     :     0.000010
      f-1     :     0.000029
      f+2     :     0.000013
      f-2     :     0.000025
      f+3     :     0.000043
      f-3     :     0.000049
      g0      :     0.000000  g :     0.000001
      g+1     :     0.000000
      g-1     :     0.000000
      g+2     :     0.000000
      g-2     :     0.000000
      g+3     :     0.000000
      g-3     :     0.000000
      g+4     :     0.000000
      g-4     :     0.000000
  1 Cus       :     6.798886  s :     6.798886
      pz      :     4.011253  p :    12.221492
      px      :     4.052658
      py      :     4.157581
      dz2     :     1.991683  d :     9.938613
      dxz     :     1.993976
      dyz     :     1.996365
      dx2y2   :     1.973281
      dxy     :     1.983309
      f0      :     0.000025  f :     0.000252
      f+1     :     0.000035
      f-1     :     0.000017
      f+2     :     0.000031
      f-2     :     0.000027
      f+3     :     0.000057
      f-3     :     0.000060
      g0      :     0.000000  g :     0.000001
      g+1     :     0.000000
      g-1     :     0.000000
      g+2     :     0.000000
      g-2     :     0.000000
      g+3     :     0.000000
      g-3     :     0.000000
      g+4     :     0.000000
      g-4     :     0.000000
  2 Cus       :     6.798911  s :     6.798911
      pz      :     4.011253  p :    12.221486
      px      :     4.052659
      py      :     4.157574
      dz2     :     1.991683  d :     9.938612
      dxz     :     1.993976
      dyz     :     1.996365
      dx2y2   :     1.973280
      dxy     :     1.983309
      f0      :     0.000025  f :     0.000252
      f+1     :     0.000035
      f-1     :     0.000017
      f+2     :     0.000031
      f-2     :     0.000027
      f+3     :     0.000057
      f-3     :     0.000060
      g0      :     0.000000  g :     0.000001
      g+1     :     0.000000
      g-1     :     0.000000
      g+2     :     0.000000
      g-2     :     0.000000
      g+3     :     0.000000
      g-3     :     0.000000
      g+4     :     0.000000
      g-4     :     0.000000

SPIN
  0 Cus       :     0.475973  s :     0.475973
      pz      :     0.001137  p :     0.066941
      px      :    -0.000054
      py      :     0.065858
      dz2     :    -0.000291  d :     0.001510
      dxz     :    -0.000977
      dyz     :    -0.000779
      dx2y2   :     0.003145
      dxy     :     0.000413
      f0      :     0.000000  f :     0.000001
      f+1     :    -0.000000
      f-1     :    -0.000001
      f+2     :     0.000000
      f-2     :    -0.000000
      f+3     :    -0.000001
      f-3     :     0.000003
      g0      :     0.000000  g :     0.000000
      g+1     :     0.000000
      g-1     :     0.000000
      g+2     :     0.000000
      g-2     :     0.000000
      g+3     :    -0.000000
      g-3     :    -0.000000
      g+4     :     0.000000
      g-4     :     0.000000
  1 Cus       :     0.085663  s :     0.085663
      pz      :     0.000856  p :     0.139354
      px      :     0.005552
      py      :     0.132946
      dz2     :     0.000067  d :     0.002756
      dxz     :    -0.000269
      dyz     :    -0.000277
      dx2y2   :     0.001870
      dxy     :     0.001364
      f0      :    -0.000000  f :     0.000001
      f+1     :    -0.000001
      f-1     :     0.000001
      f+2     :    -0.000000
      f-2     :     0.000000
      f+3     :     0.000003
      f-3     :    -0.000001
      g0      :     0.000000  g :     0.000000
      g+1     :     0.000000
      g-1     :     0.000000
      g+2     :     0.000000
      g-2     :     0.000000
      g+3     :     0.000000
      g-3     :    -0.000000
      g+4     :    -0.000000
      g-4     :     0.000000
  2 Cus       :     0.085695  s :     0.085695
      pz      :     0.000856  p :     0.139349
      px      :     0.005553
      py      :     0.132940
      dz2     :     0.000068  d :     0.002756
      dxz     :    -0.000269
      dyz     :    -0.000277
      dx2y2   :     0.001870
      dxy     :     0.001364
      f0      :    -0.000000  f :     0.000001
      f+1     :    -0.000001
      f-1     :     0.000001
      f+2     :    -0.000000
      f-2     :     0.000000
      f+3     :     0.000003
      f-3     :    -0.000001
      g0      :     0.000000  g :     0.000000
      g+1     :     0.000000
      g-1     :     0.000000
      g+2     :     0.000000
      g-2     :     0.000000
      g+3     :     0.000000
      g-3     :    -0.000000
      g+4     :    -0.000000
      g-4     :     0.000000


                     *******************************
                     * LOEWDIN POPULATION ANALYSIS *
                     *******************************

-------------------------------------------
LOEWDIN ATOMIC CHARGES AND SPIN POPULATIONS
-------------------------------------------
   0 Cu:   -0.018569    0.388351
   1 Cu:    0.009285    0.305823
   2 Cu:    0.009284    0.305826

----------------------------------------------------
LOEWDIN REDUCED ORBITAL CHARGES AND SPIN POPULATIONS
----------------------------------------------------
CHARGE
  0 Cus       :     6.674135  s :     6.674135
      pz      :     4.012537  p :    12.369580
      px      :     4.028270
      py      :     4.328773
      dz2     :     2.013666  d :     9.974329
      dxz     :     1.996164
      dyz     :     1.986732
      dx2y2   :     2.005048
      dxy     :     1.972719
      f0      :     0.000046  f :     0.000523
      f+1     :     0.000032
      f-1     :     0.000083
      f+2     :     0.000025
      f-2     :     0.000062
      f+3     :     0.000166
      f-3     :     0.000109
      g0      :     0.000000  g :     0.000002
      g+1     :     0.000000
      g-1     :     0.000000
      g+2     :     0.000000
      g-2     :     0.000000
      g+3     :     0.000000
      g-3     :     0.000000
      g+4     :     0.000000
      g-4     :     0.000000
  1 Cus       :     6.538357  s :     6.538357
      pz      :     4.014066  p :    12.431367
      px      :     4.132409
      py      :     4.284892
      dz2     :     2.012555  d :    10.020363
      dxz     :     1.992509
      dyz     :     1.995477
      dx2y2   :     2.007588
      dxy     :     2.012234
      f0      :     0.000053  f :     0.000626
      f+1     :     0.000077
      f-1     :     0.000050
      f+2     :     0.000064
      f-2     :     0.000047
      f+3     :     0.000211
      f-3     :     0.000124
      g0      :     0.000000  g :     0.000002
      g+1     :     0.000000
      g-1     :     0.000000
      g+2     :     0.000000
      g-2     :     0.000000
      g+3     :     0.000000
      g-3     :     0.000000
      g+4     :     0.000000
      g-4     :     0.000000
  2 Cus       :     6.538363  s :     6.538363
      pz      :     4.014066  p :    12.431364
      px      :     4.132408
      py      :     4.284891
      dz2     :     2.012555  d :    10.020362
      dxz     :     1.992509
      dyz     :     1.995477
      dx2y2   :     2.007586
      dxy     :     2.012234
      f0      :     0.000053  f :     0.000626
      f+1     :     0.000077
      f-1     :     0.000050
      f+2     :     0.000064
      f-2     :     0.000047
      f+3     :     0.000211
      f-3     :     0.000124
      g0      :     0.000000  g :     0.000002
      g+1     :     0.000000
      g-1     :     0.000000
      g+2     :     0.000000
      g-2     :     0.000000
      g+3     :     0.000000
      g-3     :     0.000000
      g+4     :     0.000000
      g-4     :     0.000000

SPIN
  0 Cus       :     0.196326  s :     0.196326
      pz      :     0.000183  p :     0.168657
      px      :    -0.000147
      py      :     0.168621
      dz2     :     0.005040  d :     0.023354
      dxz     :    -0.000123
      dyz     :     0.000334
      dx2y2   :     0.015421
      dxy     :     0.002682
      f0      :    -0.000000  f :     0.000014
      f+1     :    -0.000000
      f-1     :     0.000010
      f+2     :     0.000000
      f-2     :    -0.000000
      f+3     :     0.000002
      f-3     :     0.000002
      g0      :     0.000000  g :     0.000000
      g+1     :     0.000000
      g-1     :     0.000000
      g+2     :     0.000000
      g-2     :     0.000000
      g+3     :     0.000000
      g-3     :     0.000000
      g+4     :     0.000000
      g-4     :     0.000000
  1 Cus       :     0.039448  s :     0.039448
      pz      :    -0.000030  p :     0.228958
      px      :     0.005947
      py      :     0.223040
      dz2     :     0.003356  d :     0.037387
      dxz     :    -0.000136
      dyz     :    -0.000031
      dx2y2   :     0.015997
      dxy     :     0.018202
      f0      :     0.000000  f :     0.000030
      f+1     :    -0.000000
      f-1     :     0.000007
      f+2     :    -0.000000
      f-2     :    -0.000000
      f+3     :     0.000024
      f-3     :    -0.000001
      g0      :     0.000000  g :     0.000000
      g+1     :     0.000000
      g-1     :     0.000000
      g+2     :     0.000000
      g-2     :     0.000000
      g+3     :     0.000000
      g-3     :    -0.000000
      g+4     :     0.000000
      g-4     :     0.000000
  2 Cus       :     0.039455  s :     0.039455
      pz      :    -0.000030  p :     0.228955
      px      :     0.005946
      py      :     0.223039
      dz2     :     0.003356  d :     0.037387
      dxz     :    -0.000136
      dyz     :    -0.000031
      dx2y2   :     0.015996
      dxy     :     0.018202
      f0      :     0.000000  f :     0.000030
      f+1     :    -0.000000
      f-1     :     0.000007
      f+2     :    -0.000000
      f-2     :    -0.000000
      f+3     :     0.000024
      f-3     :    -0.000001
      g0      :     0.000000  g :     0.000000
      g+1     :     0.000000
      g-1     :     0.000000
      g+2     :     0.000000
      g-2     :     0.000000
      g+3     :     0.000000
      g-3     :    -0.000000
      g+4     :     0.000000
      g-4     :     0.000000


                      *****************************
                      * MAYER POPULATION ANALYSIS *
                      *****************************

  NA   - Mulliken gross atomic population
  ZA   - Total nuclear charge
  QA   - Mulliken gross atomic charge
  VA   - Mayer's total valence
  BVA  - Mayer's bonded valence
  FA   - Mayer's free valence

  ATOM       NA         ZA         QA         VA         BVA        FA
  0 Cu    29.0815    29.0000    -0.0815     1.2789     0.9807     0.2982
  1 Cu    28.9592    29.0000     0.0408     1.3516     1.2666     0.0851
  2 Cu    28.9593    29.0000     0.0407     1.3516     1.2666     0.0851

  Mayer bond orders larger than 0.100000
B(  0-Cu,  1-Cu) :   0.4903 B(  0-Cu,  2-Cu) :   0.4903 B(  1-Cu,  2-Cu) :   0.7762 


-------
TIMINGS
-------

Total SCF time: 0 days 0 hours 0 min 13 sec 

Total time                  ....      13.909 sec
Sum of individual times     ....      13.622 sec  ( 97.9%)

Fock matrix formation       ....      12.962 sec  ( 93.2%)
  XC integration            ....       1.084 sec  (  8.4% of F)
    Basis function eval.    ....       0.051 sec  (  4.7% of XC)
    Density eval.           ....       0.154 sec  ( 14.2% of XC)
    XC-Functional eval.     ....       0.032 sec  (  3.0% of XC)
    XC-Potential eval.      ....       0.320 sec  ( 29.5% of XC)
Diagonalization             ....       0.178 sec  (  1.3%)
Density matrix formation    ....       0.021 sec  (  0.2%)
Population analysis         ....       0.012 sec  (  0.1%)
Initial guess               ....       0.098 sec  (  0.7%)
Orbital Transformation      ....       0.000 sec  (  0.0%)
Orbital Orthonormalization  ....       0.000 sec  (  0.0%)
DIIS solution               ....       0.061 sec  (  0.4%)
Grid generation             ....       0.289 sec  (  2.1%)

-------------------------   --------------------
FINAL SINGLE POINT ENERGY     -4921.281702273110
-------------------------   --------------------


                            ***************************************
                            *     ORCA property calculations      *
                            ***************************************

                                    ---------------------
                                    Active property flags
                                    ---------------------
   (+) Dipole Moment


------------------------------------------------------------------------------
                       ORCA ELECTRIC PROPERTIES CALCULATION
------------------------------------------------------------------------------

Dipole Moment Calculation                       ... on
Quadrupole Moment Calculation                   ... off
Polarizability Calculation                      ... off
GBWName                                         ... Cu03N0_D3H.gbw
Electron density file                           ... Cu03N0_D3H.scfp
The origin for moment calculation is the CENTER OF MASS  = ( 0.000000,  0.000000  0.000000)

-------------
DIPOLE MOMENT
-------------
                                X             Y             Z
Electronic contribution:      0.00001      -0.31125      -0.00000
Nuclear contribution   :      0.00000       0.00000      -0.00000
                        -----------------------------------------
Total Dipole Moment    :      0.00001      -0.31125      -0.00000
                        -----------------------------------------
Magnitude (a.u.)       :      0.31125
Magnitude (Debye)      :      0.79114



--------------------
Rotational spectrum 
--------------------
 
Rotational constants in cm-1:     0.097491     0.097491     0.048746 
Rotational constants in MHz :  2922.716641  2922.715325  1461.357991 

 Dipole components along the rotational axes: 
x,y,z [a.u.] :    -0.311253     0.000009    -0.000000 
x,y,z [Debye]:    -0.791143     0.000023    -0.000000 

 

Timings for individual modules:

Sum of individual times         ...       15.200 sec (=   0.253 min)
GTO integral calculation        ...        0.895 sec (=   0.015 min)   5.9 %
SCF iterations                  ...       14.305 sec (=   0.238 min)  94.1 %
                             ****ORCA TERMINATED NORMALLY****
TOTAL RUN TIME: 0 days 0 hours 0 minutes 15 seconds 692 msec
