
                                 *****************
                                 * O   R   C   A *
                                 *****************

           --- An Ab Initio, DFT and Semiempirical electronic structure package ---

                  #######################################################
                  #                        -***-                        #
                  #          Department of theory and spectroscopy      #
                  #               Directorship: Frank Neese             #
                  #        Max Planck Institute fuer Kohlenforschung    #
                  #                Kaiser Wilhelm Platz 1               #
                  #                 D-45470 Muelheim/Ruhr               #
                  #                      Germany                        #
                  #                                                     #
                  #                  All rights reserved                #
                  #                        -***-                        #
                  #######################################################


                         Program Version 4.2.0 -  RELEASE  -


 With contributions from (in alphabetic order):
   Daniel Aravena         : Magnetic Suceptibility
   Michael Atanasov       : Ab Initio Ligand Field Theory (pilot matlab implementation)
   Alexander A. Auer      : GIAO ZORA, VPT2
   Ute Becker             : Parallelization
   Giovanni Bistoni       : ED, misc. LED, open-shell LED, HFLED
   Martin Brehm           : Molecular dynamics
   Dmytro Bykov           : SCF Hessian
   Vijay G. Chilkuri      : MRCI spin determinant printing, contributions to CSF-ICE
   Dipayan Datta          : RHF DLPNO-CCSD density
   Achintya Kumar Dutta   : EOM-CC, STEOM-CC
   Dmitry Ganyushin       : Spin-Orbit,Spin-Spin,Magnetic field MRCI
   Miquel Garcia          : C-PCM Hessian, Gaussian charge scheme
   Yang Guo               : DLPNO-NEVPT2, CIM, IAO-localization
   Andreas Hansen         : Spin unrestricted coupled pair/coupled cluster methods
   Benjamin Helmich-Paris : CASSCF linear response (MC-RPA)
   Lee Huntington         : MR-EOM, pCC
   Robert Izsak           : Overlap fitted RIJCOSX, COSX-SCS-MP3, EOM
   Christian Kollmar      : KDIIS, OOCD, Brueckner-CCSD(T), CCSD density
   Simone Kossmann        : Meta GGA functionals, TD-DFT gradient, OOMP2, MP2 Hessian
   Martin Krupicka        : AUTO-CI
   Lucas Lang             : DCDCAS
   Dagmar Lenk            : GEPOL surface, SMD
   Dimitrios Liakos       : Extrapolation schemes; Compound Job, initial MDCI parallelization
   Dimitrios Manganas     : Further ROCIS development; embedding schemes
   Dimitrios Pantazis     : SARC Basis sets
   Taras Petrenko         : DFT Hessian,TD-DFT gradient, ASA, ECA, R-Raman, ABS, FL, XAS/XES, NRVS
   Peter Pinski           : DLPNO-MP2, DLPNO-MP2 Gradient
   Christoph Reimann      : Effective Core Potentials
   Marius Retegan         : Local ZFS, SOC
   Christoph Riplinger    : Optimizer, TS searches, QM/MM, DLPNO-CCSD(T), (RO)-DLPNO pert. Triples
   Tobias Risthaus        : Range-separated hybrids, TD-DFT gradient, RPA, STAB
   Michael Roemelt        : Original ROCIS implementation
   Masaaki Saitow         : Open-shell DLPNO-CCSD energy and density
   Barbara Sandhoefer     : DKH picture change effects
   Avijit Sen             : IP-ROCIS
   Kantharuban Sivalingam : CASSCF convergence, NEVPT2, FIC-MRCI
   Bernardo de Souza      : ESD, SOC TD-DFT
   Georgi Stoychev        : AutoAux, RI-MP2 NMR
   Willem Van den Heuvel  : Paramagnetic NMR
   Boris Wezisla          : Elementary symmetry handling
   Frank Wennmohs         : Technical directorship


 We gratefully acknowledge several colleagues who have allowed us to
 interface, adapt or use parts of their codes:
   Stefan Grimme, W. Hujo, H. Kruse,             : VdW corrections, initial TS optimization,
                  C. Bannwarth                     DFT functionals, gCP, sTDA/sTD-DF
   Ed Valeev, F. Pavosevic, A. Kumar             : LibInt (2-el integral package), F12 methods
   Garnet Chan, S. Sharma, J. Yang, R. Olivares  : DMRG
   Ulf Ekstrom                                   : XCFun DFT Library
   Mihaly Kallay                                 : mrcc  (arbitrary order and MRCC methods)
   Andreas Klamt, Michael Diedenhofen            : otool_cosmo (COSMO solvation model)
   Jiri Pittner, Ondrej Demel                    : Mk-CCSD
   Frank Weinhold                                : gennbo (NPA and NBO analysis)
   Christopher J. Cramer and Donald G. Truhlar   : smd solvation model
   Lars Goerigk                                  : TD-DFT with DH, B97 family of functionals
   V. Asgeirsson, H. Jonsson                     : NEB implementation
   FAccTs GmbH                                   : IRC, NEB, NEB-TS, Multilevel, MM, QM/MM, CI optimization
   S Lehtola, MJT Oliveira, MAL Marques          : LibXC Library


 Your calculation uses the libint2 library for the computation of 2-el integrals
 For citations please refer to: http://libint.valeyev.net

 Your ORCA version has been built with support for libXC version: 4.2.3
 For citations please refer to: https://tddft.org/programs/libxc/

 This ORCA versions uses:
   CBLAS   interface :  Fast vector & matrix operations
   LAPACKE interface :  Fast linear algebra routines
   SCALAPACK package :  Parallel linear algebra routines


Your calculation utilizes the DFT-NL dispersion correction.
Cite in your paper:
Vydrov, O. A.; Van Voorhis, T. J. Chem. Phys. 2010, 133, 244103
Hujo, W.; Grimme, S. J. Chem. Theory Comput. 2011, 7, 3866 
   

----- Orbital basis set information -----
Your calculation utilizes the basis: def2-TZVPPD
   F. Weigend and R. Ahlrichs, Phys. Chem. Chem. Phys. 7, 3297 (2005).
   D. Rappoport and F. Furche, J. Chem. Phys. 133 134105 (2010).

----- AuxJK basis set information -----
Your calculation utilizes the auxiliary basis: def2/JK
   H-Ba, Hf-Rn: F. Weigend, J. Comput. Chem. 29, 167 (2008).

================================================================================
                                        WARNINGS
                       Please study these warnings very carefully!
================================================================================


INFO   : the flag for use of LIBINT has been found!

================================================================================
                                       INPUT FILE
================================================================================
NAME = Cu03C1_D3H.in
|  1> #
|  2> # Cu03C1_D3H wB97M-V/Def2-TZVPPD
|  3> #
|  4> ! wb97m-v def2-tzvppd def2/jk grid4 nofinalgrid
|  5> 
|  6> *xyz 1 1
|  7> Cu       0.000000    1.349261   -0.000000 
|  8> Cu       1.168494   -0.674630    0.000000 
|  9> Cu      -1.168494   -0.674630   -0.000000 
| 10> *
| 11> 
| 12> %maxcore 5000
| 13> 
| 14> %pal
| 15> nprocs = 24
| 16> end
| 17> 
| 18> 
| 19>                          ****END OF INPUT****
================================================================================

                       ****************************
                       * Single Point Calculation *
                       ****************************

---------------------------------
CARTESIAN COORDINATES (ANGSTROEM)
---------------------------------
  Cu     0.000000    1.349261   -0.000000
  Cu     1.168494   -0.674630    0.000000
  Cu    -1.168494   -0.674630   -0.000000

----------------------------
CARTESIAN COORDINATES (A.U.)
----------------------------
  NO LB      ZA    FRAG     MASS         X           Y           Z
   0 Cu   29.0000    0    63.550    0.000000    2.549734   -0.000000
   1 Cu   29.0000    0    63.550    2.208134   -1.274866    0.000000
   2 Cu   29.0000    0    63.550   -2.208134   -1.274866   -0.000000

--------------------------------
INTERNAL COORDINATES (ANGSTROEM)
--------------------------------
 Cu     0   0   0     0.000000000000     0.00000000     0.00000000
 Cu     1   0   0     2.336988020491     0.00000000     0.00000000
 Cu     2   1   0     2.336988000000    60.00000029     0.00000000

---------------------------
INTERNAL COORDINATES (A.U.)
---------------------------
 Cu     0   0   0     0.000000000000     0.00000000     0.00000000
 Cu     1   0   0     4.416267336982     0.00000000     0.00000000
 Cu     2   1   0     4.416267298260    60.00000029     0.00000000

---------------------
BASIS SET INFORMATION
---------------------
There are 1 groups of distinct atoms

 Group   1 Type Cu  : 17s13p7d2f1g contracted to 6s6p4d2f1g pattern {842111/631111/4111/11/1}

Atom   0Cu   basis set group =>   1
Atom   1Cu   basis set group =>   1
Atom   2Cu   basis set group =>   1
----------------------------------
AUXILIARY/JK BASIS SET INFORMATION
----------------------------------
There are 1 groups of distinct atoms

 Group   1 Type Cu  : 19s14p12d10f7g3h1i contracted to 16s13p11d9f5g3h1i pattern {4111111111111111/2111111111111/21111111111/211111111/31111/111/1}

Atom   0Cu   basis set group =>   1
Atom   1Cu   basis set group =>   1
Atom   2Cu   basis set group =>   1


           ************************************************************
           *        Program running with 24 parallel MPI-processes    *
           *              working on a common directory               *
           ************************************************************
------------------------------------------------------------------------------
                           ORCA GTO INTEGRAL CALCULATION
------------------------------------------------------------------------------

                         BASIS SET STATISTICS AND STARTUP INFO

 # of primitive gaussian shells          ...  120
 # of primitive gaussian functions       ...  342
 # of contracted shells                  ...   57
 # of contracted basis functions         ...  201
 Highest angular momentum                ...    4
 Maximum contraction depth               ...    8
 Integral package used                   ... LIBINT
 Integral threshhold            Thresh   ...  1.000e-10
 Primitive cut-off              TCut     ...  1.000e-11


------------------------------ INTEGRAL EVALUATION ----------------------------


 * One electron integrals 
 Pre-screening matrix                    ... done
 Shell pair data                         ... done (   0.000 sec)



           ************************************************************
           *        Program running with 24 parallel MPI-processes    *
           *              working on a common directory               *
           ************************************************************
-------------------------------------------------------------------------------
                                 ORCA SCF
-------------------------------------------------------------------------------

------------
SCF SETTINGS
------------
Hamiltonian:
 Density Functional     Method          .... DFT(GTOs)
 Exchange Functional    Exchange        .... WB97M-V
 Correlation Functional Correlation     .... WB97M-V
 Gradients option       PostSCFGGA      .... off
 Hybrid DFT is turned on
   Fraction HF Exchange ScalHFX         ....  0.150000
   Scaling of DF-GGA-X  ScalDFX         ....  0.000000
   Scaling of DF-GGA-C  ScalDFC         ....  1.000000
   Scaling of DF-LDA-C  ScalLDAC        ....  1.000000
   Perturbative correction              ....  0.000000
   Density functional embedding theory  .... OFF
 Long-range corrected/Screened/Range-Separated Hybrid DFT is turned on
   Amount of maximum screened exact exchange              ....  0.850000
   Range separation parameter mu (erf(mu*r12)/r12)        ....  0.300000
   NL short-range parameter             ....  6.000000
   NL long-range parameter              ....  0.010000


General Settings:
 Integral files         IntName         .... Cu03C1_D3H
 Hartree-Fock type      HFTyp           .... RHF
 Total Charge           Charge          ....    1
 Multiplicity           Mult            ....    1
 Number of Electrons    NEL             ....   86
 Basis Dimension        Dim             ....  201
 Nuclear Repulsion      ENuc            ....    571.2969380830 Eh

Convergence Acceleration:
 DIIS                   CNVDIIS         .... on
   Start iteration      DIISMaxIt       ....    12
   Startup error        DIISStart       ....  0.200000
   # of expansion vecs  DIISMaxEq       ....     5
   Bias factor          DIISBfac        ....   1.050
   Max. coefficient     DIISMaxC        ....  10.000
 Newton-Raphson         CNVNR           .... off
 SOSCF                  CNVSOSCF        .... off
 Level Shifting         CNVShift        .... on
   Level shift para.    LevelShift      ....    0.2500
   Turn off err/grad.   ShiftErr        ....    0.0010
 Zerner damping         CNVZerner       .... off
 Static damping         CNVDamp         .... on
   Fraction old density DampFac         ....    0.7000
   Max. Damping (<1)    DampMax         ....    0.9800
   Min. Damping (>=0)   DampMin         ....    0.0000
   Turn off err/grad.   DampErr         ....    0.1000
 Fernandez-Rico         CNVRico         .... off

SCF Procedure:
 Maximum # iterations   MaxIter         ....   125
 SCF integral mode      SCFMode         .... Direct
   Integral package                     .... LIBINT
 Reset frequency        DirectResetFreq ....    20
 Integral Threshold     Thresh          ....  1.000e-10 Eh
 Primitive CutOff       TCut            ....  1.000e-11 Eh

Convergence Tolerance:
 Convergence Check Mode ConvCheckMode   .... Total+1el-Energy
 Convergence forced     ConvForced      .... 0
 Energy Change          TolE            ....  1.000e-06 Eh
 1-El. energy change                    ....  1.000e-03 Eh
 DIIS Error             TolErr          ....  1.000e-06


Diagonalization of the overlap matrix:
Smallest eigenvalue                        ... 7.677e-04
Time for diagonalization                   ...    0.009 sec
Threshold for overlap eigenvalues          ... 1.000e-08
Number of eigenvalues below threshold      ... 0
Time for construction of square roots      ...    0.006 sec
Total time needed                          ...    0.015 sec

-------------------
DFT GRID GENERATION
-------------------

General Integration Accuracy     IntAcc      ...  4.670
Radial Grid Type                 RadialGrid  ... Gauss-Chebyshev
Angular Grid (max. acc.)         AngularGrid ... Lebedev-302
Angular grid pruning method      GridPruning ... 3 (G Style)
Weight generation scheme         WeightScheme... Becke
Basis function cutoff            BFCut       ...    1.0000e-10
Integration weight cutoff        WCut        ...    1.0000e-14
Grids for H and He will be reduced by one unit

# of grid points (after initial pruning)     ...  28668 (   0.0 sec)
# of grid points (after weights+screening)   ...  28566 (   0.0 sec)
nearest neighbour list constructed           ...    0.0 sec
Grid point re-assignment to atoms done       ...    0.0 sec
Grid point division into batches done        ...    0.2 sec
Reduced shell lists constructed in    0.2 sec

Total number of grid points                  ...    28566
Total number of batches                      ...      448
Average number of points per batch           ...       63
Average number of grid points per atom       ...     9522
Average number of shells per batch           ...    12.85 (22.54%)
Average number of basis functions per batch  ...    35.55 (17.69%)
Average number of large shells per batch     ...     9.10 (70.82%)
Average number of large basis fcns per batch ...    24.40 (68.64%)
Maximum spatial batch extension              ...  20.08, 17.16, 22.17 au
Average spatial batch extension              ...   0.56,  0.48,  0.54 au

Time for grid setup =    0.257 sec

------------------------------
INITIAL GUESS: MODEL POTENTIAL
------------------------------
Loading Hartree-Fock densities                     ... done
Calculating cut-offs                               ... done
Setting up the integral package                    ... done
Initializing the effective Hamiltonian             ... done
Starting the Coulomb interaction                   ... done (   0.0 sec)
Reading the grid                                   ... done
Mapping shells                                     ... done
Starting the XC term evaluation                    ... done (   0.0 sec)
  promolecular density results
     # of electrons  =     87.000078799
     EX              =   -196.481117663
     EC              =     -4.058704491
     EX+EC           =   -200.539822154
Transforming the Hamiltonian                       ... done (   0.0 sec)
Diagonalizing the Hamiltonian                      ... done (   0.0 sec)
Back transforming the eigenvectors                 ... done (   0.0 sec)
Now organizing SCF variables                       ... done
                      ------------------
                      INITIAL GUESS DONE (   0.4 sec)
                      ------------------
--------------
SCF ITERATIONS
--------------
ITER       Energy         Delta-E        Max-DP      RMS-DP      [F,P]     Damp
               ***  Starting incremental Fock matrix formation  ***
  0  -4921.3871687368   0.000000000000 0.02464486  0.00079357  0.1304387 0.7000
  1  -4921.4147136741  -0.027544937237 0.02331390  0.00052637  0.0406205 0.7000
                               ***Turning on DIIS***
  2  -4921.4264520690  -0.011738394935 0.06048186  0.00119299  0.0199774 0.0000
  3  -4921.4530850530  -0.026632983995 0.00503721  0.00016934  0.0168086 0.0000
  4  -4921.4542367221  -0.001151669043 0.00575769  0.00011641  0.0072577 0.0000
  5  -4921.4544190718  -0.000182349784 0.00462565  0.00008162  0.0059212 0.0000
  6  -4921.4545811496  -0.000162077757 0.00383662  0.00006833  0.0016740 0.0000
  7  -4921.4546340993  -0.000052949727 0.00234565  0.00005528  0.0009906 0.0000
  8  -4921.4546547817  -0.000020682403 0.00040018  0.00000947  0.0002133 0.0000
  9  -4921.4546556863  -0.000000904566 0.00025302  0.00000469  0.0000706 0.0000
 10  -4921.4546558559  -0.000000169576 0.00011939  0.00000186  0.0000296 0.0000
                 **** Energy Check signals convergence ****

               *****************************************************
               *                     SUCCESS                       *
               *           SCF CONVERGED AFTER  11 CYCLES          *
               *****************************************************


Setting up the DFT-NL grid :

General Integration Accuracy     IntAcc      ...  4.340
Radial Grid Type                 RadialGrid  ... Gauss-Chebyshev
Angular Grid (max. acc.)         AngularGrid ... Lebedev-110
Angular grid pruning method      GridPruning ... 3 (G Style)
Weight generation scheme         WeightScheme... Becke
Basis function cutoff            BFCut       ...    1.0000e-10
Integration weight cutoff        WCut        ...    1.0000e-14
Grids for H and He will be reduced by one unit

# of grid points (after initial pruning)     ...   8736 (   0.0 sec)
# of grid points (after weights+screening)   ...   8688 (   0.0 sec)
nearest neighbour list constructed           ...    0.0 sec
Grid point re-assignment to atoms done       ...    0.0 sec
Grid point division into batches done        ...    0.0 sec
Reduced shell lists constructed in    0.0 sec

Total number of grid points                  ...     8688
Total number of batches                      ...      137
Average number of points per batch           ...       63
Average number of grid points per atom       ...     2896
Average number of shells per batch           ...    15.86 (27.82%)
Average number of basis functions per batch  ...    45.57 (22.67%)
Average number of large shells per batch     ...    13.57 (85.59%)
Average number of large basis fcns per batch ...    37.86 (83.07%)
Maximum spatial batch extension              ...  32.26, 15.58, 17.81 au
Average spatial batch extension              ...   1.02,  0.65,  0.70 au

Final grid set up in    0.0 sec

-------------------------------------------------------------------------------
                         DFT-NL dispersion correction                          
-------------------------------------------------------------------------------

SC Energy -4921.454655880 
NL    Energy 0.362412704 
SC+NL Energy -4921.092243176 
NL done in    0.0 sec
-------------------------------------------------------------------------------

----------------
TOTAL SCF ENERGY
----------------

Total Energy       :        -4921.09224318 Eh         -133909.72778 eV

Components:
Nuclear Repulsion  :          571.29693808 Eh           15545.78002 eV
Electronic Energy  :        -5492.38918126 Eh         -149455.50779 eV
One Electron Energy:        -7987.29404315 Eh         -217345.32054 eV
Two Electron Energy:         2494.90486189 Eh           67889.81274 eV

Virial components:
Potential Energy   :        -9835.68556404 Eh         -267642.61088 eV
Kinetic Energy     :         4914.59332086 Eh          133732.88311 eV
Virial Ratio       :            2.00132237


DFT components:
N(Alpha)           :       42.999999499823 electrons
N(Beta)            :       42.999999499823 electrons
N(Total)           :       85.999998999646 electrons
E(X)               :     -155.296061053819 Eh       
E(C)               :       -4.800494704356 Eh       
NL Energy, E(C,NL) :        0.362412703520 Eh       
E(XC)              :     -159.734143054655 Eh       
DFET-embed. en.    :        0.000000000000 Eh       

---------------
SCF CONVERGENCE
---------------

  Last Energy change         ...   -2.3874e-08  Tolerance :   1.0000e-06
  Last MAX-Density change    ...    6.6734e-05  Tolerance :   1.0000e-05
  Last RMS-Density change    ...    1.0007e-06  Tolerance :   1.0000e-06
  Last DIIS Error            ...    1.4165e-05  Tolerance :   1.0000e-06

             **** THE GBW FILE WAS UPDATED (Cu03C1_D3H.gbw) ****
             **** DENSITY FILE WAS UPDATED (Cu03C1_D3H.scfp) ****
             **** ENERGY FILE WAS UPDATED (Cu03C1_D3H.en.tmp) ****
             **** THE GBW FILE WAS UPDATED (Cu03C1_D3H.gbw) ****
             **** DENSITY FILE WAS UPDATED (Cu03C1_D3H.scfp) ****
----------------
ORBITAL ENERGIES
----------------

  NO   OCC          E(Eh)            E(eV) 
   0   2.0000    -323.745749     -8809.5697 
   1   2.0000    -323.745746     -8809.5696 
   2   2.0000    -323.745739     -8809.5694 
   3   2.0000     -39.256294     -1068.2181 
   4   2.0000     -39.256291     -1068.2180 
   5   2.0000     -39.256257     -1068.2171 
   6   2.0000     -34.358083      -934.9310 
   7   2.0000     -34.358067      -934.9305 
   8   2.0000     -34.358064      -934.9304 
   9   2.0000     -34.357338      -934.9107 
  10   2.0000     -34.357335      -934.9106 
  11   2.0000     -34.357323      -934.9103 
  12   2.0000     -34.356654      -934.8921 
  13   2.0000     -34.356652      -934.8920 
  14   2.0000     -34.356644      -934.8918 
  15   2.0000      -4.646880      -126.4480 
  16   2.0000      -4.646399      -126.4350 
  17   2.0000      -4.646395      -126.4348 
  18   2.0000      -3.114829       -84.7588 
  19   2.0000      -3.112802       -84.7037 
  20   2.0000      -3.112802       -84.7036 
  21   2.0000      -3.110573       -84.6430 
  22   2.0000      -3.110346       -84.6368 
  23   2.0000      -3.110340       -84.6367 
  24   2.0000      -3.108479       -84.5860 
  25   2.0000      -3.108139       -84.5768 
  26   2.0000      -3.108133       -84.5766 
  27   2.0000      -0.627666       -17.0797 
  28   2.0000      -0.607852       -16.5405 
  29   2.0000      -0.607842       -16.5402 
  30   2.0000      -0.606870       -16.5138 
  31   2.0000      -0.593911       -16.1611 
  32   2.0000      -0.589820       -16.0498 
  33   2.0000      -0.589796       -16.0492 
  34   2.0000      -0.571082       -15.5399 
  35   2.0000      -0.571079       -15.5398 
  36   2.0000      -0.567890       -15.4531 
  37   2.0000      -0.566104       -15.4045 
  38   2.0000      -0.566057       -15.4032 
  39   2.0000      -0.564682       -15.3658 
  40   2.0000      -0.564637       -15.3645 
  41   2.0000      -0.547527       -14.8990 
  42   2.0000      -0.522562       -14.2196 
  43   0.0000      -0.205160        -5.5827 
  44   0.0000      -0.205157        -5.5826 
  45   0.0000      -0.155705        -4.2369 
  46   0.0000      -0.126192        -3.4339 
  47   0.0000      -0.102482        -2.7887 
  48   0.0000      -0.102482        -2.7887 
  49   0.0000      -0.071193        -1.9373 
  50   0.0000      -0.071193        -1.9373 
  51   0.0000      -0.053857        -1.4655 
  52   0.0000      -0.053857        -1.4655 
  53   0.0000      -0.023752        -0.6463 
  54   0.0000      -0.006180        -0.1682 
  55   0.0000      -0.005740        -0.1562 
  56   0.0000       0.010349         0.2816 
  57   0.0000       0.021957         0.5975 
  58   0.0000       0.021957         0.5975 
  59   0.0000       0.062536         1.7017 
  60   0.0000       0.062537         1.7017 
  61   0.0000       0.073961         2.0126 
  62   0.0000       0.082697         2.2503 
  63   0.0000       0.082698         2.2503 
  64   0.0000       0.095272         2.5925 
  65   0.0000       0.095274         2.5925 
  66   0.0000       0.109184         2.9710 
  67   0.0000       0.112766         3.0685 
  68   0.0000       0.112767         3.0685 
  69   0.0000       0.120813         3.2875 
  70   0.0000       0.166990         4.5440 
  71   0.0000       0.166991         4.5441 
  72   0.0000       0.186847         5.0844 
  73   0.0000       0.206841         5.6284 
  74   0.0000       0.221931         6.0391 
  75   0.0000       0.221932         6.0391 
  76   0.0000       0.224475         6.1083 
  77   0.0000       0.224476         6.1083 
  78   0.0000       0.331159         9.0113 
  79   0.0000       0.375917        10.2292 
  80   0.0000       0.375918        10.2293 
  81   0.0000       0.515246        14.0206 
  82   0.0000       0.523741        14.2517 
  83   0.0000       0.568547        15.4709 
  84   0.0000       0.568551        15.4711 
  85   0.0000       0.621838        16.9211 
  86   0.0000       0.621839        16.9211 
  87   0.0000       0.677090        18.4246 
  88   0.0000       0.680682        18.5223 
  89   0.0000       0.680685        18.5224 
  90   0.0000       0.704658        19.1747 
  91   0.0000       0.735693        20.0192 
  92   0.0000       0.735701        20.0194 
  93   0.0000       0.799175        21.7467 
  94   0.0000       0.818350        22.2684 
  95   0.0000       0.840284        22.8653 
  96   0.0000       0.840286        22.8653 
  97   0.0000       0.917584        24.9687 
  98   0.0000       0.935784        25.4640 
  99   0.0000       0.935794        25.4642 
 100   0.0000       0.979422        26.6514 
 101   0.0000       0.979430        26.6517 
 102   0.0000       1.156049        31.4577 
 103   0.0000       1.156058        31.4579 
 104   0.0000       1.172637        31.9091 
 105   0.0000       2.886650        78.5497 
 106   0.0000       2.943208        80.0888 
 107   0.0000       2.963986        80.6542 
 108   0.0000       2.964003        80.6546 
 109   0.0000       2.992614        81.4332 
 110   0.0000       2.992627        81.4335 
 111   0.0000       3.014762        82.0359 
 112   0.0000       3.014769        82.0360 
 113   0.0000       3.025577        82.3301 
 114   0.0000       3.133392        85.2639 
 115   0.0000       3.302976        89.8786 
 116   0.0000       3.326630        90.5222 
 117   0.0000       3.326637        90.5224 
 118   0.0000       3.330836        90.6367 
 119   0.0000       3.332022        90.6689 
 120   0.0000       3.332046        90.6696 
 121   0.0000       3.349947        91.1567 
 122   0.0000       3.349977        91.1575 
 123   0.0000       3.353900        91.2643 
 124   0.0000       3.356156        91.3256 
 125   0.0000       3.356181        91.3263 
 126   0.0000       3.358577        91.3915 
 127   0.0000       3.361776        91.4786 
 128   0.0000       3.361792        91.4790 
 129   0.0000       3.363882        91.5359 
 130   0.0000       3.366581        91.6093 
 131   0.0000       3.366583        91.6094 
 132   0.0000       3.368617        91.6647 
 133   0.0000       3.368636        91.6653 
 134   0.0000       3.392423        92.3125 
 135   0.0000       3.458388        94.1075 
 136   0.0000       3.518420        95.7411 
 137   0.0000       3.518437        95.7415 
 138   0.0000       3.619451        98.4903 
 139   0.0000       3.619547        98.4929 
 140   0.0000       3.619589        98.4940 
 141   0.0000       3.654763        99.4512 
 142   0.0000       3.670367        99.8758 
 143   0.0000       3.670373        99.8759 
 144   0.0000       3.689835       100.4055 
 145   0.0000       3.739289       101.7512 
 146   0.0000       3.739291       101.7513 
 147   0.0000       3.876908       105.4960 
 148   0.0000       3.876933       105.4967 
 149   0.0000       3.905850       106.2836 
 150   0.0000       3.915769       106.5535 
 151   0.0000       4.155868       113.0869 
 152   0.0000       4.155923       113.0884 
 153   0.0000      12.952586       352.4578 
 154   0.0000      12.953194       352.4743 
 155   0.0000      12.953252       352.4759 
 156   0.0000      12.953430       352.4807 
 157   0.0000      12.954391       352.5069 
 158   0.0000      12.954481       352.5094 
 159   0.0000      12.954488       352.5095 
 160   0.0000      12.954554       352.5113 
 161   0.0000      12.954585       352.5122 
 162   0.0000      12.955279       352.5311 
 163   0.0000      12.955587       352.5394 
 164   0.0000      12.955650       352.5412 
 165   0.0000      12.956386       352.5612 
 166   0.0000      12.956624       352.5677 
 167   0.0000      12.956752       352.5711 
 168   0.0000      12.957070       352.5798 
 169   0.0000      12.957079       352.5800 
 170   0.0000      12.957216       352.5838 
 171   0.0000      12.957236       352.5843 
 172   0.0000      12.957451       352.5902 
 173   0.0000      12.957504       352.5916 
 174   0.0000      12.957927       352.6031 
 175   0.0000      12.957971       352.6043 
 176   0.0000      12.958027       352.6058 
 177   0.0000      12.958032       352.6060 
 178   0.0000      12.958333       352.6142 
 179   0.0000      12.958394       352.6158 
 180   0.0000      13.132431       357.3516 
 181   0.0000      13.132510       357.3538 
 182   0.0000      13.132814       357.3620 
 183   0.0000      13.132972       357.3663 
 184   0.0000      13.132977       357.3665 
 185   0.0000      13.133947       357.3929 
 186   0.0000      13.135350       357.4311 
 187   0.0000      13.135361       357.4313 
 188   0.0000      13.136254       357.4556 
 189   0.0000      13.136928       357.4740 
 190   0.0000      13.136960       357.4748 
 191   0.0000      13.138547       357.5180 
 192   0.0000      13.143633       357.6564 
 193   0.0000      13.146675       357.7392 
 194   0.0000      13.148668       357.7935 
 195   0.0000      13.148672       357.7936 
 196   0.0000      13.152453       357.8964 
 197   0.0000      13.152462       357.8967 
 198   0.0000      13.228383       359.9626 
 199   0.0000      13.232880       360.0850 
 200   0.0000      13.232907       360.0857 

                    ********************************
                    * MULLIKEN POPULATION ANALYSIS *
                    ********************************

-----------------------
MULLIKEN ATOMIC CHARGES
-----------------------
   0 Cu:    0.333330
   1 Cu:    0.333337
   2 Cu:    0.333333
Sum of atomic charges:    1.0000000

--------------------------------
MULLIKEN REDUCED ORBITAL CHARGES
--------------------------------
  0 Cus       :     6.633826  s :     6.633826
      pz      :     4.010426  p :    12.106359
      px      :     4.010703
      py      :     4.085229
      dz2     :     1.992712  d :     9.926252
      dxz     :     1.997300
      dyz     :     1.992192
      dx2y2   :     1.984208
      dxy     :     1.959841
      f0      :     0.000024  f :     0.000232
      f+1     :     0.000010
      f-1     :     0.000039
      f+2     :     0.000023
      f-2     :     0.000033
      f+3     :     0.000046
      f-3     :     0.000057
      g0      :     0.000000  g :     0.000001
      g+1     :     0.000000
      g-1     :     0.000000
      g+2     :     0.000000
      g-2     :     0.000000
      g+3     :     0.000000
      g-3     :     0.000000
      g+4     :     0.000000
      g-4     :     0.000000
  1 Cus       :     6.633822  s :     6.633822
      pz      :     4.010426  p :    12.106347
      px      :     4.066588
      py      :     4.029333
      dz2     :     1.992705  d :     9.926261
      dxz     :     1.993473
      dyz     :     1.996022
      dx2y2   :     1.965953
      dxy     :     1.978108
      f0      :     0.000024  f :     0.000232
      f+1     :     0.000032
      f-1     :     0.000017
      f+2     :     0.000030
      f-2     :     0.000025
      f+3     :     0.000046
      f-3     :     0.000057
      g0      :     0.000000  g :     0.000001
      g+1     :     0.000000
      g-1     :     0.000000
      g+2     :     0.000000
      g-2     :     0.000000
      g+3     :     0.000000
      g-3     :     0.000000
      g+4     :     0.000000
      g-4     :     0.000000
  2 Cus       :     6.633825  s :     6.633825
      pz      :     4.010426  p :    12.106348
      px      :     4.066589
      py      :     4.029333
      dz2     :     1.992705  d :     9.926262
      dxz     :     1.993473
      dyz     :     1.996022
      dx2y2   :     1.965953
      dxy     :     1.978108
      f0      :     0.000024  f :     0.000232
      f+1     :     0.000032
      f-1     :     0.000017
      f+2     :     0.000030
      f-2     :     0.000025
      f+3     :     0.000046
      f-3     :     0.000057
      g0      :     0.000000  g :     0.000001
      g+1     :     0.000000
      g-1     :     0.000000
      g+2     :     0.000000
      g-2     :     0.000000
      g+3     :     0.000000
      g-3     :     0.000000
      g+4     :     0.000000
      g-4     :     0.000000


                     *******************************
                     * LOEWDIN POPULATION ANALYSIS *
                     *******************************

----------------------
LOEWDIN ATOMIC CHARGES
----------------------
   0 Cu:    0.333343
   1 Cu:    0.333329
   2 Cu:    0.333329

-------------------------------
LOEWDIN REDUCED ORBITAL CHARGES
-------------------------------
  0 Cus       :     6.450904  s :     6.450904
      pz      :     4.011637  p :    12.229275
      px      :     4.027134
      py      :     4.190505
      dz2     :     2.013477  d :     9.985903
      dxz     :     1.997190
      dyz     :     1.991013
      dx2y2   :     1.998269
      dxy     :     1.985954
      f0      :     0.000052  f :     0.000573
      f+1     :     0.000033
      f-1     :     0.000086
      f+2     :     0.000036
      f-2     :     0.000070
      f+3     :     0.000174
      f-3     :     0.000122
      g0      :     0.000000  g :     0.000002
      g+1     :     0.000000
      g-1     :     0.000000
      g+2     :     0.000000
      g-2     :     0.000000
      g+3     :     0.000000
      g-3     :     0.000000
      g+4     :     0.000000
      g-4     :     0.000000
  1 Cus       :     6.450904  s :     6.450904
      pz      :     4.011636  p :    12.229278
      px      :     4.149660
      py      :     4.067983
      dz2     :     2.013472  d :     9.985914
      dxz     :     1.992563
      dyz     :     1.995643
      dx2y2   :     1.989055
      dxy     :     1.995182
      f0      :     0.000052  f :     0.000573
      f+1     :     0.000073
      f-1     :     0.000046
      f+2     :     0.000062
      f-2     :     0.000045
      f+3     :     0.000174
      f-3     :     0.000122
      g0      :     0.000000  g :     0.000002
      g+1     :     0.000000
      g-1     :     0.000000
      g+2     :     0.000000
      g-2     :     0.000000
      g+3     :     0.000000
      g-3     :     0.000000
      g+4     :     0.000000
      g-4     :     0.000000
  2 Cus       :     6.450904  s :     6.450904
      pz      :     4.011636  p :    12.229278
      px      :     4.149660
      py      :     4.067983
      dz2     :     2.013472  d :     9.985914
      dxz     :     1.992563
      dyz     :     1.995643
      dx2y2   :     1.989055
      dxy     :     1.995182
      f0      :     0.000052  f :     0.000573
      f+1     :     0.000073
      f-1     :     0.000046
      f+2     :     0.000062
      f-2     :     0.000045
      f+3     :     0.000174
      f-3     :     0.000122
      g0      :     0.000000  g :     0.000002
      g+1     :     0.000000
      g-1     :     0.000000
      g+2     :     0.000000
      g-2     :     0.000000
      g+3     :     0.000000
      g-3     :     0.000000
      g+4     :     0.000000
      g-4     :     0.000000


                      *****************************
                      * MAYER POPULATION ANALYSIS *
                      *****************************

  NA   - Mulliken gross atomic population
  ZA   - Total nuclear charge
  QA   - Mulliken gross atomic charge
  VA   - Mayer's total valence
  BVA  - Mayer's bonded valence
  FA   - Mayer's free valence

  ATOM       NA         ZA         QA         VA         BVA        FA
  0 Cu    28.6667    29.0000     0.3333     1.0483     1.0483     0.0000
  1 Cu    28.6667    29.0000     0.3333     1.0483     1.0483     0.0000
  2 Cu    28.6667    29.0000     0.3333     1.0483     1.0483     0.0000

  Mayer bond orders larger than 0.100000
B(  0-Cu,  1-Cu) :   0.5242 B(  0-Cu,  2-Cu) :   0.5242 B(  1-Cu,  2-Cu) :   0.5241 


-------
TIMINGS
-------

Total SCF time: 0 days 0 hours 0 min 10 sec 

Total time                  ....      10.270 sec
Sum of individual times     ....      10.029 sec  ( 97.7%)

Fock matrix formation       ....       9.535 sec  ( 92.9%)
  XC integration            ....       0.584 sec  (  6.1% of F)
    Basis function eval.    ....       0.044 sec  (  7.5% of XC)
    Density eval.           ....       0.075 sec  ( 12.8% of XC)
    XC-Functional eval.     ....       0.023 sec  (  4.0% of XC)
    XC-Potential eval.      ....       0.146 sec  ( 25.0% of XC)
Diagonalization             ....       0.069 sec  (  0.7%)
Density matrix formation    ....       0.009 sec  (  0.1%)
Population analysis         ....       0.006 sec  (  0.1%)
Initial guess               ....       0.098 sec  (  1.0%)
Orbital Transformation      ....       0.000 sec  (  0.0%)
Orbital Orthonormalization  ....       0.000 sec  (  0.0%)
DIIS solution               ....       0.031 sec  (  0.3%)
Grid generation             ....       0.282 sec  (  2.7%)

-------------------------   --------------------
FINAL SINGLE POINT ENERGY     -4921.092243176223
-------------------------   --------------------


                            ***************************************
                            *     ORCA property calculations      *
                            ***************************************

                                    ---------------------
                                    Active property flags
                                    ---------------------
   (+) Dipole Moment


------------------------------------------------------------------------------
                       ORCA ELECTRIC PROPERTIES CALCULATION
------------------------------------------------------------------------------

Dipole Moment Calculation                       ... on
Quadrupole Moment Calculation                   ... off
Polarizability Calculation                      ... off
GBWName                                         ... Cu03C1_D3H.gbw
Electron density file                           ... Cu03C1_D3H.scfp
The origin for moment calculation is the CENTER OF MASS  = ( 0.000000,  0.000001  0.000000)

-------------
DIPOLE MOMENT
-------------
                                X             Y             Z
Electronic contribution:      0.00000       0.00006      -0.00000
Nuclear contribution   :      0.00000       0.00000       0.00000
                        -----------------------------------------
Total Dipole Moment    :      0.00000       0.00006      -0.00000
                        -----------------------------------------
Magnitude (a.u.)       :      0.00006
Magnitude (Debye)      :      0.00016



--------------------
Rotational spectrum 
--------------------
 
Rotational constants in cm-1:     0.097140     0.097140     0.048570 
Rotational constants in MHz :  2912.185801  2912.185732  1456.092883 

 Dipole components along the rotational axes: 
x,y,z [a.u.] :     0.000061     0.000000    -0.000000 
x,y,z [Debye]:     0.000155     0.000000    -0.000000 

 

Timings for individual modules:

Sum of individual times         ...       11.419 sec (=   0.190 min)
GTO integral calculation        ...        0.746 sec (=   0.012 min)   6.5 %
SCF iterations                  ...       10.673 sec (=   0.178 min)  93.5 %
                             ****ORCA TERMINATED NORMALLY****
TOTAL RUN TIME: 0 days 0 hours 0 minutes 11 seconds 878 msec
