
                                 *****************
                                 * O   R   C   A *
                                 *****************

           --- An Ab Initio, DFT and Semiempirical electronic structure package ---

                  #######################################################
                  #                        -***-                        #
                  #          Department of theory and spectroscopy      #
                  #               Directorship: Frank Neese             #
                  #        Max Planck Institute fuer Kohlenforschung    #
                  #                Kaiser Wilhelm Platz 1               #
                  #                 D-45470 Muelheim/Ruhr               #
                  #                      Germany                        #
                  #                                                     #
                  #                  All rights reserved                #
                  #                        -***-                        #
                  #######################################################


                         Program Version 4.2.0 -  RELEASE  -


 With contributions from (in alphabetic order):
   Daniel Aravena         : Magnetic Suceptibility
   Michael Atanasov       : Ab Initio Ligand Field Theory (pilot matlab implementation)
   Alexander A. Auer      : GIAO ZORA, VPT2
   Ute Becker             : Parallelization
   Giovanni Bistoni       : ED, misc. LED, open-shell LED, HFLED
   Martin Brehm           : Molecular dynamics
   Dmytro Bykov           : SCF Hessian
   Vijay G. Chilkuri      : MRCI spin determinant printing, contributions to CSF-ICE
   Dipayan Datta          : RHF DLPNO-CCSD density
   Achintya Kumar Dutta   : EOM-CC, STEOM-CC
   Dmitry Ganyushin       : Spin-Orbit,Spin-Spin,Magnetic field MRCI
   Miquel Garcia          : C-PCM Hessian, Gaussian charge scheme
   Yang Guo               : DLPNO-NEVPT2, CIM, IAO-localization
   Andreas Hansen         : Spin unrestricted coupled pair/coupled cluster methods
   Benjamin Helmich-Paris : CASSCF linear response (MC-RPA)
   Lee Huntington         : MR-EOM, pCC
   Robert Izsak           : Overlap fitted RIJCOSX, COSX-SCS-MP3, EOM
   Christian Kollmar      : KDIIS, OOCD, Brueckner-CCSD(T), CCSD density
   Simone Kossmann        : Meta GGA functionals, TD-DFT gradient, OOMP2, MP2 Hessian
   Martin Krupicka        : AUTO-CI
   Lucas Lang             : DCDCAS
   Dagmar Lenk            : GEPOL surface, SMD
   Dimitrios Liakos       : Extrapolation schemes; Compound Job, initial MDCI parallelization
   Dimitrios Manganas     : Further ROCIS development; embedding schemes
   Dimitrios Pantazis     : SARC Basis sets
   Taras Petrenko         : DFT Hessian,TD-DFT gradient, ASA, ECA, R-Raman, ABS, FL, XAS/XES, NRVS
   Peter Pinski           : DLPNO-MP2, DLPNO-MP2 Gradient
   Christoph Reimann      : Effective Core Potentials
   Marius Retegan         : Local ZFS, SOC
   Christoph Riplinger    : Optimizer, TS searches, QM/MM, DLPNO-CCSD(T), (RO)-DLPNO pert. Triples
   Tobias Risthaus        : Range-separated hybrids, TD-DFT gradient, RPA, STAB
   Michael Roemelt        : Original ROCIS implementation
   Masaaki Saitow         : Open-shell DLPNO-CCSD energy and density
   Barbara Sandhoefer     : DKH picture change effects
   Avijit Sen             : IP-ROCIS
   Kantharuban Sivalingam : CASSCF convergence, NEVPT2, FIC-MRCI
   Bernardo de Souza      : ESD, SOC TD-DFT
   Georgi Stoychev        : AutoAux, RI-MP2 NMR
   Willem Van den Heuvel  : Paramagnetic NMR
   Boris Wezisla          : Elementary symmetry handling
   Frank Wennmohs         : Technical directorship


 We gratefully acknowledge several colleagues who have allowed us to
 interface, adapt or use parts of their codes:
   Stefan Grimme, W. Hujo, H. Kruse,             : VdW corrections, initial TS optimization,
                  C. Bannwarth                     DFT functionals, gCP, sTDA/sTD-DF
   Ed Valeev, F. Pavosevic, A. Kumar             : LibInt (2-el integral package), F12 methods
   Garnet Chan, S. Sharma, J. Yang, R. Olivares  : DMRG
   Ulf Ekstrom                                   : XCFun DFT Library
   Mihaly Kallay                                 : mrcc  (arbitrary order and MRCC methods)
   Andreas Klamt, Michael Diedenhofen            : otool_cosmo (COSMO solvation model)
   Jiri Pittner, Ondrej Demel                    : Mk-CCSD
   Frank Weinhold                                : gennbo (NPA and NBO analysis)
   Christopher J. Cramer and Donald G. Truhlar   : smd solvation model
   Lars Goerigk                                  : TD-DFT with DH, B97 family of functionals
   V. Asgeirsson, H. Jonsson                     : NEB implementation
   FAccTs GmbH                                   : IRC, NEB, NEB-TS, Multilevel, MM, QM/MM, CI optimization
   S Lehtola, MJT Oliveira, MAL Marques          : LibXC Library


 Your calculation uses the libint2 library for the computation of 2-el integrals
 For citations please refer to: http://libint.valeyev.net

 Your ORCA version has been built with support for libXC version: 4.2.3
 For citations please refer to: https://tddft.org/programs/libxc/

 This ORCA versions uses:
   CBLAS   interface :  Fast vector & matrix operations
   LAPACKE interface :  Fast linear algebra routines
   SCALAPACK package :  Parallel linear algebra routines


Your calculation utilizes the DFT-NL dispersion correction.
Cite in your paper:
Vydrov, O. A.; Van Voorhis, T. J. Chem. Phys. 2010, 133, 244103
Hujo, W.; Grimme, S. J. Chem. Theory Comput. 2011, 7, 3866 
   

----- Orbital basis set information -----
Your calculation utilizes the basis: def2-TZVPPD
   F. Weigend and R. Ahlrichs, Phys. Chem. Chem. Phys. 7, 3297 (2005).
   D. Rappoport and F. Furche, J. Chem. Phys. 133 134105 (2010).

----- AuxJK basis set information -----
Your calculation utilizes the auxiliary basis: def2/JK
   H-Ba, Hf-Rn: F. Weigend, J. Comput. Chem. 29, 167 (2008).

================================================================================
                                        WARNINGS
                       Please study these warnings very carefully!
================================================================================


INFO   : the flag for use of LIBINT has been found!

================================================================================
                                       INPUT FILE
================================================================================
NAME = Cu04C2_NH3_A.in
|  1> #
|  2> # Cu04C2_NH3_A wB97M-V/Def2-TZVPPD
|  3> #
|  4> ! wb97m-v def2-tzvppd def2/jk grid4 nofinalgrid
|  5> 
|  6> *xyz 2 1
|  7> Cu       0.543145   -0.896300    1.192832 
|  8> Cu       0.543145   -0.896300   -1.192832 
|  9> Cu      -1.492086   -0.543328    0.000000 
| 10> Cu       0.211399    1.215580   -0.000000 
| 11> N        0.543145    3.129666   -0.000000 
| 12> H        0.146420    3.607894   -0.818022 
| 13> H        0.146420    3.607894    0.818022 
| 14> H        1.542647    3.366638   -0.000000 
| 15> *
| 16> 
| 17> %maxcore 5000
| 18> 
| 19> %pal
| 20> nprocs = 24
| 21> end
| 22> 
| 23> 
| 24>                          ****END OF INPUT****
================================================================================

                       ****************************
                       * Single Point Calculation *
                       ****************************

---------------------------------
CARTESIAN COORDINATES (ANGSTROEM)
---------------------------------
  Cu     0.543145   -0.896300    1.192832
  Cu     0.543145   -0.896300   -1.192832
  Cu    -1.492086   -0.543328    0.000000
  Cu     0.211399    1.215580   -0.000000
  N      0.543145    3.129666   -0.000000
  H      0.146420    3.607894   -0.818022
  H      0.146420    3.607894    0.818022
  H      1.542647    3.366638   -0.000000

----------------------------
CARTESIAN COORDINATES (A.U.)
----------------------------
  NO LB      ZA    FRAG     MASS         X           Y           Z
   0 Cu   29.0000    0    63.550    1.026395   -1.693762    2.254126
   1 Cu   29.0000    0    63.550    1.026395   -1.693762   -2.254126
   2 Cu   29.0000    0    63.550   -2.819634   -1.026741    0.000000
   3 Cu   29.0000    0    63.550    0.399486    2.297113   -0.000000
   4 N     7.0000    0    14.007    1.026395    5.914212   -0.000000
   5 H     1.0000    0     1.008    0.276694    6.817932   -1.545838
   6 H     1.0000    0     1.008    0.276694    6.817932    1.545838
   7 H     1.0000    0     1.008    2.915180    6.362024   -0.000000

--------------------------------
INTERNAL COORDINATES (ANGSTROEM)
--------------------------------
 Cu     0   0   0     0.000000000000     0.00000000     0.00000000
 Cu     1   0   0     2.385664000000     0.00000000     0.00000000
 Cu     1   2   0     2.385288795171    59.99479644     0.00000000
 Cu     1   2   3     2.448048349837    60.83946039   288.76638272
 N      4   1   2     1.942622100130   145.77799306   214.87903457
 H      5   4   1     1.027254952820   113.12566443   180.05646845
 H      5   4   1     1.027254952820   113.12566443   300.02703627
 H      5   4   1     1.027209801739   113.17070719    60.04175236

---------------------------
INTERNAL COORDINATES (A.U.)
---------------------------
 Cu     0   0   0     0.000000000000     0.00000000     0.00000000
 Cu     1   0   0     4.508251607555     0.00000000     0.00000000
 Cu     1   2   0     4.507542573184    59.99479644     0.00000000
 Cu     1   2   3     4.626140943790    60.83946039   288.76638272
 N      4   1   2     3.671023750948   145.77799306   214.87903457
 H      5   4   1     1.941230530544   113.12566443   180.05646845
 H      5   4   1     1.941230530544   113.12566443   300.02703627
 H      5   4   1     1.941145207366   113.17070719    60.04175236

---------------------
BASIS SET INFORMATION
---------------------
There are 3 groups of distinct atoms

 Group   1 Type Cu  : 17s13p7d2f1g contracted to 6s6p4d2f1g pattern {842111/631111/4111/11/1}
 Group   2 Type N   : 12s6p3d1f contracted to 6s3p3d1f pattern {621111/411/111/1}
 Group   3 Type H   : 5s3p1d contracted to 3s3p1d pattern {311/111/1}

Atom   0Cu   basis set group =>   1
Atom   1Cu   basis set group =>   1
Atom   2Cu   basis set group =>   1
Atom   3Cu   basis set group =>   1
Atom   4N    basis set group =>   2
Atom   5H    basis set group =>   3
Atom   6H    basis set group =>   3
Atom   7H    basis set group =>   3
----------------------------------
AUXILIARY/JK BASIS SET INFORMATION
----------------------------------
There are 3 groups of distinct atoms

 Group   1 Type Cu  : 19s14p12d10f7g3h1i contracted to 16s13p11d9f5g3h1i pattern {4111111111111111/2111111111111/21111111111/211111111/31111/111/1}
 Group   2 Type N   : 14s10p6d2f1g contracted to 10s8p4d2f1g pattern {5111111111/31111111/3111/11/1}
 Group   3 Type H   : 4s2p2d contracted to 2s2p2d pattern {31/11/11}

Atom   0Cu   basis set group =>   1
Atom   1Cu   basis set group =>   1
Atom   2Cu   basis set group =>   1
Atom   3Cu   basis set group =>   1
Atom   4N    basis set group =>   2
Atom   5H    basis set group =>   3
Atom   6H    basis set group =>   3
Atom   7H    basis set group =>   3


           ************************************************************
           *        Program running with 24 parallel MPI-processes    *
           *              working on a common directory               *
           ************************************************************
------------------------------------------------------------------------------
                           ORCA GTO INTEGRAL CALCULATION
------------------------------------------------------------------------------

                         BASIS SET STATISTICS AND STARTUP INFO

 # of primitive gaussian shells          ...  209
 # of primitive gaussian functions       ...  565
 # of contracted shells                  ...  110
 # of contracted basis functions         ...  356
 Highest angular momentum                ...    4
 Maximum contraction depth               ...    8
 Integral package used                   ... LIBINT
 Integral threshhold            Thresh   ...  1.000e-10
 Primitive cut-off              TCut     ...  1.000e-11


------------------------------ INTEGRAL EVALUATION ----------------------------


 * One electron integrals 
 Pre-screening matrix                    ... done
 Shell pair data                         ... done (   0.001 sec)



           ************************************************************
           *        Program running with 24 parallel MPI-processes    *
           *              working on a common directory               *
           ************************************************************
-------------------------------------------------------------------------------
                                 ORCA SCF
-------------------------------------------------------------------------------

------------
SCF SETTINGS
------------
Hamiltonian:
 Density Functional     Method          .... DFT(GTOs)
 Exchange Functional    Exchange        .... WB97M-V
 Correlation Functional Correlation     .... WB97M-V
 Gradients option       PostSCFGGA      .... off
 Hybrid DFT is turned on
   Fraction HF Exchange ScalHFX         ....  0.150000
   Scaling of DF-GGA-X  ScalDFX         ....  0.000000
   Scaling of DF-GGA-C  ScalDFC         ....  1.000000
   Scaling of DF-LDA-C  ScalLDAC        ....  1.000000
   Perturbative correction              ....  0.000000
   Density functional embedding theory  .... OFF
 Long-range corrected/Screened/Range-Separated Hybrid DFT is turned on
   Amount of maximum screened exact exchange              ....  0.850000
   Range separation parameter mu (erf(mu*r12)/r12)        ....  0.300000
   NL short-range parameter             ....  6.000000
   NL long-range parameter              ....  0.010000


General Settings:
 Integral files         IntName         .... Cu04C2_NH3_A
 Hartree-Fock type      HFTyp           .... RHF
 Total Charge           Charge          ....    2
 Multiplicity           Mult            ....    1
 Number of Electrons    NEL             ....  124
 Basis Dimension        Dim             ....  356
 Nuclear Repulsion      ENuc            ....   1296.6693256898 Eh

Convergence Acceleration:
 DIIS                   CNVDIIS         .... on
   Start iteration      DIISMaxIt       ....    12
   Startup error        DIISStart       ....  0.200000
   # of expansion vecs  DIISMaxEq       ....     5
   Bias factor          DIISBfac        ....   1.050
   Max. coefficient     DIISMaxC        ....  10.000
 Newton-Raphson         CNVNR           .... off
 SOSCF                  CNVSOSCF        .... off
 Level Shifting         CNVShift        .... on
   Level shift para.    LevelShift      ....    0.2500
   Turn off err/grad.   ShiftErr        ....    0.0010
 Zerner damping         CNVZerner       .... off
 Static damping         CNVDamp         .... on
   Fraction old density DampFac         ....    0.7000
   Max. Damping (<1)    DampMax         ....    0.9800
   Min. Damping (>=0)   DampMin         ....    0.0000
   Turn off err/grad.   DampErr         ....    0.1000
 Fernandez-Rico         CNVRico         .... off

SCF Procedure:
 Maximum # iterations   MaxIter         ....   125
 SCF integral mode      SCFMode         .... Direct
   Integral package                     .... LIBINT
 Reset frequency        DirectResetFreq ....    20
 Integral Threshold     Thresh          ....  1.000e-10 Eh
 Primitive CutOff       TCut            ....  1.000e-11 Eh

Convergence Tolerance:
 Convergence Check Mode ConvCheckMode   .... Total+1el-Energy
 Convergence forced     ConvForced      .... 0
 Energy Change          TolE            ....  1.000e-06 Eh
 1-El. energy change                    ....  1.000e-03 Eh
 DIIS Error             TolErr          ....  1.000e-06


Diagonalization of the overlap matrix:
Smallest eigenvalue                        ... 1.270e-04
Time for diagonalization                   ...    0.019 sec
Threshold for overlap eigenvalues          ... 1.000e-08
Number of eigenvalues below threshold      ... 0
Time for construction of square roots      ...    0.015 sec
Total time needed                          ...    0.035 sec

-------------------
DFT GRID GENERATION
-------------------

General Integration Accuracy     IntAcc      ...  4.670
Radial Grid Type                 RadialGrid  ... Gauss-Chebyshev
Angular Grid (max. acc.)         AngularGrid ... Lebedev-302
Angular grid pruning method      GridPruning ... 3 (G Style)
Weight generation scheme         WeightScheme... Becke
Basis function cutoff            BFCut       ...    1.0000e-10
Integration weight cutoff        WCut        ...    1.0000e-14
Grids for H and He will be reduced by one unit

# of grid points (after initial pruning)     ...  54618 (   0.0 sec)
# of grid points (after weights+screening)   ...  52962 (   0.0 sec)
nearest neighbour list constructed           ...    0.0 sec
Grid point re-assignment to atoms done       ...    0.0 sec
Grid point division into batches done        ...    0.3 sec
Reduced shell lists constructed in    0.4 sec

Total number of grid points                  ...    52962
Total number of batches                      ...      831
Average number of points per batch           ...       63
Average number of grid points per atom       ...     6620
Average number of shells per batch           ...    29.44 (26.77%)
Average number of basis functions per batch  ...    81.56 (22.91%)
Average number of large shells per batch     ...    20.64 (70.09%)
Average number of large basis fcns per batch ...    56.69 (69.52%)
Maximum spatial batch extension              ...  20.29, 20.05, 16.54 au
Average spatial batch extension              ...   0.34,  0.30,  0.30 au

Time for grid setup =    0.399 sec

------------------------------
INITIAL GUESS: MODEL POTENTIAL
------------------------------
Loading Hartree-Fock densities                     ... done
Calculating cut-offs                               ... done
Setting up the integral package                    ... done
Initializing the effective Hamiltonian             ... done
Starting the Coulomb interaction                   ... done (   0.0 sec)
Reading the grid                                   ... done
Mapping shells                                     ... done
Starting the XC term evaluation                    ... done (   0.0 sec)
  promolecular density results
     # of electrons  =    125.998593469
     EX              =   -269.503311729
     EC              =     -5.759441905
     EX+EC           =   -275.262753634
Transforming the Hamiltonian                       ... done (   0.0 sec)
Diagonalizing the Hamiltonian                      ... done (   0.0 sec)
Back transforming the eigenvectors                 ... done (   0.0 sec)
Now organizing SCF variables                       ... done
                      ------------------
                      INITIAL GUESS DONE (   0.6 sec)
                      ------------------
--------------
SCF ITERATIONS
--------------
ITER       Energy         Delta-E        Max-DP      RMS-DP      [F,P]     Damp
               ***  Starting incremental Fock matrix formation  ***
  0  -6618.1895004940   0.000000000000 0.11582623  0.00110043  0.2440139 0.7000
  1  -6618.2372311009  -0.047730606909 0.09563743  0.00088587  0.1277453 0.7000
                               ***Turning on DIIS***
  2  -6618.2601886282  -0.022957527231 0.23054353  0.00206476  0.0530433 0.0000
  3  -6618.3014456063  -0.041256978085 0.01727294  0.00020731  0.0644714 0.0000
  4  -6618.3072018128  -0.005756206531 0.01339267  0.00014364  0.0061961 0.0000
  5  -6618.3077237052  -0.000521892374 0.00549427  0.00007558  0.0066679 0.0000
  6  -6618.3079457557  -0.000222050538 0.00491517  0.00006734  0.0056218 0.0000
  7  -6618.3080853503  -0.000139594642 0.00203775  0.00003145  0.0023923 0.0000
  8  -6618.3081259004  -0.000040550063 0.00080728  0.00001627  0.0010024 0.0000
  9  -6618.3081360914  -0.000010190961 0.00080512  0.00001130  0.0013632 0.0000
 10  -6618.3081426834  -0.000006592038 0.00083351  0.00001035  0.0001738 0.0000
 11  -6618.3081445768  -0.000001893392 0.00023106  0.00000382  0.0000823 0.0000
 12  -6618.3081448282  -0.000000251385 0.00007793  0.00000123  0.0000564 0.0000
 13  -6618.3081448567  -0.000000028529 0.00006783  0.00000096  0.0001095 0.0000
 14  -6618.3081449006  -0.000000043869 0.00004520  0.00000068  0.0000674 0.0000
 15  -6618.3081449018  -0.000000001259 0.00005444  0.00000049  0.0000183 0.0000
                 **** Energy Check signals convergence ****

               *****************************************************
               *                     SUCCESS                       *
               *           SCF CONVERGED AFTER  16 CYCLES          *
               *****************************************************


Setting up the DFT-NL grid :

General Integration Accuracy     IntAcc      ...  4.340
Radial Grid Type                 RadialGrid  ... Gauss-Chebyshev
Angular Grid (max. acc.)         AngularGrid ... Lebedev-110
Angular grid pruning method      GridPruning ... 3 (G Style)
Weight generation scheme         WeightScheme... Becke
Basis function cutoff            BFCut       ...    1.0000e-10
Integration weight cutoff        WCut        ...    1.0000e-14
Grids for H and He will be reduced by one unit

# of grid points (after initial pruning)     ...  15732 (   0.0 sec)
# of grid points (after weights+screening)   ...  15368 (   0.0 sec)
nearest neighbour list constructed           ...    0.0 sec
Grid point re-assignment to atoms done       ...    0.0 sec
Grid point division into batches done        ...    0.0 sec
Reduced shell lists constructed in    0.0 sec

Total number of grid points                  ...    15368
Total number of batches                      ...      243
Average number of points per batch           ...       63
Average number of grid points per atom       ...     1921
Average number of shells per batch           ...    35.50 (32.27%)
Average number of basis functions per batch  ...   100.33 (28.18%)
Average number of large shells per batch     ...    26.58 (74.88%)
Average number of large basis fcns per batch ...    75.42 (75.17%)
Maximum spatial batch extension              ...  24.68, 17.05, 17.05 au
Average spatial batch extension              ...   0.53,  0.44,  0.42 au

Final grid set up in    0.0 sec

-------------------------------------------------------------------------------
                         DFT-NL dispersion correction                          
-------------------------------------------------------------------------------

SC Energy -6618.308144920 
NL    Energy 0.516877944 
SC+NL Energy -6617.791266975 
NL done in    0.1 sec
-------------------------------------------------------------------------------

----------------
TOTAL SCF ENERGY
----------------

Total Energy       :        -6617.79126698 Eh         -180079.25543 eV

Components:
Nuclear Repulsion  :         1296.66932569 Eh           35284.16616 eV
Electronic Energy  :        -7914.46059267 Eh         -215363.42159 eV
One Electron Energy:       -11772.33510181 Eh         -320341.52397 eV
Two Electron Energy:         3857.87450915 Eh          104978.10238 eV

Virial components:
Potential Energy   :       -13226.74387005 Eh         -359917.99858 eV
Kinetic Energy     :         6608.95260308 Eh          179838.74315 eV
Virial Ratio       :            2.00133738


DFT components:
N(Alpha)           :       62.000002397502 electrons
N(Beta)            :       62.000002397502 electrons
N(Total)           :      124.000004795005 electrons
E(X)               :     -212.265046254836 Eh       
E(C)               :       -6.698921969512 Eh       
NL Energy, E(C,NL) :        0.516877944389 Eh       
E(XC)              :     -218.447090279959 Eh       
DFET-embed. en.    :        0.000000000000 Eh       

---------------
SCF CONVERGENCE
---------------

  Last Energy change         ...   -1.7822e-08  Tolerance :   1.0000e-06
  Last MAX-Density change    ...    5.3356e-05  Tolerance :   1.0000e-05
  Last RMS-Density change    ...    3.6901e-07  Tolerance :   1.0000e-06
  Last DIIS Error            ...    1.2831e-05  Tolerance :   1.0000e-06

             **** THE GBW FILE WAS UPDATED (Cu04C2_NH3_A.gbw) ****
             **** DENSITY FILE WAS UPDATED (Cu04C2_NH3_A.scfp) ****
             **** ENERGY FILE WAS UPDATED (Cu04C2_NH3_A.en.tmp) ****
             **** THE GBW FILE WAS UPDATED (Cu04C2_NH3_A.gbw) ****
             **** DENSITY FILE WAS UPDATED (Cu04C2_NH3_A.scfp) ****
----------------
ORBITAL ENERGIES
----------------

  NO   OCC          E(Eh)            E(eV) 
   0   2.0000    -323.917606     -8814.2462 
   1   2.0000    -323.917604     -8814.2461 
   2   2.0000    -323.917598     -8814.2460 
   3   2.0000    -323.905572     -8813.9187 
   4   2.0000     -39.427862     -1072.8867 
   5   2.0000     -39.427859     -1072.8866 
   6   2.0000     -39.427837     -1072.8860 
   7   2.0000     -39.422353     -1072.7368 
   8   2.0000     -34.529209      -939.5876 
   9   2.0000     -34.529196      -939.5872 
  10   2.0000     -34.529193      -939.5871 
  11   2.0000     -34.528912      -939.5795 
  12   2.0000     -34.528910      -939.5794 
  13   2.0000     -34.528902      -939.5792 
  14   2.0000     -34.528790      -939.5761 
  15   2.0000     -34.528787      -939.5761 
  16   2.0000     -34.528775      -939.5757 
  17   2.0000     -34.523047      -939.4199 
  18   2.0000     -34.523047      -939.4199 
  19   2.0000     -34.522408      -939.4025 
  20   2.0000     -14.849520      -404.0760 
  21   2.0000      -4.818143      -131.1083 
  22   2.0000      -4.817763      -131.0980 
  23   2.0000      -4.817761      -131.0979 
  24   2.0000      -4.809085      -130.8619 
  25   2.0000      -3.285301       -89.3976 
  26   2.0000      -3.283192       -89.3402 
  27   2.0000      -3.283186       -89.3400 
  28   2.0000      -3.281542       -89.2953 
  29   2.0000      -3.281530       -89.2950 
  30   2.0000      -3.281416       -89.2919 
  31   2.0000      -3.280940       -89.2789 
  32   2.0000      -3.280732       -89.2733 
  33   2.0000      -3.280730       -89.2732 
  34   2.0000      -3.273643       -89.0804 
  35   2.0000      -3.271404       -89.0194 
  36   2.0000      -3.271393       -89.0191 
  37   2.0000      -1.329617       -36.1807 
  38   2.0000      -0.913874       -24.8678 
  39   2.0000      -0.913852       -24.8672 
  40   2.0000      -0.838303       -22.8114 
  41   2.0000      -0.796795       -21.6819 
  42   2.0000      -0.780388       -21.2354 
  43   2.0000      -0.780377       -21.2351 
  44   2.0000      -0.780207       -21.2305 
  45   2.0000      -0.770210       -20.9585 
  46   2.0000      -0.770200       -20.9582 
  47   2.0000      -0.763738       -20.7824 
  48   2.0000      -0.758265       -20.6335 
  49   2.0000      -0.758247       -20.6329 
  50   2.0000      -0.740315       -20.1450 
  51   2.0000      -0.739446       -20.1213 
  52   2.0000      -0.739429       -20.1209 
  53   2.0000      -0.737873       -20.0786 
  54   2.0000      -0.737870       -20.0785 
  55   2.0000      -0.732607       -19.9352 
  56   2.0000      -0.732590       -19.9348 
  57   2.0000      -0.720503       -19.6059 
  58   2.0000      -0.718723       -19.5575 
  59   2.0000      -0.714389       -19.4395 
  60   2.0000      -0.714387       -19.4394 
  61   2.0000      -0.699987       -19.0476 
  62   0.0000      -0.360109        -9.7991 
  63   0.0000      -0.360087        -9.7985 
  64   0.0000      -0.332558        -9.0494 
  65   0.0000      -0.263011        -7.1569 
  66   0.0000      -0.240119        -6.5340 
  67   0.0000      -0.240110        -6.5337 
  68   0.0000      -0.231427        -6.2974 
  69   0.0000      -0.231399        -6.2967 
  70   0.0000      -0.216916        -5.9026 
  71   0.0000      -0.170608        -4.6425 
  72   0.0000      -0.170597        -4.6422 
  73   0.0000      -0.163595        -4.4516 
  74   0.0000      -0.140505        -3.8233 
  75   0.0000      -0.140500        -3.8232 
  76   0.0000      -0.135937        -3.6990 
  77   0.0000      -0.126948        -3.4544 
  78   0.0000      -0.113470        -3.0877 
  79   0.0000      -0.113463        -3.0875 
  80   0.0000      -0.113071        -3.0768 
  81   0.0000      -0.103759        -2.8234 
  82   0.0000      -0.103701        -2.8219 
  83   0.0000      -0.091160        -2.4806 
  84   0.0000      -0.091141        -2.4801 
  85   0.0000      -0.074615        -2.0304 
  86   0.0000      -0.070738        -1.9249 
  87   0.0000      -0.065232        -1.7750 
  88   0.0000      -0.065208        -1.7744 
  89   0.0000      -0.050844        -1.3835 
  90   0.0000      -0.031600        -0.8599 
  91   0.0000      -0.031570        -0.8591 
  92   0.0000      -0.029348        -0.7986 
  93   0.0000      -0.018961        -0.5160 
  94   0.0000      -0.018944        -0.5155 
  95   0.0000      -0.013067        -0.3556 
  96   0.0000      -0.008014        -0.2181 
  97   0.0000      -0.007986        -0.2173 
  98   0.0000       0.023570         0.6414 
  99   0.0000       0.026570         0.7230 
 100   0.0000       0.026570         0.7230 
 101   0.0000       0.035869         0.9761 
 102   0.0000       0.044115         1.2004 
 103   0.0000       0.044127         1.2007 
 104   0.0000       0.054564         1.4848 
 105   0.0000       0.080457         2.1893 
 106   0.0000       0.080470         2.1897 
 107   0.0000       0.085241         2.3195 
 108   0.0000       0.085255         2.3199 
 109   0.0000       0.096754         2.6328 
 110   0.0000       0.101077         2.7504 
 111   0.0000       0.107243         2.9182 
 112   0.0000       0.107244         2.9183 
 113   0.0000       0.107442         2.9236 
 114   0.0000       0.118813         3.2331 
 115   0.0000       0.118821         3.2333 
 116   0.0000       0.132686         3.6106 
 117   0.0000       0.173308         4.7160 
 118   0.0000       0.173337         4.7167 
 119   0.0000       0.197433         5.3724 
 120   0.0000       0.201423         5.4810 
 121   0.0000       0.201487         5.4827 
 122   0.0000       0.203206         5.5295 
 123   0.0000       0.226063         6.1515 
 124   0.0000       0.226092         6.1523 
 125   0.0000       0.238428         6.4880 
 126   0.0000       0.275893         7.5074 
 127   0.0000       0.276033         7.5112 
 128   0.0000       0.280735         7.6392 
 129   0.0000       0.327133         8.9017 
 130   0.0000       0.327162         8.9025 
 131   0.0000       0.393029        10.6949 
 132   0.0000       0.452879        12.3235 
 133   0.0000       0.452954        12.3255 
 134   0.0000       0.457405        12.4466 
 135   0.0000       0.483457        13.1555 
 136   0.0000       0.483478        13.1561 
 137   0.0000       0.496784        13.5182 
 138   0.0000       0.496813        13.5190 
 139   0.0000       0.517127        14.0717 
 140   0.0000       0.551052        14.9949 
 141   0.0000       0.551061        14.9951 
 142   0.0000       0.553633        15.0651 
 143   0.0000       0.553672        15.0662 
 144   0.0000       0.560708        15.2576 
 145   0.0000       0.572917        15.5899 
 146   0.0000       0.603905        16.4331 
 147   0.0000       0.604532        16.4502 
 148   0.0000       0.604603        16.4521 
 149   0.0000       0.640565        17.4306 
 150   0.0000       0.685672        18.6581 
 151   0.0000       0.685747        18.6601 
 152   0.0000       0.688686        18.7401 
 153   0.0000       0.711763        19.3681 
 154   0.0000       0.717060        19.5122 
 155   0.0000       0.717107        19.5135 
 156   0.0000       0.747968        20.3532 
 157   0.0000       0.758351        20.6358 
 158   0.0000       0.758452        20.6385 
 159   0.0000       0.783876        21.3304 
 160   0.0000       0.783909        21.3313 
 161   0.0000       0.812857        22.1190 
 162   0.0000       0.812905        22.1203 
 163   0.0000       0.840080        22.8597 
 164   0.0000       0.848488        23.0885 
 165   0.0000       0.928553        25.2672 
 166   0.0000       0.928630        25.2693 
 167   0.0000       0.966805        26.3081 
 168   0.0000       0.966872        26.3099 
 169   0.0000       1.002315        27.2744 
 170   0.0000       1.003966        27.3193 
 171   0.0000       1.003979        27.3197 
 172   0.0000       1.017061        27.6756 
 173   0.0000       1.084616        29.5139 
 174   0.0000       1.084784        29.5185 
 175   0.0000       1.185901        32.2700 
 176   0.0000       1.185958        32.2715 
 177   0.0000       1.244428        33.8626 
 178   0.0000       1.284803        34.9613 
 179   0.0000       1.446366        39.3576 
 180   0.0000       1.497212        40.7412 
 181   0.0000       1.497418        40.7468 
 182   0.0000       1.530599        41.6497 
 183   0.0000       1.530733        41.6534 
 184   0.0000       2.233229        60.7693 
 185   0.0000       2.383269        64.8520 
 186   0.0000       2.410807        65.6014 
 187   0.0000       2.410823        65.6018 
 188   0.0000       2.560535        69.6757 
 189   0.0000       2.701540        73.5126 
 190   0.0000       2.701684        73.5166 
 191   0.0000       2.816767        76.6481 
 192   0.0000       2.818274        76.6891 
 193   0.0000       2.818308        76.6901 
 194   0.0000       2.879424        78.3531 
 195   0.0000       2.879454        78.3539 
 196   0.0000       2.881778        78.4172 
 197   0.0000       2.887834        78.5820 
 198   0.0000       2.900781        78.9343 
 199   0.0000       2.900899        78.9375 
 200   0.0000       2.964463        80.6671 
 201   0.0000       2.976844        81.0040 
 202   0.0000       2.979746        81.0830 
 203   0.0000       3.010620        81.9231 
 204   0.0000       3.010699        81.9253 
 205   0.0000       3.029511        82.4372 
 206   0.0000       3.029596        82.4395 
 207   0.0000       3.104402        84.4751 
 208   0.0000       3.125853        85.0588 
 209   0.0000       3.125972        85.0620 
 210   0.0000       3.146895        85.6314 
 211   0.0000       3.146994        85.6341 
 212   0.0000       3.151718        85.7626 
 213   0.0000       3.166235        86.1576 
 214   0.0000       3.166279        86.1588 
 215   0.0000       3.168969        86.2320 
 216   0.0000       3.186321        86.7042 
 217   0.0000       3.186428        86.7071 
 218   0.0000       3.186442        86.7075 
 219   0.0000       3.188363        86.7598 
 220   0.0000       3.188392        86.7606 
 221   0.0000       3.190149        86.8084 
 222   0.0000       3.191769        86.8524 
 223   0.0000       3.191795        86.8531 
 224   0.0000       3.194716        86.9327 
 225   0.0000       3.194721        86.9328 
 226   0.0000       3.202943        87.1565 
 227   0.0000       3.205215        87.2183 
 228   0.0000       3.205422        87.2240 
 229   0.0000       3.205428        87.2241 
 230   0.0000       3.213615        87.4469 
 231   0.0000       3.225904        87.7813 
 232   0.0000       3.225922        87.7818 
 233   0.0000       3.228066        87.8401 
 234   0.0000       3.238479        88.1235 
 235   0.0000       3.265250        88.8520 
 236   0.0000       3.268485        88.9400 
 237   0.0000       3.268609        88.9434 
 238   0.0000       3.366083        91.5958 
 239   0.0000       3.366153        91.5977 
 240   0.0000       3.399286        92.4993 
 241   0.0000       3.404009        92.6278 
 242   0.0000       3.404086        92.6299 
 243   0.0000       3.467731        94.3618 
 244   0.0000       3.475410        94.5707 
 245   0.0000       3.475502        94.5732 
 246   0.0000       3.523782        95.8870 
 247   0.0000       3.535034        96.1932 
 248   0.0000       3.535069        96.1941 
 249   0.0000       3.538575        96.2895 
 250   0.0000       3.538635        96.2912 
 251   0.0000       3.599221        97.9398 
 252   0.0000       3.673674        99.9658 
 253   0.0000       3.673707        99.9667 
 254   0.0000       3.708087       100.9022 
 255   0.0000       3.708190       100.9050 
 256   0.0000       3.730322       101.5072 
 257   0.0000       3.741362       101.8076 
 258   0.0000       3.741599       101.8141 
 259   0.0000       3.746824       101.9563 
 260   0.0000       3.776044       102.7514 
 261   0.0000       3.793905       103.2374 
 262   0.0000       3.793981       103.2395 
 263   0.0000       3.866468       105.2119 
 264   0.0000       3.872627       105.3795 
 265   0.0000       3.872903       105.3871 
 266   0.0000       3.985736       108.4574 
 267   0.0000       4.085469       111.1713 
 268   0.0000       4.085996       111.1856 
 269   0.0000       4.086194       111.1910 
 270   0.0000       4.177606       113.6784 
 271   0.0000       4.177687       113.6806 
 272   0.0000       4.262077       115.9770 
 273   0.0000       4.262078       115.9770 
 274   0.0000       4.320987       117.5800 
 275   0.0000       4.378381       119.1418 
 276   0.0000       4.666112       126.9714 
 277   0.0000       4.666122       126.9716 
 278   0.0000       4.727848       128.6513 
 279   0.0000       4.943466       134.5186 
 280   0.0000       4.943499       134.5194 
 281   0.0000       5.041469       137.1853 
 282   0.0000       5.336843       145.2229 
 283   0.0000       5.563300       151.3851 
 284   0.0000       5.578512       151.7990 
 285   0.0000       5.578630       151.8022 
 286   0.0000       5.724825       155.7804 
 287   0.0000       5.724917       155.7829 
 288   0.0000       6.205362       168.8565 
 289   0.0000       6.407450       174.3556 
 290   0.0000       6.407695       174.3623 
 291   0.0000      12.782913       347.8408 
 292   0.0000      12.783051       347.8445 
 293   0.0000      12.783111       347.8461 
 294   0.0000      12.783185       347.8481 
 295   0.0000      12.783295       347.8512 
 296   0.0000      12.783537       347.8577 
 297   0.0000      12.783749       347.8635 
 298   0.0000      12.783779       347.8643 
 299   0.0000      12.783800       347.8649 
 300   0.0000      12.784200       347.8758 
 301   0.0000      12.784588       347.8863 
 302   0.0000      12.784593       347.8865 
 303   0.0000      12.784869       347.8940 
 304   0.0000      12.784942       347.8960 
 305   0.0000      12.785021       347.8981 
 306   0.0000      12.785041       347.8987 
 307   0.0000      12.785238       347.9040 
 308   0.0000      12.785308       347.9059 
 309   0.0000      12.786037       347.9258 
 310   0.0000      12.786097       347.9274 
 311   0.0000      12.786258       347.9318 
 312   0.0000      12.786268       347.9320 
 313   0.0000      12.786295       347.9328 
 314   0.0000      12.786328       347.9337 
 315   0.0000      12.786333       347.9338 
 316   0.0000      12.786447       347.9369 
 317   0.0000      12.786725       347.9445 
 318   0.0000      12.796947       348.2226 
 319   0.0000      12.797028       348.2248 
 320   0.0000      12.797523       348.2383 
 321   0.0000      12.797594       348.2402 
 322   0.0000      12.798600       348.2676 
 323   0.0000      12.798618       348.2681 
 324   0.0000      12.802218       348.3661 
 325   0.0000      12.802332       348.3692 
 326   0.0000      12.804368       348.4246 
 327   0.0000      12.963961       352.7673 
 328   0.0000      12.963967       352.7675 
 329   0.0000      12.964253       352.7752 
 330   0.0000      12.964332       352.7774 
 331   0.0000      12.965241       352.8022 
 332   0.0000      12.965251       352.8024 
 333   0.0000      12.968325       352.8861 
 334   0.0000      12.969421       352.9159 
 335   0.0000      12.969425       352.9160 
 336   0.0000      12.969737       352.9245 
 337   0.0000      12.970940       352.9572 
 338   0.0000      12.973259       353.0203 
 339   0.0000      12.973265       353.0205 
 340   0.0000      12.975161       353.0721 
 341   0.0000      12.978054       353.1508 
 342   0.0000      12.978078       353.1515 
 343   0.0000      12.978671       353.1676 
 344   0.0000      12.985017       353.3403 
 345   0.0000      12.985048       353.3411 
 346   0.0000      12.992247       353.5370 
 347   0.0000      12.992291       353.5382 
 348   0.0000      13.031859       354.6149 
 349   0.0000      13.037739       354.7749 
 350   0.0000      13.037763       354.7756 
 351   0.0000      13.041178       354.8685 
 352   0.0000      13.062149       355.4392 
 353   0.0000      13.062171       355.4397 
 354   0.0000      13.175527       358.5243 
 355   0.0000      32.861310       894.2017 

                    ********************************
                    * MULLIKEN POPULATION ANALYSIS *
                    ********************************

-----------------------
MULLIKEN ATOMIC CHARGES
-----------------------
   0 Cu:    0.500649
   1 Cu:    0.500649
   2 Cu:    0.500631
   3 Cu:    0.138014
   4 N :   -0.272273
   5 H :    0.210768
   6 H :    0.210765
   7 H :    0.210796
Sum of atomic charges:    2.0000000

--------------------------------
MULLIKEN REDUCED ORBITAL CHARGES
--------------------------------
  0 Cus       :     6.459152  s :     6.459152
      pz      :     4.088458  p :    12.147306
      px      :     4.034962
      py      :     4.023886
      dz2     :     1.966386  d :     9.892669
      dxz     :     1.980374
      dyz     :     1.979122
      dx2y2   :     1.976829
      dxy     :     1.989958
      f0      :     0.000035  f :     0.000223
      f+1     :     0.000046
      f-1     :     0.000045
      f+2     :     0.000025
      f-2     :     0.000028
      f+3     :     0.000022
      f-3     :     0.000021
      g0      :     0.000000  g :     0.000001
      g+1     :     0.000000
      g-1     :     0.000000
      g+2     :     0.000000
      g-2     :     0.000000
      g+3     :     0.000000
      g-3     :     0.000000
      g+4     :     0.000000
      g-4     :     0.000000
  1 Cus       :     6.459152  s :     6.459152
      pz      :     4.088457  p :    12.147306
      px      :     4.034962
      py      :     4.023887
      dz2     :     1.966386  d :     9.892669
      dxz     :     1.980374
      dyz     :     1.979122
      dx2y2   :     1.976829
      dxy     :     1.989958
      f0      :     0.000035  f :     0.000223
      f+1     :     0.000046
      f-1     :     0.000045
      f+2     :     0.000025
      f-2     :     0.000028
      f+3     :     0.000022
      f-3     :     0.000021
      g0      :     0.000000  g :     0.000001
      g+1     :     0.000000
      g-1     :     0.000000
      g+2     :     0.000000
      g-2     :     0.000000
      g+3     :     0.000000
      g-3     :     0.000000
      g+4     :     0.000000
      g-4     :     0.000000
  2 Cus       :     6.459131  s :     6.459131
      pz      :     4.017141  p :    12.147316
      px      :     4.120002
      py      :     4.010172
      dz2     :     1.991413  d :     9.892699
      dxz     :     1.959658
      dyz     :     1.993023
      dx2y2   :     1.980784
      dxy     :     1.967822
      f0      :     0.000020  f :     0.000223
      f+1     :     0.000044
      f-1     :     0.000009
      f+2     :     0.000028
      f-2     :     0.000037
      f+3     :     0.000041
      f-3     :     0.000043
      g0      :     0.000000  g :     0.000001
      g+1     :     0.000000
      g-1     :     0.000000
      g+2     :     0.000000
      g-2     :     0.000000
      g+3     :     0.000000
      g-3     :     0.000000
      g+4     :     0.000000
      g-4     :     0.000000
  3 Cus       :     7.103917  s :     7.103917
      pz      :     4.010257  p :    11.851550
      px      :     4.005038
      py      :     3.836256
      dz2     :     2.001982  d :     9.905809
      dxz     :     1.996296
      dyz     :     1.941106
      dx2y2   :     2.007614
      dxy     :     1.958811
      f0      :     0.000045  f :     0.000708
      f+1     :     0.000016
      f-1     :     0.000172
      f+2     :     0.000068
      f-2     :     0.000034
      f+3     :     0.000143
      f-3     :     0.000231
      g0      :     0.000000  g :     0.000002
      g+1     :     0.000000
      g-1     :     0.000000
      g+2     :     0.000000
      g-2     :     0.000000
      g+3     :     0.000000
      g-3     :     0.000000
      g+4     :     0.000000
      g-4     :     0.000000
  4 N s       :     3.398018  s :     3.398018
      pz      :     1.186128  p :     3.870515
      px      :     1.195060
      py      :     1.489327
      dz2     :     0.000442  d :     0.003432
      dxz     :     0.001088
      dyz     :     0.002969
      dx2y2   :    -0.001427
      dxy     :     0.000360
      f0      :     0.000049  f :     0.000307
      f+1     :     0.000013
      f-1     :     0.000049
      f+2     :     0.000045
      f-2     :    -0.000146
      f+3     :     0.000156
      f-3     :     0.000142
  5 H s       :     0.708069  s :     0.708069
      pz      :     0.028393  p :     0.075433
      px      :     0.020102
      py      :     0.026938
      dz2     :     0.001684  d :     0.005729
      dxz     :     0.001304
      dyz     :     0.001511
      dx2y2   :     0.000757
      dxy     :     0.000474
  6 H s       :     0.708071  s :     0.708071
      pz      :     0.028394  p :     0.075435
      px      :     0.020102
      py      :     0.026938
      dz2     :     0.001684  d :     0.005729
      dxz     :     0.001304
      dyz     :     0.001511
      dx2y2   :     0.000757
      dxy     :     0.000474
  7 H s       :     0.708095  s :     0.708095
      pz      :     0.018508  p :     0.075380
      px      :     0.035021
      py      :     0.021850
      dz2     :     0.000541  d :     0.005729
      dxz     :     0.001497
      dyz     :     0.000015
      dx2y2   :     0.001782
      dxy     :     0.001894


                     *******************************
                     * LOEWDIN POPULATION ANALYSIS *
                     *******************************

----------------------
LOEWDIN ATOMIC CHARGES
----------------------
   0 Cu:    0.464284
   1 Cu:    0.464284
   2 Cu:    0.464299
   3 Cu:    0.263153
   4 N :    0.485220
   5 H :   -0.047074
   6 H :   -0.047074
   7 H :   -0.047091

-------------------------------
LOEWDIN REDUCED ORBITAL CHARGES
-------------------------------
  0 Cus       :     6.289302  s :     6.289302
      pz      :     4.144016  p :    12.267112
      px      :     4.061108
      py      :     4.061987
      dz2     :     1.995804  d :     9.978672
      dxz     :     1.995839
      dyz     :     1.993089
      dx2y2   :     1.999574
      dxy     :     1.994366
      f0      :     0.000158  f :     0.000629
      f+1     :     0.000095
      f-1     :     0.000091
      f+2     :     0.000108
      f-2     :     0.000059
      f+3     :     0.000056
      f-3     :     0.000061
      g0      :     0.000000  g :     0.000002
      g+1     :     0.000000
      g-1     :     0.000000
      g+2     :     0.000000
      g-2     :     0.000000
      g+3     :     0.000000
      g-3     :     0.000000
      g+4     :     0.000000
      g-4     :     0.000000
  1 Cus       :     6.289302  s :     6.289302
      pz      :     4.144016  p :    12.267112
      px      :     4.061108
      py      :     4.061987
      dz2     :     1.995804  d :     9.978672
      dxz     :     1.995839
      dyz     :     1.993089
      dx2y2   :     1.999574
      dxy     :     1.994366
      f0      :     0.000158  f :     0.000629
      f+1     :     0.000095
      f-1     :     0.000091
      f+2     :     0.000108
      f-2     :     0.000059
      f+3     :     0.000056
      f-3     :     0.000061
      g0      :     0.000000  g :     0.000002
      g+1     :     0.000000
      g-1     :     0.000000
      g+2     :     0.000000
      g-2     :     0.000000
      g+3     :     0.000000
      g-3     :     0.000000
      g+4     :     0.000000
      g-4     :     0.000000
  2 Cus       :     6.289293  s :     6.289293
      pz      :     4.030741  p :    12.267095
      px      :     4.191986
      py      :     4.044368
      dz2     :     1.997562  d :     9.978682
      dxz     :     1.984236
      dyz     :     1.995789
      dx2y2   :     2.009951
      dxy     :     1.991145
      f0      :     0.000068  f :     0.000629
      f+1     :     0.000099
      f-1     :     0.000022
      f+2     :     0.000119
      f-2     :     0.000082
      f+3     :     0.000130
      f-3     :     0.000109
      g0      :     0.000000  g :     0.000002
      g+1     :     0.000000
      g-1     :     0.000000
      g+2     :     0.000000
      g-2     :     0.000000
      g+3     :     0.000000
      g-3     :     0.000000
      g+4     :     0.000000
      g-4     :     0.000000
  3 Cus       :     6.270630  s :     6.270630
      pz      :     4.037780  p :    12.487812
      px      :     4.048717
      py      :     4.401315
      dz2     :     1.995894  d :     9.976822
      dxz     :     1.992622
      dyz     :     1.993155
      dx2y2   :     2.001274
      dxy     :     1.993878
      f0      :     0.000106  f :     0.001578
      f+1     :     0.000043
      f-1     :     0.000364
      f+2     :     0.000170
      f-2     :     0.000073
      f+3     :     0.000311
      f-3     :     0.000512
      g0      :     0.000000  g :     0.000005
      g+1     :     0.000000
      g-1     :     0.000000
      g+2     :     0.000001
      g-2     :     0.000000
      g+3     :     0.000000
      g-3     :     0.000000
      g+4     :     0.000001
      g-4     :     0.000001
  4 N s       :     2.854430  s :     2.854430
      pz      :     1.101169  p :     3.461416
      px      :     1.105767
      py      :     1.254480
      dz2     :     0.041893  d :     0.190027
      dxz     :     0.026678
      dyz     :     0.036351
      dx2y2   :     0.060681
      dxy     :     0.024423
      f0      :     0.000158  f :     0.008908
      f+1     :     0.001727
      f-1     :     0.002136
      f+2     :     0.000548
      f-2     :     0.002138
      f+3     :     0.000898
      f-3     :     0.001302
  5 H s       :     0.622447  s :     0.622447
      pz      :     0.132960  p :     0.368220
      px      :     0.095636
      py      :     0.139624
      dz2     :     0.015945  d :     0.056407
      dxz     :     0.012344
      dyz     :     0.014966
      dx2y2   :     0.007370
      dxy     :     0.005781
  6 H s       :     0.622447  s :     0.622447
      pz      :     0.132960  p :     0.368220
      px      :     0.095636
      py      :     0.139624
      dz2     :     0.015945  d :     0.056407
      dxz     :     0.012344
      dyz     :     0.014966
      dx2y2   :     0.007370
      dxy     :     0.005781
  7 H s       :     0.622456  s :     0.622456
      pz      :     0.083231  p :     0.368220
      px      :     0.159541
      py      :     0.125449
      dz2     :     0.005060  d :     0.056415
      dxz     :     0.016076
      dyz     :     0.000692
      dx2y2   :     0.014767
      dxy     :     0.019820


                      *****************************
                      * MAYER POPULATION ANALYSIS *
                      *****************************

  NA   - Mulliken gross atomic population
  ZA   - Total nuclear charge
  QA   - Mulliken gross atomic charge
  VA   - Mayer's total valence
  BVA  - Mayer's bonded valence
  FA   - Mayer's free valence

  ATOM       NA         ZA         QA         VA         BVA        FA
  0 Cu    28.4994    29.0000     0.5006     0.9897     0.9897    -0.0000
  1 Cu    28.4994    29.0000     0.5006     0.9897     0.9897    -0.0000
  2 Cu    28.4994    29.0000     0.5006     0.9898     0.9898     0.0000
  3 Cu    28.8620    29.0000     0.1380     1.0571     1.0571    -0.0000
  4 N      7.2723     7.0000    -0.2723     3.3969     3.3969    -0.0000
  5 H      0.7892     1.0000     0.2108     1.0292     1.0292     0.0000
  6 H      0.7892     1.0000     0.2108     1.0293     1.0293     0.0000
  7 H      0.7892     1.0000     0.2108     1.0290     1.0290    -0.0000

  Mayer bond orders larger than 0.100000
B(  0-Cu,  1-Cu) :   0.3491 B(  0-Cu,  2-Cu) :   0.3492 B(  0-Cu,  3-Cu) :   0.2456 
B(  1-Cu,  2-Cu) :   0.3492 B(  1-Cu,  3-Cu) :   0.2456 B(  2-Cu,  3-Cu) :   0.2457 
B(  3-Cu,  4-N ) :   0.3534 B(  4-N ,  5-H ) :   0.9847 B(  4-N ,  6-H ) :   0.9847 
B(  4-N ,  7-H ) :   0.9846 

-------
TIMINGS
-------

Total SCF time: 0 days 0 hours 0 min 57 sec 

Total time                  ....      57.033 sec
Sum of individual times     ....      56.634 sec  ( 99.3%)

Fock matrix formation       ....      55.385 sec  ( 97.1%)
  XC integration            ....       1.858 sec  (  3.4% of F)
    Basis function eval.    ....       0.174 sec  (  9.4% of XC)
    Density eval.           ....       0.344 sec  ( 18.5% of XC)
    XC-Functional eval.     ....       0.064 sec  (  3.4% of XC)
    XC-Potential eval.      ....       0.594 sec  ( 32.0% of XC)
Diagonalization             ....       0.372 sec  (  0.7%)
Density matrix formation    ....       0.030 sec  (  0.1%)
Population analysis         ....       0.019 sec  (  0.0%)
Initial guess               ....       0.165 sec  (  0.3%)
Orbital Transformation      ....       0.000 sec  (  0.0%)
Orbital Orthonormalization  ....       0.000 sec  (  0.0%)
DIIS solution               ....       0.224 sec  (  0.4%)
Grid generation             ....       0.439 sec  (  0.8%)

-------------------------   --------------------
FINAL SINGLE POINT ENERGY     -6617.791266975267
-------------------------   --------------------


                            ***************************************
                            *     ORCA property calculations      *
                            ***************************************

                                    ---------------------
                                    Active property flags
                                    ---------------------
   (+) Dipole Moment


------------------------------------------------------------------------------
                       ORCA ELECTRIC PROPERTIES CALCULATION
------------------------------------------------------------------------------

Dipole Moment Calculation                       ... on
Quadrupole Moment Calculation                   ... off
Polarizability Calculation                      ... off
GBWName                                         ... Cu04C2_NH3_A.gbw
Electron density file                           ... Cu04C2_NH3_A.scfp
The origin for moment calculation is the CENTER OF MASS  = (-0.020177, -0.116309  0.000000)

-------------
DIPOLE MOMENT
-------------
                                X             Y             Z
Electronic contribution:     -2.29568     -13.23078       0.00000
Nuclear contribution   :      2.54223      14.65497       0.00000
                        -----------------------------------------
Total Dipole Moment    :      0.24654       1.42420       0.00000
                        -----------------------------------------
Magnitude (a.u.)       :      1.44538
Magnitude (Debye)      :      3.67386



--------------------
Rotational spectrum 
--------------------
 
Rotational constants in cm-1:     0.046273     0.029218     0.029214 
Rotational constants in MHz :  1387.222495   875.924520   875.809559 

 Dipole components along the rotational axes: 
x,y,z [a.u.] :    -1.445378     0.000000     0.001098 
x,y,z [Debye]:    -3.673859     0.000000     0.002791 

 

Timings for individual modules:

Sum of individual times         ...       58.279 sec (=   0.971 min)
GTO integral calculation        ...        0.867 sec (=   0.014 min)   1.5 %
SCF iterations                  ...       57.412 sec (=   0.957 min)  98.5 %
                             ****ORCA TERMINATED NORMALLY****
TOTAL RUN TIME: 0 days 0 hours 0 minutes 58 seconds 779 msec
