
                                 *****************
                                 * O   R   C   A *
                                 *****************

           --- An Ab Initio, DFT and Semiempirical electronic structure package ---

                  #######################################################
                  #                        -***-                        #
                  #          Department of theory and spectroscopy      #
                  #               Directorship: Frank Neese             #
                  #        Max Planck Institute fuer Kohlenforschung    #
                  #                Kaiser Wilhelm Platz 1               #
                  #                 D-45470 Muelheim/Ruhr               #
                  #                      Germany                        #
                  #                                                     #
                  #                  All rights reserved                #
                  #                        -***-                        #
                  #######################################################


                         Program Version 4.2.0 -  RELEASE  -


 With contributions from (in alphabetic order):
   Daniel Aravena         : Magnetic Suceptibility
   Michael Atanasov       : Ab Initio Ligand Field Theory (pilot matlab implementation)
   Alexander A. Auer      : GIAO ZORA, VPT2
   Ute Becker             : Parallelization
   Giovanni Bistoni       : ED, misc. LED, open-shell LED, HFLED
   Martin Brehm           : Molecular dynamics
   Dmytro Bykov           : SCF Hessian
   Vijay G. Chilkuri      : MRCI spin determinant printing, contributions to CSF-ICE
   Dipayan Datta          : RHF DLPNO-CCSD density
   Achintya Kumar Dutta   : EOM-CC, STEOM-CC
   Dmitry Ganyushin       : Spin-Orbit,Spin-Spin,Magnetic field MRCI
   Miquel Garcia          : C-PCM Hessian, Gaussian charge scheme
   Yang Guo               : DLPNO-NEVPT2, CIM, IAO-localization
   Andreas Hansen         : Spin unrestricted coupled pair/coupled cluster methods
   Benjamin Helmich-Paris : CASSCF linear response (MC-RPA)
   Lee Huntington         : MR-EOM, pCC
   Robert Izsak           : Overlap fitted RIJCOSX, COSX-SCS-MP3, EOM
   Christian Kollmar      : KDIIS, OOCD, Brueckner-CCSD(T), CCSD density
   Simone Kossmann        : Meta GGA functionals, TD-DFT gradient, OOMP2, MP2 Hessian
   Martin Krupicka        : AUTO-CI
   Lucas Lang             : DCDCAS
   Dagmar Lenk            : GEPOL surface, SMD
   Dimitrios Liakos       : Extrapolation schemes; Compound Job, initial MDCI parallelization
   Dimitrios Manganas     : Further ROCIS development; embedding schemes
   Dimitrios Pantazis     : SARC Basis sets
   Taras Petrenko         : DFT Hessian,TD-DFT gradient, ASA, ECA, R-Raman, ABS, FL, XAS/XES, NRVS
   Peter Pinski           : DLPNO-MP2, DLPNO-MP2 Gradient
   Christoph Reimann      : Effective Core Potentials
   Marius Retegan         : Local ZFS, SOC
   Christoph Riplinger    : Optimizer, TS searches, QM/MM, DLPNO-CCSD(T), (RO)-DLPNO pert. Triples
   Tobias Risthaus        : Range-separated hybrids, TD-DFT gradient, RPA, STAB
   Michael Roemelt        : Original ROCIS implementation
   Masaaki Saitow         : Open-shell DLPNO-CCSD energy and density
   Barbara Sandhoefer     : DKH picture change effects
   Avijit Sen             : IP-ROCIS
   Kantharuban Sivalingam : CASSCF convergence, NEVPT2, FIC-MRCI
   Bernardo de Souza      : ESD, SOC TD-DFT
   Georgi Stoychev        : AutoAux, RI-MP2 NMR
   Willem Van den Heuvel  : Paramagnetic NMR
   Boris Wezisla          : Elementary symmetry handling
   Frank Wennmohs         : Technical directorship


 We gratefully acknowledge several colleagues who have allowed us to
 interface, adapt or use parts of their codes:
   Stefan Grimme, W. Hujo, H. Kruse,             : VdW corrections, initial TS optimization,
                  C. Bannwarth                     DFT functionals, gCP, sTDA/sTD-DF
   Ed Valeev, F. Pavosevic, A. Kumar             : LibInt (2-el integral package), F12 methods
   Garnet Chan, S. Sharma, J. Yang, R. Olivares  : DMRG
   Ulf Ekstrom                                   : XCFun DFT Library
   Mihaly Kallay                                 : mrcc  (arbitrary order and MRCC methods)
   Andreas Klamt, Michael Diedenhofen            : otool_cosmo (COSMO solvation model)
   Jiri Pittner, Ondrej Demel                    : Mk-CCSD
   Frank Weinhold                                : gennbo (NPA and NBO analysis)
   Christopher J. Cramer and Donald G. Truhlar   : smd solvation model
   Lars Goerigk                                  : TD-DFT with DH, B97 family of functionals
   V. Asgeirsson, H. Jonsson                     : NEB implementation
   FAccTs GmbH                                   : IRC, NEB, NEB-TS, Multilevel, MM, QM/MM, CI optimization
   S Lehtola, MJT Oliveira, MAL Marques          : LibXC Library


 Your calculation uses the libint2 library for the computation of 2-el integrals
 For citations please refer to: http://libint.valeyev.net

 Your ORCA version has been built with support for libXC version: 4.2.3
 For citations please refer to: https://tddft.org/programs/libxc/

 This ORCA versions uses:
   CBLAS   interface :  Fast vector & matrix operations
   LAPACKE interface :  Fast linear algebra routines
   SCALAPACK package :  Parallel linear algebra routines


Your calculation utilizes the DFT-NL dispersion correction.
Cite in your paper:
Vydrov, O. A.; Van Voorhis, T. J. Chem. Phys. 2010, 133, 244103
Hujo, W.; Grimme, S. J. Chem. Theory Comput. 2011, 7, 3866 
   

----- Orbital basis set information -----
Your calculation utilizes the basis: def2-TZVPPD
   F. Weigend and R. Ahlrichs, Phys. Chem. Chem. Phys. 7, 3297 (2005).
   D. Rappoport and F. Furche, J. Chem. Phys. 133 134105 (2010).

----- AuxJK basis set information -----
Your calculation utilizes the auxiliary basis: def2/JK
   H-Ba, Hf-Rn: F. Weigend, J. Comput. Chem. 29, 167 (2008).

================================================================================
                                        WARNINGS
                       Please study these warnings very carefully!
================================================================================


INFO   : the flag for use of LIBINT has been found!

================================================================================
                                       INPUT FILE
================================================================================
NAME = Cu04N0.in
|  1> #
|  2> # Cu04N0 wB97M-V/Def2-TZVPPD
|  3> #
|  4> ! wb97m-v def2-tzvppd def2/jk grid4 nofinalgrid
|  5> 
|  6> *xyz 0 1
|  7> Cu      -0.387876   -0.085256    2.052405 
|  8> Cu       1.110029    0.096858    0.214111 
|  9> Cu       0.386859    0.085217   -2.052443 
| 10> Cu      -1.109011   -0.096818   -0.214073 
| 11> *
| 12> 
| 13> %maxcore 5000
| 14> 
| 15> %pal
| 16> nprocs = 24
| 17> end
| 18> 
| 19> 
| 20>                          ****END OF INPUT****
================================================================================

                       ****************************
                       * Single Point Calculation *
                       ****************************

---------------------------------
CARTESIAN COORDINATES (ANGSTROEM)
---------------------------------
  Cu    -0.387876   -0.085256    2.052405
  Cu     1.110029    0.096858    0.214111
  Cu     0.386859    0.085217   -2.052443
  Cu    -1.109011   -0.096818   -0.214073

----------------------------
CARTESIAN COORDINATES (A.U.)
----------------------------
  NO LB      ZA    FRAG     MASS         X           Y           Z
   0 Cu   29.0000    0    63.550   -0.732979   -0.161110    3.878483
   1 Cu   29.0000    0    63.550    2.097651    0.183035    0.404611
   2 Cu   29.0000    0    63.550    0.731058    0.161037   -3.878555
   3 Cu   29.0000    0    63.550   -2.095727   -0.182960   -0.404539

--------------------------------
INTERNAL COORDINATES (ANGSTROEM)
--------------------------------
 Cu     0   0   0     0.000000000000     0.00000000     0.00000000
 Cu     1   0   0     2.378278732289     0.00000000     0.00000000
 Cu     2   1   0     2.379154765184   122.99402768     0.00000000
 Cu     2   1   3     2.268257139839    61.52418728     0.00000000

---------------------------
INTERNAL COORDINATES (A.U.)
---------------------------
 Cu     0   0   0     0.000000000000     0.00000000     0.00000000
 Cu     1   0   0     4.494295474155     0.00000000     0.00000000
 Cu     2   1   0     4.495950936411   122.99402768     0.00000000
 Cu     2   1   3     4.286384795608    61.52418728     0.00000000

---------------------
BASIS SET INFORMATION
---------------------
There are 1 groups of distinct atoms

 Group   1 Type Cu  : 17s13p7d2f1g contracted to 6s6p4d2f1g pattern {842111/631111/4111/11/1}

Atom   0Cu   basis set group =>   1
Atom   1Cu   basis set group =>   1
Atom   2Cu   basis set group =>   1
Atom   3Cu   basis set group =>   1
----------------------------------
AUXILIARY/JK BASIS SET INFORMATION
----------------------------------
There are 1 groups of distinct atoms

 Group   1 Type Cu  : 19s14p12d10f7g3h1i contracted to 16s13p11d9f5g3h1i pattern {4111111111111111/2111111111111/21111111111/211111111/31111/111/1}

Atom   0Cu   basis set group =>   1
Atom   1Cu   basis set group =>   1
Atom   2Cu   basis set group =>   1
Atom   3Cu   basis set group =>   1


           ************************************************************
           *        Program running with 24 parallel MPI-processes    *
           *              working on a common directory               *
           ************************************************************
------------------------------------------------------------------------------
                           ORCA GTO INTEGRAL CALCULATION
------------------------------------------------------------------------------

                         BASIS SET STATISTICS AND STARTUP INFO

 # of primitive gaussian shells          ...  160
 # of primitive gaussian functions       ...  456
 # of contracted shells                  ...   76
 # of contracted basis functions         ...  268
 Highest angular momentum                ...    4
 Maximum contraction depth               ...    8
 Integral package used                   ... LIBINT
 Integral threshhold            Thresh   ...  1.000e-10
 Primitive cut-off              TCut     ...  1.000e-11


------------------------------ INTEGRAL EVALUATION ----------------------------


 * One electron integrals 
 Pre-screening matrix                    ... done
 Shell pair data                         ... done (   0.001 sec)



           ************************************************************
           *        Program running with 24 parallel MPI-processes    *
           *              working on a common directory               *
           ************************************************************
-------------------------------------------------------------------------------
                                 ORCA SCF
-------------------------------------------------------------------------------

------------
SCF SETTINGS
------------
Hamiltonian:
 Density Functional     Method          .... DFT(GTOs)
 Exchange Functional    Exchange        .... WB97M-V
 Correlation Functional Correlation     .... WB97M-V
 Gradients option       PostSCFGGA      .... off
 Hybrid DFT is turned on
   Fraction HF Exchange ScalHFX         ....  0.150000
   Scaling of DF-GGA-X  ScalDFX         ....  0.000000
   Scaling of DF-GGA-C  ScalDFC         ....  1.000000
   Scaling of DF-LDA-C  ScalLDAC        ....  1.000000
   Perturbative correction              ....  0.000000
   Density functional embedding theory  .... OFF
 Long-range corrected/Screened/Range-Separated Hybrid DFT is turned on
   Amount of maximum screened exact exchange              ....  0.850000
   Range separation parameter mu (erf(mu*r12)/r12)        ....  0.300000
   NL short-range parameter             ....  6.000000
   NL long-range parameter              ....  0.010000


General Settings:
 Integral files         IntName         .... Cu04N0
 Hartree-Fock type      HFTyp           .... RHF
 Total Charge           Charge          ....    0
 Multiplicity           Mult            ....    1
 Number of Electrons    NEL             ....  116
 Basis Dimension        Dim             ....  268
 Nuclear Repulsion      ENuc            ....   1051.1684300474 Eh

Convergence Acceleration:
 DIIS                   CNVDIIS         .... on
   Start iteration      DIISMaxIt       ....    12
   Startup error        DIISStart       ....  0.200000
   # of expansion vecs  DIISMaxEq       ....     5
   Bias factor          DIISBfac        ....   1.050
   Max. coefficient     DIISMaxC        ....  10.000
 Newton-Raphson         CNVNR           .... off
 SOSCF                  CNVSOSCF        .... off
 Level Shifting         CNVShift        .... on
   Level shift para.    LevelShift      ....    0.2500
   Turn off err/grad.   ShiftErr        ....    0.0010
 Zerner damping         CNVZerner       .... off
 Static damping         CNVDamp         .... on
   Fraction old density DampFac         ....    0.7000
   Max. Damping (<1)    DampMax         ....    0.9800
   Min. Damping (>=0)   DampMin         ....    0.0000
   Turn off err/grad.   DampErr         ....    0.1000
 Fernandez-Rico         CNVRico         .... off

SCF Procedure:
 Maximum # iterations   MaxIter         ....   125
 SCF integral mode      SCFMode         .... Direct
   Integral package                     .... LIBINT
 Reset frequency        DirectResetFreq ....    20
 Integral Threshold     Thresh          ....  1.000e-10 Eh
 Primitive CutOff       TCut            ....  1.000e-11 Eh

Convergence Tolerance:
 Convergence Check Mode ConvCheckMode   .... Total+1el-Energy
 Convergence forced     ConvForced      .... 0
 Energy Change          TolE            ....  1.000e-06 Eh
 1-El. energy change                    ....  1.000e-03 Eh
 DIIS Error             TolErr          ....  1.000e-06


Diagonalization of the overlap matrix:
Smallest eigenvalue                        ... 4.960e-04
Time for diagonalization                   ...    0.012 sec
Threshold for overlap eigenvalues          ... 1.000e-08
Number of eigenvalues below threshold      ... 0
Time for construction of square roots      ...    0.008 sec
Total time needed                          ...    0.021 sec

-------------------
DFT GRID GENERATION
-------------------

General Integration Accuracy     IntAcc      ...  4.670
Radial Grid Type                 RadialGrid  ... Gauss-Chebyshev
Angular Grid (max. acc.)         AngularGrid ... Lebedev-302
Angular grid pruning method      GridPruning ... 3 (G Style)
Weight generation scheme         WeightScheme... Becke
Basis function cutoff            BFCut       ...    1.0000e-10
Integration weight cutoff        WCut        ...    1.0000e-14
Grids for H and He will be reduced by one unit

# of grid points (after initial pruning)     ...  38224 (   0.0 sec)
# of grid points (after weights+screening)   ...  37882 (   0.0 sec)
nearest neighbour list constructed           ...    0.0 sec
Grid point re-assignment to atoms done       ...    0.0 sec
Grid point division into batches done        ...    0.3 sec
Reduced shell lists constructed in    0.3 sec

Total number of grid points                  ...    37882
Total number of batches                      ...      594
Average number of points per batch           ...       63
Average number of grid points per atom       ...     9470
Average number of shells per batch           ...    16.35 (21.51%)
Average number of basis functions per batch  ...    45.04 (16.81%)
Average number of large shells per batch     ...    11.50 (70.35%)
Average number of large basis fcns per batch ...    30.96 (68.74%)
Maximum spatial batch extension              ...  19.86, 22.17, 17.16 au
Average spatial batch extension              ...   0.52,  0.48,  0.43 au

Time for grid setup =    0.341 sec

------------------------------
INITIAL GUESS: MODEL POTENTIAL
------------------------------
Loading Hartree-Fock densities                     ... done
Calculating cut-offs                               ... done
Setting up the integral package                    ... done
Initializing the effective Hamiltonian             ... done
Starting the Coulomb interaction                   ... done (   0.0 sec)
Reading the grid                                   ... done
Mapping shells                                     ... done
Starting the XC term evaluation                    ... done (   0.0 sec)
  promolecular density results
     # of electrons  =    116.000086208
     EX              =   -262.022167405
     EC              =     -5.425898908
     EX+EC           =   -267.448066313
Transforming the Hamiltonian                       ... done (   0.0 sec)
Diagonalizing the Hamiltonian                      ... done (   0.0 sec)
Back transforming the eigenvectors                 ... done (   0.0 sec)
Now organizing SCF variables                       ... done
                      ------------------
                      INITIAL GUESS DONE (   0.5 sec)
                      ------------------
--------------
SCF ITERATIONS
--------------
ITER       Energy         Delta-E        Max-DP      RMS-DP      [F,P]     Damp
               ***  Starting incremental Fock matrix formation  ***
  0  -6562.0841010001   0.000000000000 0.17042982  0.00184265  0.1609354 0.7000
  1  -6562.1536001272  -0.069499127110 0.13845235  0.00138895  0.0601185 0.7000
                               ***Turning on DIIS***
  2  -6562.1842146135  -0.030614486279 0.32222637  0.00314857  0.0377641 0.0000
  3  -6562.2492575358  -0.065042922341 0.03166722  0.00049387  0.0279643 0.0000
  4  -6562.2537811396  -0.004523603713 0.02562903  0.00036470  0.0107893 0.0000
  5  -6562.2541047308  -0.000323591266 0.01480237  0.00020316  0.0093378 0.0000
  6  -6562.2544508167  -0.000346085852 0.01295481  0.00017249  0.0015514 0.0000
  7  -6562.2545441989  -0.000093382264 0.00722715  0.00009184  0.0011272 0.0000
  8  -6562.2545802792  -0.000036080269 0.00650757  0.00007970  0.0007248 0.0000
  9  -6562.2545959424  -0.000015663149 0.00051355  0.00000958  0.0006563 0.0000
 10  -6562.2545981449  -0.000002202540 0.00117723  0.00001241  0.0004864 0.0000
 11  -6562.2546000469  -0.000001902029 0.00056322  0.00000821  0.0001548 0.0000
 12  -6562.2546004930  -0.000000446064 0.00027396  0.00000384  0.0002014 0.0000
 13  -6562.2546006636  -0.000000170577 0.00020227  0.00000296  0.0000376 0.0000
                 **** Energy Check signals convergence ****

               *****************************************************
               *                     SUCCESS                       *
               *           SCF CONVERGED AFTER  14 CYCLES          *
               *****************************************************


Setting up the DFT-NL grid :

General Integration Accuracy     IntAcc      ...  4.340
Radial Grid Type                 RadialGrid  ... Gauss-Chebyshev
Angular Grid (max. acc.)         AngularGrid ... Lebedev-110
Angular grid pruning method      GridPruning ... 3 (G Style)
Weight generation scheme         WeightScheme... Becke
Basis function cutoff            BFCut       ...    1.0000e-10
Integration weight cutoff        WCut        ...    1.0000e-14
Grids for H and He will be reduced by one unit

# of grid points (after initial pruning)     ...  11648 (   0.0 sec)
# of grid points (after weights+screening)   ...  11562 (   0.0 sec)
nearest neighbour list constructed           ...    0.0 sec
Grid point re-assignment to atoms done       ...    0.0 sec
Grid point division into batches done        ...    0.0 sec
Reduced shell lists constructed in    0.0 sec

Total number of grid points                  ...    11562
Total number of batches                      ...      182
Average number of points per batch           ...       63
Average number of grid points per atom       ...     2890
Average number of shells per batch           ...    22.00 (28.95%)
Average number of basis functions per batch  ...    63.56 (23.71%)
Average number of large shells per batch     ...    16.89 (76.77%)
Average number of large basis fcns per batch ...    47.11 (74.13%)
Maximum spatial batch extension              ...  29.21, 18.10, 15.87 au
Average spatial batch extension              ...   0.86,  0.65,  0.61 au

Final grid set up in    0.0 sec

-------------------------------------------------------------------------------
                         DFT-NL dispersion correction                          
-------------------------------------------------------------------------------

SC Energy -6562.254600705 
NL    Energy 0.482986281 
SC+NL Energy -6561.771614424 
NL done in    0.0 sec
-------------------------------------------------------------------------------

----------------
TOTAL SCF ENERGY
----------------

Total Energy       :        -6561.77161442 Eh         -178554.88318 eV

Components:
Nuclear Repulsion  :         1051.16843005 Eh           28603.74717 eV
Electronic Energy  :        -7612.94004447 Eh         -207158.63035 eV
One Electron Energy:       -11252.87013411 Eh         -306206.16357 eV
Two Electron Energy:         3639.93008964 Eh           99047.53322 eV

Virial components:
Potential Energy   :       -13114.97347121 Eh         -356876.57141 eV
Kinetic Energy     :         6553.20185679 Eh          178321.68822 eV
Virial Ratio       :            2.00130772


DFT components:
N(Alpha)           :       58.000004499943 electrons
N(Beta)            :       58.000004499943 electrons
N(Total)           :      116.000008999885 electrons
E(X)               :     -207.079546741067 Eh       
E(C)               :       -6.452130148964 Eh       
NL Energy, E(C,NL) :        0.482986281262 Eh       
E(XC)              :     -213.048690608769 Eh       
DFET-embed. en.    :        0.000000000000 Eh       

---------------
SCF CONVERGENCE
---------------

  Last Energy change         ...   -4.1834e-08  Tolerance :   1.0000e-06
  Last MAX-Density change    ...    3.7274e-05  Tolerance :   1.0000e-05
  Last RMS-Density change    ...    6.3181e-07  Tolerance :   1.0000e-06
  Last DIIS Error            ...    1.4706e-05  Tolerance :   1.0000e-06

             **** THE GBW FILE WAS UPDATED (Cu04N0.gbw) ****
             **** DENSITY FILE WAS UPDATED (Cu04N0.scfp) ****
             **** ENERGY FILE WAS UPDATED (Cu04N0.en.tmp) ****
             **** THE GBW FILE WAS UPDATED (Cu04N0.gbw) ****
             **** DENSITY FILE WAS UPDATED (Cu04N0.scfp) ****
----------------
ORBITAL ENERGIES
----------------

  NO   OCC          E(Eh)            E(eV) 
   0   2.0000    -323.546244     -8804.1409 
   1   2.0000    -323.546233     -8804.1406 
   2   2.0000    -323.523962     -8803.5346 
   3   2.0000    -323.523947     -8803.5342 
   4   2.0000     -39.059740     -1062.8696 
   5   2.0000     -39.059718     -1062.8690 
   6   2.0000     -39.038396     -1062.2888 
   7   2.0000     -39.038373     -1062.2881 
   8   2.0000     -34.160951      -929.5667 
   9   2.0000     -34.160943      -929.5665 
  10   2.0000     -34.160371      -929.5510 
  11   2.0000     -34.160363      -929.5507 
  12   2.0000     -34.160288      -929.5487 
  13   2.0000     -34.160282      -929.5485 
  14   2.0000     -34.139769      -928.9903 
  15   2.0000     -34.139751      -928.9899 
  16   2.0000     -34.139134      -928.9731 
  17   2.0000     -34.139117      -928.9726 
  18   2.0000     -34.138237      -928.9487 
  19   2.0000     -34.138221      -928.9482 
  20   2.0000      -4.449002      -121.0635 
  21   2.0000      -4.448512      -121.0502 
  22   2.0000      -4.425134      -120.4140 
  23   2.0000      -4.425114      -120.4135 
  24   2.0000      -2.917313       -79.3841 
  25   2.0000      -2.912887       -79.2637 
  26   2.0000      -2.912026       -79.2403 
  27   2.0000      -2.911613       -79.2290 
  28   2.0000      -2.911102       -79.2151 
  29   2.0000      -2.910782       -79.2064 
  30   2.0000      -2.890834       -78.6636 
  31   2.0000      -2.890740       -78.6610 
  32   2.0000      -2.888554       -78.6016 
  33   2.0000      -2.888512       -78.6004 
  34   2.0000      -2.886029       -78.5328 
  35   2.0000      -2.886009       -78.5323 
  36   2.0000      -0.425695       -11.5838 
  37   2.0000      -0.425063       -11.5666 
  38   2.0000      -0.407136       -11.0787 
  39   2.0000      -0.402093       -10.9415 
  40   2.0000      -0.401945       -10.9375 
  41   2.0000      -0.396516       -10.7898 
  42   2.0000      -0.383837       -10.4447 
  43   2.0000      -0.377312       -10.2672 
  44   2.0000      -0.367970       -10.0130 
  45   2.0000      -0.367305        -9.9949 
  46   2.0000      -0.366466        -9.9720 
  47   2.0000      -0.356974        -9.7137 
  48   2.0000      -0.356900        -9.7117 
  49   2.0000      -0.355538        -9.6747 
  50   2.0000      -0.351640        -9.5686 
  51   2.0000      -0.350991        -9.5509 
  52   2.0000      -0.348799        -9.4913 
  53   2.0000      -0.345877        -9.4118 
  54   2.0000      -0.345332        -9.3970 
  55   2.0000      -0.338861        -9.2209 
  56   2.0000      -0.331954        -9.0329 
  57   2.0000      -0.239227        -6.5097 
  58   0.0000      -0.037308        -1.0152 
  59   0.0000      -0.002148        -0.0585 
  60   0.0000       0.001648         0.0449 
  61   0.0000       0.029981         0.8158 
  62   0.0000       0.033315         0.9065 
  63   0.0000       0.035588         0.9684 
  64   0.0000       0.053093         1.4447 
  65   0.0000       0.058369         1.5883 
  66   0.0000       0.065145         1.7727 
  67   0.0000       0.081230         2.2104 
  68   0.0000       0.085085         2.3153 
  69   0.0000       0.089536         2.4364 
  70   0.0000       0.093137         2.5344 
  71   0.0000       0.118668         3.2291 
  72   0.0000       0.138241         3.7617 
  73   0.0000       0.139347         3.7918 
  74   0.0000       0.153372         4.1735 
  75   0.0000       0.158562         4.3147 
  76   0.0000       0.162941         4.4338 
  77   0.0000       0.185520         5.0483 
  78   0.0000       0.212974         5.7953 
  79   0.0000       0.214532         5.8377 
  80   0.0000       0.219911         5.9841 
  81   0.0000       0.226249         6.1566 
  82   0.0000       0.231660         6.3038 
  83   0.0000       0.248043         6.7496 
  84   0.0000       0.250646         6.8204 
  85   0.0000       0.267649         7.2831 
  86   0.0000       0.269295         7.3279 
  87   0.0000       0.277892         7.5618 
  88   0.0000       0.281555         7.6615 
  89   0.0000       0.306983         8.3534 
  90   0.0000       0.310059         8.4371 
  91   0.0000       0.310621         8.4524 
  92   0.0000       0.310773         8.4566 
  93   0.0000       0.355429         9.6717 
  94   0.0000       0.357962         9.7406 
  95   0.0000       0.379673        10.3314 
  96   0.0000       0.381678        10.3860 
  97   0.0000       0.387447        10.5430 
  98   0.0000       0.390034        10.6134 
  99   0.0000       0.392015        10.6673 
 100   0.0000       0.404396        11.0042 
 101   0.0000       0.404787        11.0148 
 102   0.0000       0.454184        12.3590 
 103   0.0000       0.462815        12.5938 
 104   0.0000       0.520429        14.1616 
 105   0.0000       0.541189        14.7265 
 106   0.0000       0.552667        15.0388 
 107   0.0000       0.590077        16.0568 
 108   0.0000       0.702752        19.1228 
 109   0.0000       0.702779        19.1236 
 110   0.0000       0.717920        19.5356 
 111   0.0000       0.762121        20.7384 
 112   0.0000       0.780692        21.2437 
 113   0.0000       0.809724        22.0337 
 114   0.0000       0.825399        22.4602 
 115   0.0000       0.860380        23.4121 
 116   0.0000       0.863077        23.4855 
 117   0.0000       0.885745        24.1023 
 118   0.0000       0.896884        24.4054 
 119   0.0000       0.899812        24.4851 
 120   0.0000       0.901183        24.5224 
 121   0.0000       0.913355        24.8537 
 122   0.0000       0.954879        25.9836 
 123   0.0000       0.975057        26.5327 
 124   0.0000       0.990538        26.9539 
 125   0.0000       1.018280        27.7088 
 126   0.0000       1.020770        27.7766 
 127   0.0000       1.067964        29.0608 
 128   0.0000       1.086501        29.5652 
 129   0.0000       1.107845        30.1460 
 130   0.0000       1.137607        30.9559 
 131   0.0000       1.137855        30.9626 
 132   0.0000       1.169533        31.8246 
 133   0.0000       1.178353        32.0646 
 134   0.0000       1.219746        33.1910 
 135   0.0000       1.315143        35.7869 
 136   0.0000       1.353766        36.8378 
 137   0.0000       1.366434        37.1826 
 138   0.0000       1.381721        37.5985 
 139   0.0000       1.470447        40.0129 
 140   0.0000       3.081196        83.8436 
 141   0.0000       3.159859        85.9841 
 142   0.0000       3.164049        86.0982 
 143   0.0000       3.187406        86.7337 
 144   0.0000       3.189642        86.7946 
 145   0.0000       3.192384        86.8692 
 146   0.0000       3.208964        87.3204 
 147   0.0000       3.214122        87.4607 
 148   0.0000       3.221283        87.6556 
 149   0.0000       3.249546        88.4246 
 150   0.0000       3.301390        89.8354 
 151   0.0000       3.312393        90.1348 
 152   0.0000       3.339756        90.8794 
 153   0.0000       3.501201        95.2725 
 154   0.0000       3.528158        96.0061 
 155   0.0000       3.532095        96.1132 
 156   0.0000       3.533768        96.1587 
 157   0.0000       3.540043        96.3295 
 158   0.0000       3.549501        96.5868 
 159   0.0000       3.552550        96.6698 
 160   0.0000       3.554841        96.7321 
 161   0.0000       3.558698        96.8371 
 162   0.0000       3.566014        97.0362 
 163   0.0000       3.567653        97.0808 
 164   0.0000       3.571812        97.1939 
 165   0.0000       3.573811        97.2484 
 166   0.0000       3.573984        97.2530 
 167   0.0000       3.574396        97.2643 
 168   0.0000       3.575211        97.2864 
 169   0.0000       3.578255        97.3693 
 170   0.0000       3.583294        97.5064 
 171   0.0000       3.585409        97.5639 
 172   0.0000       3.586325        97.5889 
 173   0.0000       3.587038        97.6083 
 174   0.0000       3.587631        97.6244 
 175   0.0000       3.591598        97.7324 
 176   0.0000       3.593850        97.7936 
 177   0.0000       3.608422        98.1901 
 178   0.0000       3.630322        98.7861 
 179   0.0000       3.637742        98.9880 
 180   0.0000       3.719972       101.2256 
 181   0.0000       3.738572       101.7317 
 182   0.0000       3.745728       101.9264 
 183   0.0000       3.754389       102.1621 
 184   0.0000       3.821157       103.9790 
 185   0.0000       3.854486       104.8859 
 186   0.0000       3.859302       105.0169 
 187   0.0000       3.859363       105.0186 
 188   0.0000       3.867793       105.2480 
 189   0.0000       3.889696       105.8440 
 190   0.0000       3.939137       107.1894 
 191   0.0000       3.940823       107.2352 
 192   0.0000       3.947057       107.4049 
 193   0.0000       3.976559       108.2077 
 194   0.0000       4.022856       109.4675 
 195   0.0000       4.065541       110.6290 
 196   0.0000       4.082914       111.1017 
 197   0.0000       4.126955       112.3002 
 198   0.0000       4.141675       112.7007 
 199   0.0000       4.145865       112.8147 
 200   0.0000       4.214163       114.6732 
 201   0.0000       4.379792       119.1802 
 202   0.0000       4.409698       119.9940 
 203   0.0000       4.442410       120.8841 
 204   0.0000      13.153142       357.9152 
 205   0.0000      13.153391       357.9220 
 206   0.0000      13.153399       357.9222 
 207   0.0000      13.153640       357.9287 
 208   0.0000      13.153824       357.9337 
 209   0.0000      13.153866       357.9349 
 210   0.0000      13.154089       357.9410 
 211   0.0000      13.154101       357.9413 
 212   0.0000      13.154722       357.9582 
 213   0.0000      13.154964       357.9648 
 214   0.0000      13.155896       357.9901 
 215   0.0000      13.156218       357.9989 
 216   0.0000      13.156429       358.0046 
 217   0.0000      13.157636       358.0375 
 218   0.0000      13.157892       358.0445 
 219   0.0000      13.158155       358.0516 
 220   0.0000      13.158257       358.0544 
 221   0.0000      13.158289       358.0553 
 222   0.0000      13.176751       358.5576 
 223   0.0000      13.177482       358.5775 
 224   0.0000      13.178487       358.6049 
 225   0.0000      13.178847       358.6147 
 226   0.0000      13.178921       358.6167 
 227   0.0000      13.179250       358.6256 
 228   0.0000      13.179540       358.6335 
 229   0.0000      13.179716       358.6383 
 230   0.0000      13.180529       358.6604 
 231   0.0000      13.180886       358.6701 
 232   0.0000      13.181067       358.6751 
 233   0.0000      13.181148       358.6773 
 234   0.0000      13.181225       358.6794 
 235   0.0000      13.181380       358.6836 
 236   0.0000      13.182619       358.7173 
 237   0.0000      13.182649       358.7181 
 238   0.0000      13.182781       358.7217 
 239   0.0000      13.182805       358.7224 
 240   0.0000      13.328694       362.6922 
 241   0.0000      13.330629       362.7449 
 242   0.0000      13.333909       362.8341 
 243   0.0000      13.334779       362.8578 
 244   0.0000      13.335857       362.8871 
 245   0.0000      13.338176       362.9502 
 246   0.0000      13.338771       362.9664 
 247   0.0000      13.341465       363.0397 
 248   0.0000      13.342519       363.0684 
 249   0.0000      13.348377       363.2278 
 250   0.0000      13.352642       363.3439 
 251   0.0000      13.354973       363.4073 
 252   0.0000      13.356245       363.4419 
 253   0.0000      13.356331       363.4442 
 254   0.0000      13.356756       363.4558 
 255   0.0000      13.358388       363.5002 
 256   0.0000      13.358880       363.5136 
 257   0.0000      13.359315       363.5254 
 258   0.0000      13.362839       363.6213 
 259   0.0000      13.363404       363.6367 
 260   0.0000      13.363408       363.6368 
 261   0.0000      13.364927       363.6781 
 262   0.0000      13.366520       363.7215 
 263   0.0000      13.414672       365.0318 
 264   0.0000      13.420472       365.1896 
 265   0.0000      13.434573       365.5733 
 266   0.0000      13.437324       365.6482 
 267   0.0000      13.463152       366.3510 

                    ********************************
                    * MULLIKEN POPULATION ANALYSIS *
                    ********************************

-----------------------
MULLIKEN ATOMIC CHARGES
-----------------------
   0 Cu:   -0.274540
   1 Cu:    0.274596
   2 Cu:   -0.274617
   3 Cu:    0.274560
Sum of atomic charges:    0.0000000

--------------------------------
MULLIKEN REDUCED ORBITAL CHARGES
--------------------------------
  0 Cus       :     7.308535  s :     7.308535
      pz      :     4.035285  p :    12.056954
      px      :     4.012190
      py      :     4.009479
      dz2     :     1.971074  d :     9.908884
      dxz     :     1.957189
      dyz     :     1.990280
      dx2y2   :     1.993949
      dxy     :     1.996391
      f0      :     0.000043  f :     0.000167
      f+1     :     0.000036
      f-1     :     0.000031
      f+2     :     0.000025
      f-2     :     0.000023
      f+3     :     0.000005
      f-3     :     0.000005
      g0      :     0.000000  g :     0.000001
      g+1     :     0.000000
      g-1     :     0.000000
      g+2     :     0.000000
      g-2     :     0.000000
      g+3     :     0.000000
      g-3     :     0.000000
      g+4     :     0.000000
      g-4     :     0.000000
  1 Cus       :     6.615252  s :     6.615252
      pz      :     4.160759  p :    12.220874
      px      :     4.042237
      py      :     4.017878
      dz2     :     1.966763  d :     9.888947
      dxz     :     1.955198
      dyz     :     1.992696
      dx2y2   :     1.981922
      dxy     :     1.992368
      f0      :     0.000054  f :     0.000329
      f+1     :     0.000066
      f-1     :     0.000028
      f+2     :     0.000052
      f-2     :     0.000034
      f+3     :     0.000050
      f-3     :     0.000044
      g0      :     0.000000  g :     0.000001
      g+1     :     0.000000
      g-1     :     0.000000
      g+2     :     0.000000
      g-2     :     0.000000
      g+3     :     0.000000
      g-3     :     0.000000
      g+4     :     0.000000
      g-4     :     0.000000
  2 Cus       :     7.308635  s :     7.308635
      pz      :     4.035304  p :    12.056962
      px      :     4.012172
      py      :     4.009486
      dz2     :     1.971101  d :     9.908852
      dxz     :     1.957134
      dyz     :     1.990278
      dx2y2   :     1.993953
      dxy     :     1.996386
      f0      :     0.000043  f :     0.000167
      f+1     :     0.000036
      f-1     :     0.000031
      f+2     :     0.000025
      f-2     :     0.000023
      f+3     :     0.000005
      f-3     :     0.000005
      g0      :     0.000000  g :     0.000001
      g+1     :     0.000000
      g-1     :     0.000000
      g+2     :     0.000000
      g-2     :     0.000000
      g+3     :     0.000000
      g-3     :     0.000000
      g+4     :     0.000000
      g-4     :     0.000000
  3 Cus       :     6.615654  s :     6.615654
      pz      :     4.160550  p :    12.220699
      px      :     4.042252
      py      :     4.017897
      dz2     :     1.966662  d :     9.888755
      dxz     :     1.955146
      dyz     :     1.992671
      dx2y2   :     1.981917
      dxy     :     1.992360
      f0      :     0.000054  f :     0.000330
      f+1     :     0.000067
      f-1     :     0.000029
      f+2     :     0.000052
      f-2     :     0.000034
      f+3     :     0.000050
      f-3     :     0.000044
      g0      :     0.000000  g :     0.000001
      g+1     :     0.000000
      g-1     :     0.000000
      g+2     :     0.000000
      g-2     :     0.000000
      g+3     :     0.000000
      g-3     :     0.000000
      g+4     :     0.000000
      g-4     :     0.000000


                     *******************************
                     * LOEWDIN POPULATION ANALYSIS *
                     *******************************

----------------------
LOEWDIN ATOMIC CHARGES
----------------------
   0 Cu:    0.170417
   1 Cu:   -0.170136
   2 Cu:    0.170420
   3 Cu:   -0.170701

-------------------------------
LOEWDIN REDUCED ORBITAL CHARGES
-------------------------------
  0 Cus       :     6.652992  s :     6.652992
      pz      :     4.155192  p :    12.194922
      px      :     4.027760
      py      :     4.011970
      dz2     :     2.019063  d :     9.981211
      dxz     :     1.979753
      dyz     :     1.988448
      dx2y2   :     1.997703
      dxy     :     1.996243
      f0      :     0.000126  f :     0.000457
      f+1     :     0.000139
      f-1     :     0.000063
      f+2     :     0.000057
      f-2     :     0.000051
      f+3     :     0.000012
      f-3     :     0.000010
      g0      :     0.000000  g :     0.000002
      g+1     :     0.000000
      g-1     :     0.000000
      g+2     :     0.000000
      g-2     :     0.000000
      g+3     :     0.000000
      g-3     :     0.000000
      g+4     :     0.000000
      g-4     :     0.000000
  1 Cus       :     6.400467  s :     6.400467
      pz      :     4.560019  p :    12.728825
      px      :     4.147498
      py      :     4.021308
      dz2     :     2.005068  d :    10.039975
      dxz     :     2.041018
      dyz     :     1.992722
      dx2y2   :     2.008882
      dxy     :     1.992285
      f0      :     0.000150  f :     0.000867
      f+1     :     0.000218
      f-1     :     0.000062
      f+2     :     0.000149
      f-2     :     0.000069
      f+3     :     0.000120
      f-3     :     0.000098
      g0      :     0.000000  g :     0.000003
      g+1     :     0.000001
      g-1     :     0.000000
      g+2     :     0.000000
      g-2     :     0.000000
      g+3     :     0.000000
      g-3     :     0.000000
      g+4     :     0.000000
      g-4     :     0.000000
  2 Cus       :     6.652942  s :     6.652942
      pz      :     4.155256  p :    12.194982
      px      :     4.027749
      py      :     4.011977
      dz2     :     2.019086  d :     9.981197
      dxz     :     1.979725
      dyz     :     1.988446
      dx2y2   :     1.997702
      dxy     :     1.996239
      f0      :     0.000126  f :     0.000458
      f+1     :     0.000139
      f-1     :     0.000063
      f+2     :     0.000057
      f-2     :     0.000051
      f+3     :     0.000012
      f-3     :     0.000010
      g0      :     0.000000  g :     0.000002
      g+1     :     0.000000
      g-1     :     0.000000
      g+2     :     0.000000
      g-2     :     0.000000
      g+3     :     0.000000
      g-3     :     0.000000
      g+4     :     0.000000
      g-4     :     0.000000
  3 Cus       :     6.400605  s :     6.400605
      pz      :     4.560601  p :    12.729397
      px      :     4.147462
      py      :     4.021333
      dz2     :     2.005084  d :    10.039829
      dxz     :     2.040906
      dyz     :     1.992697
      dx2y2   :     2.008862
      dxy     :     1.992279
      f0      :     0.000151  f :     0.000868
      f+1     :     0.000218
      f-1     :     0.000062
      f+2     :     0.000149
      f-2     :     0.000070
      f+3     :     0.000120
      f-3     :     0.000098
      g0      :     0.000000  g :     0.000003
      g+1     :     0.000001
      g-1     :     0.000000
      g+2     :     0.000000
      g-2     :     0.000000
      g+3     :     0.000000
      g-3     :     0.000000
      g+4     :     0.000000
      g-4     :     0.000000


                      *****************************
                      * MAYER POPULATION ANALYSIS *
                      *****************************

  NA   - Mulliken gross atomic population
  ZA   - Total nuclear charge
  QA   - Mulliken gross atomic charge
  VA   - Mayer's total valence
  BVA  - Mayer's bonded valence
  FA   - Mayer's free valence

  ATOM       NA         ZA         QA         VA         BVA        FA
  0 Cu    29.2745    29.0000    -0.2745     0.9904     0.9904     0.0000
  1 Cu    28.7254    29.0000     0.2746     1.2610     1.2610     0.0000
  2 Cu    29.2746    29.0000    -0.2746     0.9905     0.9905    -0.0000
  3 Cu    28.7254    29.0000     0.2746     1.2613     1.2613     0.0000

  Mayer bond orders larger than 0.100000
B(  0-Cu,  1-Cu) :   0.4388 B(  0-Cu,  2-Cu) :   0.1142 B(  0-Cu,  3-Cu) :   0.4374 
B(  1-Cu,  2-Cu) :   0.4373 B(  1-Cu,  3-Cu) :   0.3848 B(  2-Cu,  3-Cu) :   0.4390 


-------
TIMINGS
-------

Total SCF time: 0 days 0 hours 0 min 25 sec 

Total time                  ....      25.123 sec
Sum of individual times     ....      24.839 sec  ( 98.9%)

Fock matrix formation       ....      24.073 sec  ( 95.8%)
  XC integration            ....       0.770 sec  (  3.2% of F)
    Basis function eval.    ....       0.078 sec  ( 10.2% of XC)
    Density eval.           ....       0.155 sec  ( 20.2% of XC)
    XC-Functional eval.     ....       0.038 sec  (  5.0% of XC)
    XC-Potential eval.      ....       0.293 sec  ( 38.0% of XC)
Diagonalization             ....       0.160 sec  (  0.6%)
Density matrix formation    ....       0.018 sec  (  0.1%)
Population analysis         ....       0.010 sec  (  0.0%)
Initial guess               ....       0.116 sec  (  0.5%)
Orbital Transformation      ....       0.000 sec  (  0.0%)
Orbital Orthonormalization  ....       0.000 sec  (  0.0%)
DIIS solution               ....       0.087 sec  (  0.3%)
Grid generation             ....       0.374 sec  (  1.5%)

-------------------------   --------------------
FINAL SINGLE POINT ENERGY     -6561.771614424140
-------------------------   --------------------


                            ***************************************
                            *     ORCA property calculations      *
                            ***************************************

                                    ---------------------
                                    Active property flags
                                    ---------------------
   (+) Dipole Moment


------------------------------------------------------------------------------
                       ORCA ELECTRIC PROPERTIES CALCULATION
------------------------------------------------------------------------------

Dipole Moment Calculation                       ... on
Quadrupole Moment Calculation                   ... off
Polarizability Calculation                      ... off
GBWName                                         ... Cu04N0.gbw
Electron density file                           ... Cu04N0.scfp
The origin for moment calculation is the CENTER OF MASS  = ( 0.000000,  0.000000  0.000000)

-------------
DIPOLE MOMENT
-------------
                                X             Y             Z
Electronic contribution:      0.00091       0.00009       0.00000
Nuclear contribution   :      0.00000       0.00000      -0.00000
                        -----------------------------------------
Total Dipole Moment    :      0.00091       0.00009       0.00000
                        -----------------------------------------
Magnitude (a.u.)       :      0.00092
Magnitude (Debye)      :      0.00233



--------------------
Rotational spectrum 
--------------------
 
Rotational constants in cm-1:     0.103116     0.030352     0.023450 
Rotational constants in MHz :  3091.345194   909.942810   703.010463 

 Dipole components along the rotational axes: 
x,y,z [a.u.] :    -0.000171     0.000903     0.000007 
x,y,z [Debye]:    -0.000434     0.002294     0.000018 

 

Timings for individual modules:

Sum of individual times         ...       26.320 sec (=   0.439 min)
GTO integral calculation        ...        0.812 sec (=   0.014 min)   3.1 %
SCF iterations                  ...       25.508 sec (=   0.425 min)  96.9 %
                             ****ORCA TERMINATED NORMALLY****
TOTAL RUN TIME: 0 days 0 hours 0 minutes 26 seconds 789 msec
