
                                 *****************
                                 * O   R   C   A *
                                 *****************

           --- An Ab Initio, DFT and Semiempirical electronic structure package ---

                  #######################################################
                  #                        -***-                        #
                  #          Department of theory and spectroscopy      #
                  #               Directorship: Frank Neese             #
                  #        Max Planck Institute fuer Kohlenforschung    #
                  #                Kaiser Wilhelm Platz 1               #
                  #                 D-45470 Muelheim/Ruhr               #
                  #                      Germany                        #
                  #                                                     #
                  #                  All rights reserved                #
                  #                        -***-                        #
                  #######################################################


                         Program Version 4.2.0 -  RELEASE  -


 With contributions from (in alphabetic order):
   Daniel Aravena         : Magnetic Suceptibility
   Michael Atanasov       : Ab Initio Ligand Field Theory (pilot matlab implementation)
   Alexander A. Auer      : GIAO ZORA, VPT2
   Ute Becker             : Parallelization
   Giovanni Bistoni       : ED, misc. LED, open-shell LED, HFLED
   Martin Brehm           : Molecular dynamics
   Dmytro Bykov           : SCF Hessian
   Vijay G. Chilkuri      : MRCI spin determinant printing, contributions to CSF-ICE
   Dipayan Datta          : RHF DLPNO-CCSD density
   Achintya Kumar Dutta   : EOM-CC, STEOM-CC
   Dmitry Ganyushin       : Spin-Orbit,Spin-Spin,Magnetic field MRCI
   Miquel Garcia          : C-PCM Hessian, Gaussian charge scheme
   Yang Guo               : DLPNO-NEVPT2, CIM, IAO-localization
   Andreas Hansen         : Spin unrestricted coupled pair/coupled cluster methods
   Benjamin Helmich-Paris : CASSCF linear response (MC-RPA)
   Lee Huntington         : MR-EOM, pCC
   Robert Izsak           : Overlap fitted RIJCOSX, COSX-SCS-MP3, EOM
   Christian Kollmar      : KDIIS, OOCD, Brueckner-CCSD(T), CCSD density
   Simone Kossmann        : Meta GGA functionals, TD-DFT gradient, OOMP2, MP2 Hessian
   Martin Krupicka        : AUTO-CI
   Lucas Lang             : DCDCAS
   Dagmar Lenk            : GEPOL surface, SMD
   Dimitrios Liakos       : Extrapolation schemes; Compound Job, initial MDCI parallelization
   Dimitrios Manganas     : Further ROCIS development; embedding schemes
   Dimitrios Pantazis     : SARC Basis sets
   Taras Petrenko         : DFT Hessian,TD-DFT gradient, ASA, ECA, R-Raman, ABS, FL, XAS/XES, NRVS
   Peter Pinski           : DLPNO-MP2, DLPNO-MP2 Gradient
   Christoph Reimann      : Effective Core Potentials
   Marius Retegan         : Local ZFS, SOC
   Christoph Riplinger    : Optimizer, TS searches, QM/MM, DLPNO-CCSD(T), (RO)-DLPNO pert. Triples
   Tobias Risthaus        : Range-separated hybrids, TD-DFT gradient, RPA, STAB
   Michael Roemelt        : Original ROCIS implementation
   Masaaki Saitow         : Open-shell DLPNO-CCSD energy and density
   Barbara Sandhoefer     : DKH picture change effects
   Avijit Sen             : IP-ROCIS
   Kantharuban Sivalingam : CASSCF convergence, NEVPT2, FIC-MRCI
   Bernardo de Souza      : ESD, SOC TD-DFT
   Georgi Stoychev        : AutoAux, RI-MP2 NMR
   Willem Van den Heuvel  : Paramagnetic NMR
   Boris Wezisla          : Elementary symmetry handling
   Frank Wennmohs         : Technical directorship


 We gratefully acknowledge several colleagues who have allowed us to
 interface, adapt or use parts of their codes:
   Stefan Grimme, W. Hujo, H. Kruse,             : VdW corrections, initial TS optimization,
                  C. Bannwarth                     DFT functionals, gCP, sTDA/sTD-DF
   Ed Valeev, F. Pavosevic, A. Kumar             : LibInt (2-el integral package), F12 methods
   Garnet Chan, S. Sharma, J. Yang, R. Olivares  : DMRG
   Ulf Ekstrom                                   : XCFun DFT Library
   Mihaly Kallay                                 : mrcc  (arbitrary order and MRCC methods)
   Andreas Klamt, Michael Diedenhofen            : otool_cosmo (COSMO solvation model)
   Jiri Pittner, Ondrej Demel                    : Mk-CCSD
   Frank Weinhold                                : gennbo (NPA and NBO analysis)
   Christopher J. Cramer and Donald G. Truhlar   : smd solvation model
   Lars Goerigk                                  : TD-DFT with DH, B97 family of functionals
   V. Asgeirsson, H. Jonsson                     : NEB implementation
   FAccTs GmbH                                   : IRC, NEB, NEB-TS, Multilevel, MM, QM/MM, CI optimization
   S Lehtola, MJT Oliveira, MAL Marques          : LibXC Library


 Your calculation uses the libint2 library for the computation of 2-el integrals
 For citations please refer to: http://libint.valeyev.net

 Your ORCA version has been built with support for libXC version: 4.2.3
 For citations please refer to: https://tddft.org/programs/libxc/

 This ORCA versions uses:
   CBLAS   interface :  Fast vector & matrix operations
   LAPACKE interface :  Fast linear algebra routines
   SCALAPACK package :  Parallel linear algebra routines


Your calculation utilizes the DFT-NL dispersion correction.
Cite in your paper:
Vydrov, O. A.; Van Voorhis, T. J. Chem. Phys. 2010, 133, 244103
Hujo, W.; Grimme, S. J. Chem. Theory Comput. 2011, 7, 3866 
   

----- Orbital basis set information -----
Your calculation utilizes the basis: def2-TZVPPD
   F. Weigend and R. Ahlrichs, Phys. Chem. Chem. Phys. 7, 3297 (2005).
   D. Rappoport and F. Furche, J. Chem. Phys. 133 134105 (2010).

----- AuxJK basis set information -----
Your calculation utilizes the auxiliary basis: def2/JK
   H-Ba, Hf-Rn: F. Weigend, J. Comput. Chem. 29, 167 (2008).

================================================================================
                                        WARNINGS
                       Please study these warnings very carefully!
================================================================================


WARNING: your system is open-shell and RHF/RKS was chosen
  ===> : WILL SWITCH to UHF/UKS


INFO   : the flag for use of LIBINT has been found!

================================================================================
                                       INPUT FILE
================================================================================
NAME = Cu04C2_H_A.in
|  1> #
|  2> # Cu04C2_H_A wB97M-V/Def2-TZVPPD
|  3> #
|  4> ! wb97m-v def2-tzvppd def2/jk grid4 nofinalgrid
|  5> 
|  6> *xyz 2 2
|  7> Cu      -0.000000    1.401870   -0.545062 
|  8> Cu       1.214055   -0.700935   -0.545062 
|  9> Cu      -1.214055   -0.700935   -0.545062 
| 10> Cu       0.000000    0.000000    1.530006 
| 11> H        0.000000    0.000000    3.050192 
| 12> *
| 13> 
| 14> %maxcore 5000
| 15> 
| 16> %pal
| 17> nprocs = 24
| 18> end
| 19> 
| 20> 
| 21>                          ****END OF INPUT****
================================================================================

                       ****************************
                       * Single Point Calculation *
                       ****************************

---------------------------------
CARTESIAN COORDINATES (ANGSTROEM)
---------------------------------
  Cu    -0.000000    1.401870   -0.545062
  Cu     1.214055   -0.700935   -0.545062
  Cu    -1.214055   -0.700935   -0.545062
  Cu     0.000000    0.000000    1.530006
  H      0.000000    0.000000    3.050192

----------------------------
CARTESIAN COORDINATES (A.U.)
----------------------------
  NO LB      ZA    FRAG     MASS         X           Y           Z
   0 Cu   29.0000    0    63.550   -0.000000    2.649150   -1.030018
   1 Cu   29.0000    0    63.550    2.294231   -1.324575   -1.030018
   2 Cu   29.0000    0    63.550   -2.294231   -1.324575   -1.030018
   3 Cu   29.0000    0    63.550    0.000000    0.000000    2.891292
   4 H     1.0000    0     1.008    0.000000    0.000000    5.764028

--------------------------------
INTERNAL COORDINATES (ANGSTROEM)
--------------------------------
 Cu     0   0   0     0.000000000000     0.00000000     0.00000000
 Cu     1   0   0     2.428110049205     0.00000000     0.00000000
 Cu     2   1   0     2.428110000000    60.00000067     0.00000000
 Cu     2   1   3     2.504225752977    61.00046376   288.66439875
 H      4   2   1     1.520186000000   145.95791111   214.86707431

---------------------------
INTERNAL COORDINATES (A.U.)
---------------------------
 Cu     0   0   0     0.000000000000     0.00000000     0.00000000
 Cu     1   0   0     4.588463016019     0.00000000     0.00000000
 Cu     2   1   0     4.588462923036    60.00000067     0.00000000
 Cu     2   1   3     4.732300850640    61.00046376   288.66439875
 H      4   2   1     2.872735212621   145.95791111   214.86707431

---------------------
BASIS SET INFORMATION
---------------------
There are 2 groups of distinct atoms

 Group   1 Type Cu  : 17s13p7d2f1g contracted to 6s6p4d2f1g pattern {842111/631111/4111/11/1}
 Group   2 Type H   : 5s3p1d contracted to 3s3p1d pattern {311/111/1}

Atom   0Cu   basis set group =>   1
Atom   1Cu   basis set group =>   1
Atom   2Cu   basis set group =>   1
Atom   3Cu   basis set group =>   1
Atom   4H    basis set group =>   2
----------------------------------
AUXILIARY/JK BASIS SET INFORMATION
----------------------------------
There are 2 groups of distinct atoms

 Group   1 Type Cu  : 19s14p12d10f7g3h1i contracted to 16s13p11d9f5g3h1i pattern {4111111111111111/2111111111111/21111111111/211111111/31111/111/1}
 Group   2 Type H   : 4s2p2d contracted to 2s2p2d pattern {31/11/11}

Atom   0Cu   basis set group =>   1
Atom   1Cu   basis set group =>   1
Atom   2Cu   basis set group =>   1
Atom   3Cu   basis set group =>   1
Atom   4H    basis set group =>   2


           ************************************************************
           *        Program running with 24 parallel MPI-processes    *
           *              working on a common directory               *
           ************************************************************
------------------------------------------------------------------------------
                           ORCA GTO INTEGRAL CALCULATION
------------------------------------------------------------------------------

                         BASIS SET STATISTICS AND STARTUP INFO

 # of primitive gaussian shells          ...  169
 # of primitive gaussian functions       ...  475
 # of contracted shells                  ...   83
 # of contracted basis functions         ...  285
 Highest angular momentum                ...    4
 Maximum contraction depth               ...    8
 Integral package used                   ... LIBINT
 Integral threshhold            Thresh   ...  1.000e-10
 Primitive cut-off              TCut     ...  1.000e-11


------------------------------ INTEGRAL EVALUATION ----------------------------


 * One electron integrals 
 Pre-screening matrix                    ... done
 Shell pair data                         ... done (   0.001 sec)



           ************************************************************
           *        Program running with 24 parallel MPI-processes    *
           *              working on a common directory               *
           ************************************************************
-------------------------------------------------------------------------------
                                 ORCA SCF
-------------------------------------------------------------------------------

------------
SCF SETTINGS
------------
Hamiltonian:
 Density Functional     Method          .... DFT(GTOs)
 Exchange Functional    Exchange        .... WB97M-V
 Correlation Functional Correlation     .... WB97M-V
 Gradients option       PostSCFGGA      .... off
 Hybrid DFT is turned on
   Fraction HF Exchange ScalHFX         ....  0.150000
   Scaling of DF-GGA-X  ScalDFX         ....  0.000000
   Scaling of DF-GGA-C  ScalDFC         ....  1.000000
   Scaling of DF-LDA-C  ScalLDAC        ....  1.000000
   Perturbative correction              ....  0.000000
   Density functional embedding theory  .... OFF
 Long-range corrected/Screened/Range-Separated Hybrid DFT is turned on
   Amount of maximum screened exact exchange              ....  0.850000
   Range separation parameter mu (erf(mu*r12)/r12)        ....  0.300000
   NL short-range parameter             ....  6.000000
   NL long-range parameter              ....  0.010000


General Settings:
 Integral files         IntName         .... Cu04C2_H_A
 Hartree-Fock type      HFTyp           .... UHF
 Total Charge           Charge          ....    2
 Multiplicity           Mult            ....    2
 Number of Electrons    NEL             ....  115
 Basis Dimension        Dim             ....  285
 Nuclear Repulsion      ENuc            ....   1105.0271586451 Eh

Convergence Acceleration:
 DIIS                   CNVDIIS         .... on
   Start iteration      DIISMaxIt       ....    12
   Startup error        DIISStart       ....  0.200000
   # of expansion vecs  DIISMaxEq       ....     5
   Bias factor          DIISBfac        ....   1.050
   Max. coefficient     DIISMaxC        ....  10.000
 Newton-Raphson         CNVNR           .... off
 SOSCF                  CNVSOSCF        .... off
 Level Shifting         CNVShift        .... on
   Level shift para.    LevelShift      ....    0.2500
   Turn off err/grad.   ShiftErr        ....    0.0010
 Zerner damping         CNVZerner       .... off
 Static damping         CNVDamp         .... on
   Fraction old density DampFac         ....    0.7000
   Max. Damping (<1)    DampMax         ....    0.9800
   Min. Damping (>=0)   DampMin         ....    0.0000
   Turn off err/grad.   DampErr         ....    0.1000
 Fernandez-Rico         CNVRico         .... off

SCF Procedure:
 Maximum # iterations   MaxIter         ....   125
 SCF integral mode      SCFMode         .... Direct
   Integral package                     .... LIBINT
 Reset frequency        DirectResetFreq ....    20
 Integral Threshold     Thresh          ....  1.000e-10 Eh
 Primitive CutOff       TCut            ....  1.000e-11 Eh

Convergence Tolerance:
 Convergence Check Mode ConvCheckMode   .... Total+1el-Energy
 Convergence forced     ConvForced      .... 0
 Energy Change          TolE            ....  1.000e-06 Eh
 1-El. energy change                    ....  1.000e-03 Eh
 DIIS Error             TolErr          ....  1.000e-06


Diagonalization of the overlap matrix:
Smallest eigenvalue                        ... 4.269e-04
Time for diagonalization                   ...    0.011 sec
Threshold for overlap eigenvalues          ... 1.000e-08
Number of eigenvalues below threshold      ... 0
Time for construction of square roots      ...    0.010 sec
Total time needed                          ...    0.022 sec

-------------------
DFT GRID GENERATION
-------------------

General Integration Accuracy     IntAcc      ...  4.670
Radial Grid Type                 RadialGrid  ... Gauss-Chebyshev
Angular Grid (max. acc.)         AngularGrid ... Lebedev-302
Angular grid pruning method      GridPruning ... 3 (G Style)
Weight generation scheme         WeightScheme... Becke
Basis function cutoff            BFCut       ...    1.0000e-10
Integration weight cutoff        WCut        ...    1.0000e-14
Grids for H and He will be reduced by one unit

# of grid points (after initial pruning)     ...  41618 (   0.0 sec)
# of grid points (after weights+screening)   ...  41057 (   0.0 sec)
nearest neighbour list constructed           ...    0.0 sec
Grid point re-assignment to atoms done       ...    0.0 sec
Grid point division into batches done        ...    0.2 sec
Reduced shell lists constructed in    0.3 sec

Total number of grid points                  ...    41057
Total number of batches                      ...      644
Average number of points per batch           ...       63
Average number of grid points per atom       ...     8211
Average number of shells per batch           ...    20.93 (25.22%)
Average number of basis functions per batch  ...    57.79 (20.28%)
Average number of large shells per batch     ...    15.54 (74.23%)
Average number of large basis fcns per batch ...    42.89 (74.23%)
Maximum spatial batch extension              ...  20.26, 16.80, 17.24 au
Average spatial batch extension              ...   0.41,  0.35,  0.38 au

Time for grid setup =    0.326 sec

------------------------------
INITIAL GUESS: MODEL POTENTIAL
------------------------------
Loading Hartree-Fock densities                     ... done
Calculating cut-offs                               ... done
Setting up the integral package                    ... done
Initializing the effective Hamiltonian             ... done
Starting the Coulomb interaction                   ... done (   0.0 sec)
Reading the grid                                   ... done
Mapping shells                                     ... done
Starting the XC term evaluation                    ... done (   0.0 sec)
  promolecular density results
     # of electrons  =    116.999566998
     EX              =   -262.317666763
     EC              =     -5.456913274
     EX+EC           =   -267.774580037
Transforming the Hamiltonian                       ... done (   0.0 sec)
Diagonalizing the Hamiltonian                      ... done (   0.0 sec)
Back transforming the eigenvectors                 ... done (   0.0 sec)
Now organizing SCF variables                       ... done
                      ------------------
                      INITIAL GUESS DONE (   0.4 sec)
                      ------------------
--------------
SCF ITERATIONS
--------------
ITER       Energy         Delta-E        Max-DP      RMS-DP      [F,P]     Damp
               ***  Starting incremental Fock matrix formation  ***
  0  -6562.0798305634   0.000000000000 0.05845922  0.00048761  0.1310007 0.7000
  1  -6562.0994681402  -0.019637576807 0.05641090  0.00045120  0.0322348 0.7000
                               ***Turning on DIIS***
  2  -6562.1100219990  -0.010553858750 0.15000169  0.00122728  0.0353901 0.0000
  3  -6562.1382214031  -0.028199404102 0.02447254  0.00020029  0.0109541 0.0000
  4  -6562.1405320013  -0.002310598255 0.01692248  0.00013882  0.0047807 0.0000
  5  -6562.1417652075  -0.001233206195 0.01408197  0.00009462  0.0084711 0.0000
  6  -6562.1424279340  -0.000662726474 0.01007190  0.00005831  0.0055876 0.0000
  7  -6562.1428562279  -0.000428293907 0.00798919  0.00004547  0.0020522 0.0000
  8  -6562.1430432788  -0.000187050866 0.00304007  0.00002280  0.0024009 0.0000
  9  -6562.1431154986  -0.000072219870 0.00304256  0.00002152  0.0019274 0.0000
 10  -6562.1431610489  -0.000045550302 0.00303343  0.00001979  0.0010492 0.0000
 11  -6562.1431905399  -0.000029490952 0.00309630  0.00002016  0.0007001 0.0000
 12  -6562.1432134394  -0.000022899541 0.00090531  0.00000660  0.0003712 0.0000
 13  -6562.1432177139  -0.000004274454 0.00029541  0.00000205  0.0001617 0.0000
 14  -6562.1432194620  -0.000001748113 0.00032021  0.00000247  0.0002835 0.0000
 15  -6562.1432205326  -0.000001070645 0.00034678  0.00000221  0.0000535 0.0000
                 **** Energy Check signals convergence ****

               *****************************************************
               *                     SUCCESS                       *
               *           SCF CONVERGED AFTER  16 CYCLES          *
               *****************************************************


Setting up the DFT-NL grid :

General Integration Accuracy     IntAcc      ...  4.340
Radial Grid Type                 RadialGrid  ... Gauss-Chebyshev
Angular Grid (max. acc.)         AngularGrid ... Lebedev-110
Angular grid pruning method      GridPruning ... 3 (G Style)
Weight generation scheme         WeightScheme... Becke
Basis function cutoff            BFCut       ...    1.0000e-10
Integration weight cutoff        WCut        ...    1.0000e-14
Grids for H and He will be reduced by one unit

# of grid points (after initial pruning)     ...  12442 (   0.0 sec)
# of grid points (after weights+screening)   ...  12286 (   0.0 sec)
nearest neighbour list constructed           ...    0.0 sec
Grid point re-assignment to atoms done       ...    0.0 sec
Grid point division into batches done        ...    0.0 sec
Reduced shell lists constructed in    0.0 sec

Total number of grid points                  ...    12286
Total number of batches                      ...      194
Average number of points per batch           ...       63
Average number of grid points per atom       ...     2457
Average number of shells per batch           ...    26.80 (32.29%)
Average number of basis functions per batch  ...    79.00 (27.72%)
Average number of large shells per batch     ...    20.50 (76.49%)
Average number of large basis fcns per batch ...    57.30 (72.53%)
Maximum spatial batch extension              ...  27.84, 14.71, 20.72 au
Average spatial batch extension              ...   0.65,  0.48,  0.59 au

Final grid set up in    0.0 sec

-------------------------------------------------------------------------------
                         DFT-NL dispersion correction                          
-------------------------------------------------------------------------------

SC Energy -6562.143221515 
NL    Energy 0.482856582 
SC+NL Energy -6561.660364933 
NL done in    0.0 sec
-------------------------------------------------------------------------------

----------------
TOTAL SCF ENERGY
----------------

Total Energy       :        -6561.66036493 Eh         -178551.85593 eV

Components:
Nuclear Repulsion  :         1105.02715865 Eh           30069.31768 eV
Electronic Energy  :        -7666.68752358 Eh         -208621.17361 eV
One Electron Energy:       -11310.99272888 Eh         -307787.75978 eV
Two Electron Energy:         3644.30520530 Eh           99166.58617 eV

Virial components:
Potential Energy   :       -13114.68598378 Eh         -356868.74848 eV
Kinetic Energy     :         6553.02561884 Eh          178316.89254 eV
Virial Ratio       :            2.00131767


DFT components:
N(Alpha)           :       57.999981472190 electrons
N(Beta)            :       56.999977151341 electrons
N(Total)           :      114.999958623532 electrons
E(X)               :     -207.113098336221 Eh       
E(C)               :       -6.397052948361 Eh       
NL Energy, E(C,NL) :        0.482856582153 Eh       
E(XC)              :     -213.027294702429 Eh       
DFET-embed. en.    :        0.000000000000 Eh       

---------------
SCF CONVERGENCE
---------------

  Last Energy change         ...   -9.8221e-07  Tolerance :   1.0000e-06
  Last MAX-Density change    ...    2.3159e-04  Tolerance :   1.0000e-05
  Last RMS-Density change    ...    1.3963e-06  Tolerance :   1.0000e-06
  Last DIIS Error            ...    6.9266e-05  Tolerance :   1.0000e-06

             **** THE GBW FILE WAS UPDATED (Cu04C2_H_A.gbw) ****
             **** DENSITY FILE WAS UPDATED (Cu04C2_H_A.scfp) ****
             **** ENERGY FILE WAS UPDATED (Cu04C2_H_A.en.tmp) ****
----------------------
UHF SPIN CONTAMINATION
----------------------

Warning: in a DFT calculation there is little theoretical justification to 
         calculate <S**2> as in Hartree-Fock theory. We will do it anyways
         but you should keep in mind that the values have only limited relevance

Expectation value of <S**2>     :     0.754429
Ideal value S*(S+1) for S=0.5   :     0.750000
Deviation                       :     0.004429

             **** THE GBW FILE WAS UPDATED (Cu04C2_H_A.gbw) ****
             **** DENSITY FILE WAS UPDATED (Cu04C2_H_A.scfp) ****
----------------
ORBITAL ENERGIES
----------------
                 SPIN UP ORBITALS
  NO   OCC          E(Eh)            E(eV) 
   0   1.0000    -323.998181     -8816.4387 
   1   1.0000    -323.957863     -8815.3416 
   2   1.0000    -323.957859     -8815.3415 
   3   1.0000    -323.957854     -8815.3414 
   4   1.0000     -39.520295     -1075.4019 
   5   1.0000     -39.467653     -1073.9694 
   6   1.0000     -39.467650     -1073.9693 
   7   1.0000     -39.467628     -1073.9688 
   8   1.0000     -34.628272      -942.2832 
   9   1.0000     -34.615621      -941.9389 
  10   1.0000     -34.615617      -941.9388 
  11   1.0000     -34.568985      -940.6699 
  12   1.0000     -34.568982      -940.6698 
  13   1.0000     -34.568977      -940.6697 
  14   1.0000     -34.568742      -940.6633 
  15   1.0000     -34.568728      -940.6629 
  16   1.0000     -34.568724      -940.6628 
  17   1.0000     -34.568694      -940.6620 
  18   1.0000     -34.568691      -940.6619 
  19   1.0000     -34.568678      -940.6615 
  20   1.0000      -4.907544      -133.5411 
  21   1.0000      -4.858056      -132.1944 
  22   1.0000      -4.857763      -132.1865 
  23   1.0000      -4.857760      -132.1864 
  24   1.0000      -3.387250       -92.1718 
  25   1.0000      -3.362163       -91.4891 
  26   1.0000      -3.362151       -91.4888 
  27   1.0000      -3.325005       -90.4780 
  28   1.0000      -3.323155       -90.4276 
  29   1.0000      -3.323151       -90.4275 
  30   1.0000      -3.321616       -90.3858 
  31   1.0000      -3.321582       -90.3848 
  32   1.0000      -3.321574       -90.3846 
  33   1.0000      -3.320865       -90.3653 
  34   1.0000      -3.320863       -90.3653 
  35   1.0000      -3.320617       -90.3586 
  36   1.0000      -0.897912       -24.4334 
  37   1.0000      -0.848576       -23.0909 
  38   1.0000      -0.848540       -23.0899 
  39   1.0000      -0.831489       -22.6260 
  40   1.0000      -0.829316       -22.5668 
  41   1.0000      -0.829315       -22.5668 
  42   1.0000      -0.818901       -22.2834 
  43   1.0000      -0.811272       -22.0758 
  44   1.0000      -0.811265       -22.0756 
  45   1.0000      -0.803288       -21.8586 
  46   1.0000      -0.794983       -21.6326 
  47   1.0000      -0.794973       -21.6323 
  48   1.0000      -0.780998       -21.2520 
  49   1.0000      -0.780837       -21.2476 
  50   1.0000      -0.780835       -21.2476 
  51   1.0000      -0.779461       -21.2102 
  52   1.0000      -0.779438       -21.2096 
  53   1.0000      -0.777815       -21.1654 
  54   1.0000      -0.772343       -21.0165 
  55   1.0000      -0.772339       -21.0164 
  56   1.0000      -0.759493       -20.6669 
  57   1.0000      -0.734741       -19.9933 
  58   0.0000      -0.394446       -10.7334 
  59   0.0000      -0.394442       -10.7333 
  60   0.0000      -0.364452        -9.9172 
  61   0.0000      -0.287759        -7.8303 
  62   0.0000      -0.270404        -7.3581 
  63   0.0000      -0.270403        -7.3580 
  64   0.0000      -0.262734        -7.1494 
  65   0.0000      -0.262734        -7.1493 
  66   0.0000      -0.188744        -5.1360 
  67   0.0000      -0.179429        -4.8825 
  68   0.0000      -0.179427        -4.8825 
  69   0.0000      -0.170149        -4.6300 
  70   0.0000      -0.158147        -4.3034 
  71   0.0000      -0.158146        -4.3034 
  72   0.0000      -0.153948        -4.1891 
  73   0.0000      -0.133909        -3.6438 
  74   0.0000      -0.119852        -3.2613 
  75   0.0000      -0.113668        -3.0931 
  76   0.0000      -0.113667        -3.0930 
  77   0.0000      -0.111818        -3.0427 
  78   0.0000      -0.111817        -3.0427 
  79   0.0000      -0.101011        -2.7486 
  80   0.0000      -0.088748        -2.4150 
  81   0.0000      -0.088746        -2.4149 
  82   0.0000      -0.063911        -1.7391 
  83   0.0000      -0.041112        -1.1187 
  84   0.0000      -0.041106        -1.1186 
  85   0.0000      -0.036503        -0.9933 
  86   0.0000      -0.036497        -0.9931 
  87   0.0000      -0.035971        -0.9788 
  88   0.0000      -0.032078        -0.8729 
  89   0.0000      -0.017804        -0.4845 
  90   0.0000      -0.017804        -0.4845 
  91   0.0000       0.011472         0.3122 
  92   0.0000       0.011473         0.3122 
  93   0.0000       0.023183         0.6309 
  94   0.0000       0.023736         0.6459 
  95   0.0000       0.023738         0.6459 
  96   0.0000       0.024545         0.6679 
  97   0.0000       0.060878         1.6566 
  98   0.0000       0.076259         2.0751 
  99   0.0000       0.078445         2.1346 
 100   0.0000       0.078447         2.1346 
 101   0.0000       0.087061         2.3690 
 102   0.0000       0.087063         2.3691 
 103   0.0000       0.137078         3.7301 
 104   0.0000       0.137082         3.7302 
 105   0.0000       0.151439         4.1209 
 106   0.0000       0.169558         4.6139 
 107   0.0000       0.169840         4.6216 
 108   0.0000       0.169840         4.6216 
 109   0.0000       0.199950         5.4409 
 110   0.0000       0.199954         5.4410 
 111   0.0000       0.215153         5.8546 
 112   0.0000       0.264438         7.1957 
 113   0.0000       0.365662         9.9502 
 114   0.0000       0.424302        11.5458 
 115   0.0000       0.424302        11.5458 
 116   0.0000       0.427310        11.6277 
 117   0.0000       0.427311        11.6277 
 118   0.0000       0.486864        13.2483 
 119   0.0000       0.486865        13.2483 
 120   0.0000       0.489095        13.3090 
 121   0.0000       0.507064        13.7979 
 122   0.0000       0.516000        14.0411 
 123   0.0000       0.524769        14.2797 
 124   0.0000       0.524772        14.2798 
 125   0.0000       0.574553        15.6344 
 126   0.0000       0.574555        15.6344 
 127   0.0000       0.600470        16.3396 
 128   0.0000       0.615465        16.7476 
 129   0.0000       0.615466        16.7477 
 130   0.0000       0.655867        17.8470 
 131   0.0000       0.655867        17.8470 
 132   0.0000       0.679325        18.4854 
 133   0.0000       0.707065        19.2402 
 134   0.0000       0.708595        19.2818 
 135   0.0000       0.708595        19.2819 
 136   0.0000       0.732790        19.9402 
 137   0.0000       0.732792        19.9403 
 138   0.0000       0.735463        20.0130 
 139   0.0000       0.780846        21.2479 
 140   0.0000       0.780860        21.2483 
 141   0.0000       0.930042        25.3077 
 142   0.0000       0.939880        25.5754 
 143   0.0000       0.939883        25.5755 
 144   0.0000       0.958750        26.0889 
 145   0.0000       1.016384        27.6572 
 146   0.0000       1.016390        27.6574 
 147   0.0000       1.139931        31.0191 
 148   0.0000       2.263995        61.6064 
 149   0.0000       2.475216        67.3541 
 150   0.0000       2.646386        72.0118 
 151   0.0000       2.646410        72.0125 
 152   0.0000       2.748603        74.7933 
 153   0.0000       2.748620        74.7938 
 154   0.0000       2.763684        75.2037 
 155   0.0000       2.772346        75.4394 
 156   0.0000       2.772348        75.4394 
 157   0.0000       2.803156        76.2778 
 158   0.0000       2.818633        76.6989 
 159   0.0000       2.818687        76.7004 
 160   0.0000       2.902560        78.9827 
 161   0.0000       2.902564        78.9828 
 162   0.0000       2.941305        80.0370 
 163   0.0000       2.971611        80.8616 
 164   0.0000       2.986796        81.2748 
 165   0.0000       2.986797        81.2749 
 166   0.0000       3.032142        82.5088 
 167   0.0000       3.111620        84.6715 
 168   0.0000       3.121053        84.9282 
 169   0.0000       3.121413        84.9380 
 170   0.0000       3.122555        84.9690 
 171   0.0000       3.122559        84.9692 
 172   0.0000       3.131597        85.2151 
 173   0.0000       3.141537        85.4856 
 174   0.0000       3.141593        85.4871 
 175   0.0000       3.144657        85.5705 
 176   0.0000       3.144707        85.5718 
 177   0.0000       3.145396        85.5906 
 178   0.0000       3.148596        85.6776 
 179   0.0000       3.148715        85.6809 
 180   0.0000       3.148728        85.6812 
 181   0.0000       3.150231        85.7222 
 182   0.0000       3.150241        85.7224 
 183   0.0000       3.159528        85.9751 
 184   0.0000       3.159535        85.9753 
 185   0.0000       3.176294        86.4313 
 186   0.0000       3.176300        86.4315 
 187   0.0000       3.181470        86.5722 
 188   0.0000       3.181475        86.5723 
 189   0.0000       3.183451        86.6261 
 190   0.0000       3.191601        86.8479 
 191   0.0000       3.204067        87.1871 
 192   0.0000       3.329707        90.6059 
 193   0.0000       3.329719        90.6063 
 194   0.0000       3.368443        91.6600 
 195   0.0000       3.368449        91.6601 
 196   0.0000       3.388941        92.2178 
 197   0.0000       3.398875        92.4881 
 198   0.0000       3.398891        92.4885 
 199   0.0000       3.416932        92.9795 
 200   0.0000       3.460770        94.1723 
 201   0.0000       3.460823        94.1738 
 202   0.0000       3.478823        94.6636 
 203   0.0000       3.484271        94.8118 
 204   0.0000       3.484287        94.8123 
 205   0.0000       3.594093        97.8002 
 206   0.0000       3.607909        98.1762 
 207   0.0000       3.607916        98.1764 
 208   0.0000       3.662858        99.6714 
 209   0.0000       3.662894        99.6724 
 210   0.0000       3.665725        99.7495 
 211   0.0000       3.702712       100.7559 
 212   0.0000       3.709970       100.9534 
 213   0.0000       3.709976       100.9536 
 214   0.0000       3.724030       101.3360 
 215   0.0000       3.724073       101.3372 
 216   0.0000       3.828865       104.1887 
 217   0.0000       4.039899       109.9312 
 218   0.0000       4.039923       109.9319 
 219   0.0000       4.087537       111.2275 
 220   0.0000       4.773724       129.8996 
 221   0.0000      12.700207       345.5902 
 222   0.0000      12.700407       345.5956 
 223   0.0000      12.702146       345.6430 
 224   0.0000      12.702392       345.6497 
 225   0.0000      12.702721       345.6586 
 226   0.0000      12.708542       345.8170 
 227   0.0000      12.709127       345.8329 
 228   0.0000      12.710956       345.8827 
 229   0.0000      12.710990       345.8836 
 230   0.0000      12.742721       346.7471 
 231   0.0000      12.742897       346.7519 
 232   0.0000      12.742950       346.7533 
 233   0.0000      12.743188       346.7598 
 234   0.0000      12.743215       346.7605 
 235   0.0000      12.743344       346.7640 
 236   0.0000      12.743493       346.7681 
 237   0.0000      12.743643       346.7721 
 238   0.0000      12.743736       346.7747 
 239   0.0000      12.743990       346.7816 
 240   0.0000      12.744022       346.7825 
 241   0.0000      12.744258       346.7889 
 242   0.0000      12.744420       346.7933 
 243   0.0000      12.744432       346.7936 
 244   0.0000      12.744602       346.7983 
 245   0.0000      12.744656       346.7997 
 246   0.0000      12.744826       346.8043 
 247   0.0000      12.744928       346.8071 
 248   0.0000      12.745491       346.8224 
 249   0.0000      12.745523       346.8233 
 250   0.0000      12.745735       346.8291 
 251   0.0000      12.745945       346.8348 
 252   0.0000      12.746050       346.8377 
 253   0.0000      12.746115       346.8394 
 254   0.0000      12.746231       346.8426 
 255   0.0000      12.746251       346.8431 
 256   0.0000      12.746255       346.8432 
 257   0.0000      12.888014       350.7007 
 258   0.0000      12.888842       350.7232 
 259   0.0000      12.888865       350.7239 
 260   0.0000      12.889538       350.7422 
 261   0.0000      12.923445       351.6648 
 262   0.0000      12.923451       351.6650 
 263   0.0000      12.924320       351.6886 
 264   0.0000      12.925134       351.7108 
 265   0.0000      12.925750       351.7275 
 266   0.0000      12.925753       351.7276 
 267   0.0000      12.927398       351.7724 
 268   0.0000      12.927417       351.7729 
 269   0.0000      12.928575       351.8044 
 270   0.0000      12.928611       351.8054 
 271   0.0000      12.930560       351.8584 
 272   0.0000      12.931703       351.8895 
 273   0.0000      12.931722       351.8901 
 274   0.0000      12.932865       351.9212 
 275   0.0000      12.932898       351.9221 
 276   0.0000      12.939314       352.0966 
 277   0.0000      12.939323       352.0969 
 278   0.0000      12.955239       352.5300 
 279   0.0000      12.955310       352.5319 
 280   0.0000      12.975028       353.0685 
 281   0.0000      12.987279       353.4018 
 282   0.0000      12.993469       353.5703 
 283   0.0000      12.993491       353.5709 
 284   0.0000      13.235954       360.1686 

                 SPIN DOWN ORBITALS
  NO   OCC          E(Eh)            E(eV) 
   0   1.0000    -323.997367     -8816.4166 
   1   1.0000    -323.957822     -8815.3405 
   2   1.0000    -323.957818     -8815.3404 
   3   1.0000    -323.957813     -8815.3403 
   4   1.0000     -39.511883     -1075.1730 
   5   1.0000     -39.467476     -1073.9646 
   6   1.0000     -39.467473     -1073.9645 
   7   1.0000     -39.467451     -1073.9639 
   8   1.0000     -34.617973      -942.0029 
   9   1.0000     -34.610648      -941.8036 
  10   1.0000     -34.610647      -941.8036 
  11   1.0000     -34.568756      -940.6637 
  12   1.0000     -34.568753      -940.6636 
  13   1.0000     -34.568747      -940.6634 
  14   1.0000     -34.568712      -940.6625 
  15   1.0000     -34.568698      -940.6621 
  16   1.0000     -34.568694      -940.6620 
  17   1.0000     -34.568524      -940.6574 
  18   1.0000     -34.568521      -940.6573 
  19   1.0000     -34.568507      -940.6569 
  20   1.0000      -4.892449      -133.1303 
  21   1.0000      -4.857724      -132.1854 
  22   1.0000      -4.857431      -132.1774 
  23   1.0000      -4.857428      -132.1773 
  24   1.0000      -3.356107       -91.3243 
  25   1.0000      -3.353556       -91.2549 
  26   1.0000      -3.353550       -91.2547 
  27   1.0000      -3.324379       -90.4609 
  28   1.0000      -3.322699       -90.4152 
  29   1.0000      -3.322697       -90.4152 
  30   1.0000      -3.321387       -90.3795 
  31   1.0000      -3.321377       -90.3793 
  32   1.0000      -3.321238       -90.3755 
  33   1.0000      -3.320550       -90.3568 
  34   1.0000      -3.320485       -90.3550 
  35   1.0000      -3.320482       -90.3549 
  36   1.0000      -0.861212       -23.4348 
  37   1.0000      -0.841877       -22.9086 
  38   1.0000      -0.841843       -22.9077 
  39   1.0000      -0.824793       -22.4438 
  40   1.0000      -0.822136       -22.3715 
  41   1.0000      -0.822134       -22.3714 
  42   1.0000      -0.809863       -22.0375 
  43   1.0000      -0.809860       -22.0374 
  44   1.0000      -0.801675       -21.8147 
  45   1.0000      -0.799665       -21.7600 
  46   1.0000      -0.793451       -21.5909 
  47   1.0000      -0.793443       -21.5907 
  48   1.0000      -0.780834       -21.2476 
  49   1.0000      -0.780384       -21.2353 
  50   1.0000      -0.780381       -21.2353 
  51   1.0000      -0.778738       -21.1905 
  52   1.0000      -0.778718       -21.1900 
  53   1.0000      -0.770109       -20.9557 
  54   1.0000      -0.770099       -20.9555 
  55   1.0000      -0.759412       -20.6646 
  56   1.0000      -0.752824       -20.4854 
  57   0.0000      -0.456589       -12.4244 
  58   0.0000      -0.395143       -10.7524 
  59   0.0000      -0.395139       -10.7523 
  60   0.0000      -0.352708        -9.5977 
  61   0.0000      -0.285100        -7.7580 
  62   0.0000      -0.275478        -7.4961 
  63   0.0000      -0.275476        -7.4961 
  64   0.0000      -0.265011        -7.2113 
  65   0.0000      -0.265011        -7.2113 
  66   0.0000      -0.198896        -5.4122 
  67   0.0000      -0.188493        -5.1292 
  68   0.0000      -0.188488        -5.1290 
  69   0.0000      -0.181788        -4.9467 
  70   0.0000      -0.167450        -4.5565 
  71   0.0000      -0.167447        -4.5565 
  72   0.0000      -0.154230        -4.1968 
  73   0.0000      -0.145898        -3.9701 
  74   0.0000      -0.124009        -3.3745 
  75   0.0000      -0.121300        -3.3007 
  76   0.0000      -0.121297        -3.3007 
  77   0.0000      -0.112456        -3.0601 
  78   0.0000      -0.112456        -3.0601 
  79   0.0000      -0.100985        -2.7479 
  80   0.0000      -0.097922        -2.6646 
  81   0.0000      -0.097918        -2.6645 
  82   0.0000      -0.061905        -1.6845 
  83   0.0000      -0.048889        -1.3303 
  84   0.0000      -0.048874        -1.3299 
  85   0.0000      -0.048487        -1.3194 
  86   0.0000      -0.037552        -1.0218 
  87   0.0000      -0.037543        -1.0216 
  88   0.0000      -0.032660        -0.8887 
  89   0.0000      -0.032028        -0.8715 
  90   0.0000      -0.032026        -0.8715 
  91   0.0000       0.001286         0.0350 
  92   0.0000       0.001287         0.0350 
  93   0.0000       0.012104         0.3294 
  94   0.0000       0.012105         0.3294 
  95   0.0000       0.019525         0.5313 
  96   0.0000       0.023083         0.6281 
  97   0.0000       0.042967         1.1692 
  98   0.0000       0.068991         1.8773 
  99   0.0000       0.068993         1.8774 
 100   0.0000       0.072031         1.9601 
 101   0.0000       0.084500         2.2994 
 102   0.0000       0.084502         2.2994 
 103   0.0000       0.113919         3.0999 
 104   0.0000       0.113922         3.1000 
 105   0.0000       0.146265         3.9801 
 106   0.0000       0.160815         4.3760 
 107   0.0000       0.160820         4.3761 
 108   0.0000       0.169272         4.6061 
 109   0.0000       0.191253         5.2043 
 110   0.0000       0.191259         5.2044 
 111   0.0000       0.208751         5.6804 
 112   0.0000       0.255478         6.9519 
 113   0.0000       0.365206         9.9378 
 114   0.0000       0.425896        11.5892 
 115   0.0000       0.425898        11.5893 
 116   0.0000       0.427293        11.6272 
 117   0.0000       0.427299        11.6274 
 118   0.0000       0.485582        13.2134 
 119   0.0000       0.485583        13.2134 
 120   0.0000       0.488393        13.2899 
 121   0.0000       0.498308        13.5597 
 122   0.0000       0.516003        14.0412 
 123   0.0000       0.525960        14.3121 
 124   0.0000       0.525963        14.3122 
 125   0.0000       0.578912        15.7530 
 126   0.0000       0.578914        15.7531 
 127   0.0000       0.600116        16.3300 
 128   0.0000       0.611161        16.6305 
 129   0.0000       0.611163        16.6306 
 130   0.0000       0.663856        18.0644 
 131   0.0000       0.663856        18.0644 
 132   0.0000       0.676453        18.4072 
 133   0.0000       0.706441        19.2232 
 134   0.0000       0.707943        19.2641 
 135   0.0000       0.707943        19.2641 
 136   0.0000       0.735680        20.0189 
 137   0.0000       0.735682        20.0189 
 138   0.0000       0.750631        20.4257 
 139   0.0000       0.785687        21.3796 
 140   0.0000       0.785700        21.3800 
 141   0.0000       0.941204        25.6115 
 142   0.0000       0.941205        25.6115 
 143   0.0000       0.942783        25.6544 
 144   0.0000       0.959438        26.1076 
 145   0.0000       1.022332        27.8191 
 146   0.0000       1.022338        27.8192 
 147   0.0000       1.154222        31.4080 
 148   0.0000       2.455466        66.8166 
 149   0.0000       2.530104        68.8476 
 150   0.0000       2.688419        73.1556 
 151   0.0000       2.688442        73.1562 
 152   0.0000       2.757349        75.0313 
 153   0.0000       2.757368        75.0318 
 154   0.0000       2.766719        75.2863 
 155   0.0000       2.783877        75.7532 
 156   0.0000       2.783894        75.7536 
 157   0.0000       2.808473        76.4224 
 158   0.0000       2.887203        78.5648 
 159   0.0000       2.887207        78.5649 
 160   0.0000       2.937267        79.9271 
 161   0.0000       2.937296        79.9279 
 162   0.0000       2.941093        80.0312 
 163   0.0000       2.978880        81.0595 
 164   0.0000       2.999127        81.6104 
 165   0.0000       2.999127        81.6104 
 166   0.0000       3.036402        82.6247 
 167   0.0000       3.112333        84.6909 
 168   0.0000       3.124102        85.0111 
 169   0.0000       3.124103        85.0112 
 170   0.0000       3.130177        85.1764 
 171   0.0000       3.133850        85.2764 
 172   0.0000       3.137961        85.3883 
 173   0.0000       3.142185        85.5032 
 174   0.0000       3.142243        85.5048 
 175   0.0000       3.145420        85.5912 
 176   0.0000       3.145468        85.5925 
 177   0.0000       3.145952        85.6057 
 178   0.0000       3.148814        85.6836 
 179   0.0000       3.149922        85.7137 
 180   0.0000       3.149933        85.7140 
 181   0.0000       3.150600        85.7322 
 182   0.0000       3.150606        85.7323 
 183   0.0000       3.166500        86.1648 
 184   0.0000       3.166505        86.1650 
 185   0.0000       3.178031        86.4786 
 186   0.0000       3.178040        86.4789 
 187   0.0000       3.184615        86.6578 
 188   0.0000       3.196135        86.9712 
 189   0.0000       3.196145        86.9715 
 190   0.0000       3.204436        87.1971 
 191   0.0000       3.209522        87.3355 
 192   0.0000       3.331462        90.6537 
 193   0.0000       3.331474        90.6540 
 194   0.0000       3.399032        92.4924 
 195   0.0000       3.403077        92.6024 
 196   0.0000       3.403091        92.6028 
 197   0.0000       3.419580        93.0515 
 198   0.0000       3.460757        94.1720 
 199   0.0000       3.460802        94.1732 
 200   0.0000       3.478934        94.6666 
 201   0.0000       3.483074        94.7793 
 202   0.0000       3.483092        94.7798 
 203   0.0000       3.515052        95.6494 
 204   0.0000       3.515064        95.6498 
 205   0.0000       3.611648        98.2779 
 206   0.0000       3.617011        98.4239 
 207   0.0000       3.617035        98.4245 
 208   0.0000       3.663978        99.7019 
 209   0.0000       3.664014        99.7029 
 210   0.0000       3.675774       100.0229 
 211   0.0000       3.702971       100.7630 
 212   0.0000       3.715772       101.1113 
 213   0.0000       3.715796       101.1119 
 214   0.0000       3.823388       104.0397 
 215   0.0000       3.823406       104.0402 
 216   0.0000       3.950884       107.5090 
 217   0.0000       4.041723       109.9809 
 218   0.0000       4.041743       109.9814 
 219   0.0000       4.108107       111.7873 
 220   0.0000       4.886805       132.9767 
 221   0.0000      12.710864       345.8802 
 222   0.0000      12.710917       345.8816 
 223   0.0000      12.711834       345.9066 
 224   0.0000      12.712412       345.9223 
 225   0.0000      12.718609       346.0909 
 226   0.0000      12.718667       346.0925 
 227   0.0000      12.720157       346.1331 
 228   0.0000      12.720523       346.1430 
 229   0.0000      12.727636       346.3366 
 230   0.0000      12.743074       346.7567 
 231   0.0000      12.743160       346.7590 
 232   0.0000      12.743254       346.7616 
 233   0.0000      12.743396       346.7654 
 234   0.0000      12.743483       346.7678 
 235   0.0000      12.743526       346.7690 
 236   0.0000      12.743608       346.7712 
 237   0.0000      12.743864       346.7782 
 238   0.0000      12.743944       346.7804 
 239   0.0000      12.744177       346.7867 
 240   0.0000      12.744204       346.7874 
 241   0.0000      12.744486       346.7951 
 242   0.0000      12.744657       346.7997 
 243   0.0000      12.744711       346.8012 
 244   0.0000      12.744798       346.8036 
 245   0.0000      12.744867       346.8055 
 246   0.0000      12.745028       346.8098 
 247   0.0000      12.745095       346.8117 
 248   0.0000      12.745650       346.8268 
 249   0.0000      12.745881       346.8330 
 250   0.0000      12.746031       346.8371 
 251   0.0000      12.746109       346.8393 
 252   0.0000      12.746153       346.8405 
 253   0.0000      12.746248       346.8431 
 254   0.0000      12.746330       346.8453 
 255   0.0000      12.746361       346.8461 
 256   0.0000      12.746392       346.8470 
 257   0.0000      12.894966       350.8899 
 258   0.0000      12.894988       350.8905 
 259   0.0000      12.895138       350.8945 
 260   0.0000      12.896626       350.9350 
 261   0.0000      12.923926       351.6779 
 262   0.0000      12.923928       351.6780 
 263   0.0000      12.924441       351.6919 
 264   0.0000      12.925661       351.7251 
 265   0.0000      12.926023       351.7350 
 266   0.0000      12.926024       351.7350 
 267   0.0000      12.927634       351.7788 
 268   0.0000      12.927657       351.7794 
 269   0.0000      12.928587       351.8047 
 270   0.0000      12.929498       351.8295 
 271   0.0000      12.931190       351.8756 
 272   0.0000      12.932699       351.9166 
 273   0.0000      12.932725       351.9173 
 274   0.0000      12.935199       351.9847 
 275   0.0000      12.935213       351.9850 
 276   0.0000      12.943001       352.1970 
 277   0.0000      12.943016       352.1974 
 278   0.0000      12.972242       352.9927 
 279   0.0000      12.972331       352.9951 
 280   0.0000      12.975906       353.0924 
 281   0.0000      12.988044       353.4226 
 282   0.0000      12.996889       353.6633 
 283   0.0000      12.996923       353.6642 
 284   0.0000      13.270903       361.1196 

                    ********************************
                    * MULLIKEN POPULATION ANALYSIS *
                    ********************************

--------------------------------------------
MULLIKEN ATOMIC CHARGES AND SPIN POPULATIONS
--------------------------------------------
   0 Cu:    0.549333    0.005015
   1 Cu:    0.549368    0.005010
   2 Cu:    0.549385    0.005012
   3 Cu:   -0.159359    0.593089
   4 H :    0.511272    0.391874
Sum of atomic charges         :    2.0000000
Sum of atomic spin populations:    1.0000000

-----------------------------------------------------
MULLIKEN REDUCED ORBITAL CHARGES AND SPIN POPULATIONS
-----------------------------------------------------
CHARGE
  0 Cus       :     6.417327  s :     6.417327
      pz      :     4.018636  p :    12.146869
      px      :     4.014926
      py      :     4.113307
      dz2     :     1.971544  d :     9.886303
      dxz     :     1.993565
      dyz     :     1.976706
      dx2y2   :     1.987578
      dxy     :     1.956910
      f0      :     0.000025  f :     0.000167
      f+1     :     0.000011
      f-1     :     0.000020
      f+2     :     0.000017
      f-2     :     0.000028
      f+3     :     0.000026
      f-3     :     0.000040
      g0      :     0.000000  g :     0.000001
      g+1     :     0.000000
      g-1     :     0.000000
      g+2     :     0.000000
      g-2     :     0.000000
      g+3     :     0.000000
      g-3     :     0.000000
      g+4     :     0.000000
      g-4     :     0.000000
  1 Cus       :     6.417305  s :     6.417305
      pz      :     4.018637  p :    12.146849
      px      :     4.088692
      py      :     4.039520
      dz2     :     1.971540  d :     9.886310
      dxz     :     1.980918
      dyz     :     1.989350
      dx2y2   :     1.964599
      dxy     :     1.979903
      f0      :     0.000025  f :     0.000167
      f+1     :     0.000018
      f-1     :     0.000013
      f+2     :     0.000025
      f-2     :     0.000020
      f+3     :     0.000026
      f-3     :     0.000040
      g0      :     0.000000  g :     0.000001
      g+1     :     0.000000
      g-1     :     0.000000
      g+2     :     0.000000
      g-2     :     0.000000
      g+3     :     0.000000
      g-3     :     0.000000
      g+4     :     0.000000
      g-4     :     0.000000
  2 Cus       :     6.417293  s :     6.417293
      pz      :     4.018637  p :    12.146845
      px      :     4.088689
      py      :     4.039519
      dz2     :     1.971540  d :     9.886310
      dxz     :     1.980918
      dyz     :     1.989350
      dx2y2   :     1.964599
      dxy     :     1.979902
      f0      :     0.000025  f :     0.000167
      f+1     :     0.000018
      f-1     :     0.000013
      f+2     :     0.000025
      f-2     :     0.000020
      f+3     :     0.000026
      f-3     :     0.000040
      g0      :     0.000000  g :     0.000001
      g+1     :     0.000000
      g-1     :     0.000000
      g+2     :     0.000000
      g-2     :     0.000000
      g+3     :     0.000000
      g-3     :     0.000000
      g+4     :     0.000000
      g-4     :     0.000000
  3 Cus       :     7.381227  s :     7.381227
      pz      :     3.989688  p :    12.017606
      px      :     4.013960
      py      :     4.013957
      dz2     :     1.836611  d :     9.760048
      dxz     :     1.966690
      dyz     :     1.966697
      dx2y2   :     1.995025
      dxy     :     1.995025
      f0      :     0.000345  f :     0.000473
      f+1     :     0.000032
      f-1     :     0.000032
      f+2     :     0.000027
      f-2     :     0.000027
      f+3     :     0.000005
      f-3     :     0.000005
      g0      :     0.000003  g :     0.000006
      g+1     :     0.000001
      g-1     :     0.000001
      g+2     :     0.000000
      g-2     :     0.000000
      g+3     :     0.000000
      g-3     :     0.000000
      g+4     :     0.000000
      g-4     :     0.000000
  4 H s       :     0.548605  s :     0.548605
      pz      :    -0.068945  p :    -0.062341
      px      :     0.003302
      py      :     0.003302
      dz2     :     0.001345  d :     0.002464
      dxz     :     0.000540
      dyz     :     0.000540
      dx2y2   :     0.000019
      dxy     :     0.000019

SPIN
  0 Cus       :     0.005377  s :     0.005377
      pz      :    -0.009659  p :    -0.003663
      px      :     0.000118
      py      :     0.005878
      dz2     :     0.004887  d :     0.003300
      dxz     :     0.000094
      dyz     :    -0.002696
      dx2y2   :     0.001451
      dxy     :    -0.000436
      f0      :     0.000001  f :     0.000001
      f+1     :    -0.000000
      f-1     :    -0.000001
      f+2     :     0.000001
      f-2     :    -0.000000
      f+3     :    -0.000000
      f-3     :     0.000000
      g0      :     0.000000  g :     0.000000
      g+1     :    -0.000000
      g-1     :    -0.000000
      g+2     :     0.000000
      g-2     :     0.000000
      g+3     :    -0.000000
      g-3     :     0.000000
      g+4     :     0.000000
      g-4     :     0.000000
  1 Cus       :     0.005371  s :     0.005371
      pz      :    -0.009658  p :    -0.003665
      px      :     0.004435
      py      :     0.001558
      dz2     :     0.004888  d :     0.003303
      dxz     :    -0.001998
      dyz     :    -0.000603
      dx2y2   :     0.000036
      dxy     :     0.000980
      f0      :     0.000001  f :     0.000001
      f+1     :    -0.000000
      f-1     :    -0.000000
      f+2     :     0.000000
      f-2     :     0.000001
      f+3     :    -0.000000
      f-3     :     0.000000
      g0      :     0.000000  g :     0.000000
      g+1     :    -0.000000
      g-1     :    -0.000000
      g+2     :     0.000000
      g-2     :     0.000000
      g+3     :    -0.000000
      g-3     :     0.000000
      g+4     :     0.000000
      g-4     :     0.000000
  2 Cus       :     0.005373  s :     0.005373
      pz      :    -0.009658  p :    -0.003665
      px      :     0.004435
      py      :     0.001558
      dz2     :     0.004888  d :     0.003303
      dxz     :    -0.001998
      dyz     :    -0.000603
      dx2y2   :     0.000036
      dxy     :     0.000980
      f0      :     0.000001  f :     0.000001
      f+1     :    -0.000000
      f-1     :    -0.000000
      f+2     :     0.000000
      f-2     :     0.000001
      f+3     :    -0.000000
      f-3     :     0.000000
      g0      :     0.000000  g :     0.000000
      g+1     :    -0.000000
      g-1     :    -0.000000
      g+2     :     0.000000
      g-2     :     0.000000
      g+3     :    -0.000000
      g-3     :     0.000000
      g+4     :     0.000000
      g-4     :     0.000000
  3 Cus       :     0.318348  s :     0.318348
      pz      :     0.045417  p :     0.042577
      px      :    -0.001420
      py      :    -0.001420
      dz2     :     0.232566  d :     0.232074
      dxz     :     0.000332
      dyz     :     0.000330
      dx2y2   :    -0.000577
      dxy     :    -0.000577
      f0      :     0.000092  f :     0.000088
      f+1     :    -0.000001
      f-1     :    -0.000001
      f+2     :    -0.000001
      f-2     :    -0.000001
      f+3     :     0.000000
      f-3     :    -0.000000
      g0      :     0.000002  g :     0.000003
      g+1     :     0.000001
      g-1     :     0.000001
      g+2     :    -0.000000
      g-2     :    -0.000000
      g+3     :    -0.000000
      g-3     :    -0.000000
      g+4     :     0.000000
      g-4     :     0.000000
  4 H s       :     0.392664  s :     0.392664
      pz      :    -0.002686  p :    -0.000900
      px      :     0.000893
      py      :     0.000893
      dz2     :    -0.000107  d :     0.000109
      dxz     :     0.000098
      dyz     :     0.000098
      dx2y2   :     0.000011
      dxy     :     0.000011


                     *******************************
                     * LOEWDIN POPULATION ANALYSIS *
                     *******************************

-------------------------------------------
LOEWDIN ATOMIC CHARGES AND SPIN POPULATIONS
-------------------------------------------
   0 Cu:    0.493664    0.034567
   1 Cu:    0.493657    0.034568
   2 Cu:    0.493657    0.034568
   3 Cu:    0.416275    0.499303
   4 H :    0.102748    0.396994

----------------------------------------------------
LOEWDIN REDUCED ORBITAL CHARGES AND SPIN POPULATIONS
----------------------------------------------------
CHARGE
  0 Cus       :     6.274881  s :     6.274881
      pz      :     4.053521  p :    12.260786
      px      :     4.025152
      py      :     4.182113
      dz2     :     1.998366  d :     9.970191
      dxz     :     1.994306
      dyz     :     1.994445
      dx2y2   :     2.001428
      dxy     :     1.981646
      f0      :     0.000049  f :     0.000478
      f+1     :     0.000031
      f-1     :     0.000103
      f+2     :     0.000041
      f-2     :     0.000055
      f+3     :     0.000121
      f-3     :     0.000078
      g0      :     0.000000  g :     0.000002
      g+1     :     0.000000
      g-1     :     0.000000
      g+2     :     0.000000
      g-2     :     0.000000
      g+3     :     0.000000
      g-3     :     0.000000
      g+4     :     0.000000
      g-4     :     0.000000
  1 Cus       :     6.274875  s :     6.274875
      pz      :     4.053521  p :    12.260785
      px      :     4.142869
      py      :     4.064395
      dz2     :     1.998364  d :     9.970204
      dxz     :     1.994409
      dyz     :     1.994340
      dx2y2   :     1.986615
      dxy     :     1.996477
      f0      :     0.000049  f :     0.000478
      f+1     :     0.000085
      f-1     :     0.000049
      f+2     :     0.000051
      f-2     :     0.000044
      f+3     :     0.000120
      f-3     :     0.000078
      g0      :     0.000000  g :     0.000002
      g+1     :     0.000000
      g-1     :     0.000000
      g+2     :     0.000000
      g-2     :     0.000000
      g+3     :     0.000000
      g-3     :     0.000000
      g+4     :     0.000000
      g-4     :     0.000000
  2 Cus       :     6.274875  s :     6.274875
      pz      :     4.053521  p :    12.260785
      px      :     4.142869
      py      :     4.064395
      dz2     :     1.998364  d :     9.970204
      dxz     :     1.994409
      dyz     :     1.994340
      dx2y2   :     1.986615
      dxy     :     1.996477
      f0      :     0.000049  f :     0.000478
      f+1     :     0.000085
      f-1     :     0.000049
      f+2     :     0.000051
      f-2     :     0.000044
      f+3     :     0.000120
      f-3     :     0.000078
      g0      :     0.000000  g :     0.000002
      g+1     :     0.000000
      g-1     :     0.000000
      g+2     :     0.000000
      g-2     :     0.000000
      g+3     :     0.000000
      g-3     :     0.000000
      g+4     :     0.000000
      g-4     :     0.000000
  3 Cus       :     6.342018  s :     6.342018
      pz      :     4.454382  p :    12.499465
      px      :     4.022543
      py      :     4.022540
      dz2     :     1.778391  d :     9.741308
      dxz     :     1.983135
      dyz     :     1.983147
      dx2y2   :     1.998317
      dxy     :     1.998318
      f0      :     0.000584  f :     0.000929
      f+1     :     0.000102
      f-1     :     0.000102
      f+2     :     0.000060
      f-2     :     0.000060
      f+3     :     0.000010
      f-3     :     0.000010
      g0      :     0.000003  g :     0.000005
      g+1     :     0.000001
      g-1     :     0.000001
      g+2     :     0.000001
      g-2     :     0.000001
      g+3     :     0.000000
      g-3     :     0.000000
      g+4     :     0.000000
      g-4     :     0.000000
  4 H s       :     0.769953  s :     0.769953
      pz      :     0.083929  p :     0.112315
      px      :     0.014194
      py      :     0.014192
      dz2     :     0.007183  d :     0.014985
      dxz     :     0.003702
      dyz     :     0.003702
      dx2y2   :     0.000198
      dxy     :     0.000198

SPIN
  0 Cus       :     0.004125  s :     0.004125
      pz      :     0.010310  p :     0.014891
      px      :     0.000006
      py      :     0.004574
      dz2     :     0.012827  d :     0.015551
      dxz     :    -0.000066
      dyz     :     0.001448
      dx2y2   :     0.001737
      dxy     :    -0.000396
      f0      :     0.000003  f :    -0.000000
      f+1     :    -0.000000
      f-1     :    -0.000003
      f+2     :     0.000000
      f-2     :    -0.000000
      f+3     :    -0.000000
      f-3     :     0.000000
      g0      :     0.000000  g :     0.000000
      g+1     :    -0.000000
      g-1     :    -0.000000
      g+2     :     0.000000
      g-2     :    -0.000000
      g+3     :    -0.000000
      g-3     :     0.000000
      g+4     :     0.000000
      g-4     :     0.000000
  1 Cus       :     0.004123  s :     0.004123
      pz      :     0.010310  p :     0.014891
      px      :     0.003432
      py      :     0.001149
      dz2     :     0.012827  d :     0.015554
      dxz     :     0.001070
      dyz     :     0.000313
      dx2y2   :     0.000138
      dxy     :     0.001206
      f0      :     0.000003  f :    -0.000000
      f+1     :    -0.000002
      f-1     :    -0.000001
      f+2     :    -0.000000
      f-2     :    -0.000000
      f+3     :    -0.000000
      f-3     :     0.000000
      g0      :     0.000000  g :     0.000000
      g+1     :    -0.000000
      g-1     :    -0.000000
      g+2     :     0.000000
      g-2     :     0.000000
      g+3     :    -0.000000
      g-3     :     0.000000
      g+4     :     0.000000
      g-4     :     0.000000
  2 Cus       :     0.004123  s :     0.004123
      pz      :     0.010310  p :     0.014891
      px      :     0.003432
      py      :     0.001149
      dz2     :     0.012827  d :     0.015554
      dxz     :     0.001070
      dyz     :     0.000313
      dx2y2   :     0.000138
      dxy     :     0.001206
      f0      :     0.000003  f :    -0.000000
      f+1     :    -0.000002
      f-1     :    -0.000001
      f+2     :    -0.000000
      f-2     :    -0.000000
      f+3     :    -0.000000
      f-3     :     0.000000
      g0      :     0.000000  g :     0.000000
      g+1     :    -0.000000
      g-1     :    -0.000000
      g+2     :     0.000000
      g-2     :     0.000000
      g+3     :    -0.000000
      g-3     :     0.000000
      g+4     :     0.000000
      g-4     :     0.000000
  3 Cus       :     0.096607  s :     0.096607
      pz      :     0.156086  p :     0.154781
      px      :    -0.000653
      py      :    -0.000652
      dz2     :     0.245195  d :     0.247574
      dxz     :     0.001086
      dyz     :     0.001085
      dx2y2   :     0.000104
      dxy     :     0.000104
      f0      :     0.000341  f :     0.000338
      f+1     :    -0.000001
      f-1     :    -0.000001
      f+2     :    -0.000001
      f-2     :    -0.000001
      f+3     :     0.000000
      f-3     :     0.000000
      g0      :     0.000002  g :     0.000002
      g+1     :     0.000000
      g-1     :     0.000000
      g+2     :    -0.000000
      g-2     :    -0.000000
      g+3     :     0.000000
      g-3     :     0.000000
      g+4     :    -0.000000
      g-4     :    -0.000000
  4 H s       :     0.392906  s :     0.392906
      pz      :     0.002739  p :     0.003709
      px      :     0.000485
      py      :     0.000485
      dz2     :     0.000163  d :     0.000379
      dxz     :     0.000105
      dyz     :     0.000105
      dx2y2   :     0.000003
      dxy     :     0.000003


                      *****************************
                      * MAYER POPULATION ANALYSIS *
                      *****************************

  NA   - Mulliken gross atomic population
  ZA   - Total nuclear charge
  QA   - Mulliken gross atomic charge
  VA   - Mayer's total valence
  BVA  - Mayer's bonded valence
  FA   - Mayer's free valence

  ATOM       NA         ZA         QA         VA         BVA        FA
  0 Cu    28.4507    29.0000     0.5493     0.9894     0.9886     0.0007
  1 Cu    28.4506    29.0000     0.5494     0.9893     0.9885     0.0007
  2 Cu    28.4506    29.0000     0.5494     0.9893     0.9885     0.0007
  3 Cu    29.1594    29.0000    -0.1594     1.3277     0.8848     0.4429
  4 H      0.4887     1.0000     0.5113     0.4782     0.3238     0.1544

  Mayer bond orders larger than 0.100000
B(  0-Cu,  1-Cu) :   0.3353 B(  0-Cu,  2-Cu) :   0.3352 B(  0-Cu,  3-Cu) :   0.2526 
B(  1-Cu,  2-Cu) :   0.3352 B(  1-Cu,  3-Cu) :   0.2526 B(  2-Cu,  3-Cu) :   0.2526 
B(  3-Cu,  4-H ) :   0.1271 

-------
TIMINGS
-------

Total SCF time: 0 days 0 hours 0 min 35 sec 

Total time                  ....      35.185 sec
Sum of individual times     ....      34.797 sec  ( 98.9%)

Fock matrix formation       ....      33.640 sec  ( 95.6%)
  XC integration            ....       2.300 sec  (  6.8% of F)
    Basis function eval.    ....       0.106 sec  (  4.6% of XC)
    Density eval.           ....       0.363 sec  ( 15.8% of XC)
    XC-Functional eval.     ....       0.051 sec  (  2.2% of XC)
    XC-Potential eval.      ....       0.734 sec  ( 31.9% of XC)
Diagonalization             ....       0.445 sec  (  1.3%)
Density matrix formation    ....       0.038 sec  (  0.1%)
Population analysis         ....       0.024 sec  (  0.1%)
Initial guess               ....       0.123 sec  (  0.3%)
Orbital Transformation      ....       0.000 sec  (  0.0%)
Orbital Orthonormalization  ....       0.000 sec  (  0.0%)
DIIS solution               ....       0.169 sec  (  0.5%)
Grid generation             ....       0.358 sec  (  1.0%)

-------------------------   --------------------
FINAL SINGLE POINT ENERGY     -6561.660364932689
-------------------------   --------------------


                            ***************************************
                            *     ORCA property calculations      *
                            ***************************************

                                    ---------------------
                                    Active property flags
                                    ---------------------
   (+) Dipole Moment


------------------------------------------------------------------------------
                       ORCA ELECTRIC PROPERTIES CALCULATION
------------------------------------------------------------------------------

Dipole Moment Calculation                       ... on
Quadrupole Moment Calculation                   ... off
Polarizability Calculation                      ... off
GBWName                                         ... Cu04C2_H_A.gbw
Electron density file                           ... Cu04C2_H_A.scfp
The origin for moment calculation is the CENTER OF MASS  = ( 0.000000,  0.000000 -0.026728)

-------------
DIPOLE MOMENT
-------------
                                X             Y             Z
Electronic contribution:      0.00000       0.00005      -3.39941
Nuclear contribution   :      0.00000       0.00000       3.12710
                        -----------------------------------------
Total Dipole Moment    :      0.00000       0.00005      -0.27231
                        -----------------------------------------
Magnitude (a.u.)       :      0.27231
Magnitude (Debye)      :      0.69216



--------------------
Rotational spectrum 
--------------------
 
Rotational constants in cm-1:     0.044993     0.041927     0.041927 
Rotational constants in MHz :  1348.855174  1256.945404  1256.945373 

 Dipole components along the rotational axes: 
x,y,z [a.u.] :    -0.272313     0.000054     0.000000 
x,y,z [Debye]:    -0.692165     0.000138     0.000000 

 

Timings for individual modules:

Sum of individual times         ...       36.485 sec (=   0.608 min)
GTO integral calculation        ...        0.835 sec (=   0.014 min)   2.3 %
SCF iterations                  ...       35.651 sec (=   0.594 min)  97.7 %
                             ****ORCA TERMINATED NORMALLY****
TOTAL RUN TIME: 0 days 0 hours 0 minutes 36 seconds 937 msec
