
                                 *****************
                                 * O   R   C   A *
                                 *****************

           --- An Ab Initio, DFT and Semiempirical electronic structure package ---

                  #######################################################
                  #                        -***-                        #
                  #          Department of theory and spectroscopy      #
                  #               Directorship: Frank Neese             #
                  #        Max Planck Institute fuer Kohlenforschung    #
                  #                Kaiser Wilhelm Platz 1               #
                  #                 D-45470 Muelheim/Ruhr               #
                  #                      Germany                        #
                  #                                                     #
                  #                  All rights reserved                #
                  #                        -***-                        #
                  #######################################################


                         Program Version 4.2.0 -  RELEASE  -


 With contributions from (in alphabetic order):
   Daniel Aravena         : Magnetic Suceptibility
   Michael Atanasov       : Ab Initio Ligand Field Theory (pilot matlab implementation)
   Alexander A. Auer      : GIAO ZORA, VPT2
   Ute Becker             : Parallelization
   Giovanni Bistoni       : ED, misc. LED, open-shell LED, HFLED
   Martin Brehm           : Molecular dynamics
   Dmytro Bykov           : SCF Hessian
   Vijay G. Chilkuri      : MRCI spin determinant printing, contributions to CSF-ICE
   Dipayan Datta          : RHF DLPNO-CCSD density
   Achintya Kumar Dutta   : EOM-CC, STEOM-CC
   Dmitry Ganyushin       : Spin-Orbit,Spin-Spin,Magnetic field MRCI
   Miquel Garcia          : C-PCM Hessian, Gaussian charge scheme
   Yang Guo               : DLPNO-NEVPT2, CIM, IAO-localization
   Andreas Hansen         : Spin unrestricted coupled pair/coupled cluster methods
   Benjamin Helmich-Paris : CASSCF linear response (MC-RPA)
   Lee Huntington         : MR-EOM, pCC
   Robert Izsak           : Overlap fitted RIJCOSX, COSX-SCS-MP3, EOM
   Christian Kollmar      : KDIIS, OOCD, Brueckner-CCSD(T), CCSD density
   Simone Kossmann        : Meta GGA functionals, TD-DFT gradient, OOMP2, MP2 Hessian
   Martin Krupicka        : AUTO-CI
   Lucas Lang             : DCDCAS
   Dagmar Lenk            : GEPOL surface, SMD
   Dimitrios Liakos       : Extrapolation schemes; Compound Job, initial MDCI parallelization
   Dimitrios Manganas     : Further ROCIS development; embedding schemes
   Dimitrios Pantazis     : SARC Basis sets
   Taras Petrenko         : DFT Hessian,TD-DFT gradient, ASA, ECA, R-Raman, ABS, FL, XAS/XES, NRVS
   Peter Pinski           : DLPNO-MP2, DLPNO-MP2 Gradient
   Christoph Reimann      : Effective Core Potentials
   Marius Retegan         : Local ZFS, SOC
   Christoph Riplinger    : Optimizer, TS searches, QM/MM, DLPNO-CCSD(T), (RO)-DLPNO pert. Triples
   Tobias Risthaus        : Range-separated hybrids, TD-DFT gradient, RPA, STAB
   Michael Roemelt        : Original ROCIS implementation
   Masaaki Saitow         : Open-shell DLPNO-CCSD energy and density
   Barbara Sandhoefer     : DKH picture change effects
   Avijit Sen             : IP-ROCIS
   Kantharuban Sivalingam : CASSCF convergence, NEVPT2, FIC-MRCI
   Bernardo de Souza      : ESD, SOC TD-DFT
   Georgi Stoychev        : AutoAux, RI-MP2 NMR
   Willem Van den Heuvel  : Paramagnetic NMR
   Boris Wezisla          : Elementary symmetry handling
   Frank Wennmohs         : Technical directorship


 We gratefully acknowledge several colleagues who have allowed us to
 interface, adapt or use parts of their codes:
   Stefan Grimme, W. Hujo, H. Kruse,             : VdW corrections, initial TS optimization,
                  C. Bannwarth                     DFT functionals, gCP, sTDA/sTD-DF
   Ed Valeev, F. Pavosevic, A. Kumar             : LibInt (2-el integral package), F12 methods
   Garnet Chan, S. Sharma, J. Yang, R. Olivares  : DMRG
   Ulf Ekstrom                                   : XCFun DFT Library
   Mihaly Kallay                                 : mrcc  (arbitrary order and MRCC methods)
   Andreas Klamt, Michael Diedenhofen            : otool_cosmo (COSMO solvation model)
   Jiri Pittner, Ondrej Demel                    : Mk-CCSD
   Frank Weinhold                                : gennbo (NPA and NBO analysis)
   Christopher J. Cramer and Donald G. Truhlar   : smd solvation model
   Lars Goerigk                                  : TD-DFT with DH, B97 family of functionals
   V. Asgeirsson, H. Jonsson                     : NEB implementation
   FAccTs GmbH                                   : IRC, NEB, NEB-TS, Multilevel, MM, QM/MM, CI optimization
   S Lehtola, MJT Oliveira, MAL Marques          : LibXC Library


 Your calculation uses the libint2 library for the computation of 2-el integrals
 For citations please refer to: http://libint.valeyev.net

 Your ORCA version has been built with support for libXC version: 4.2.3
 For citations please refer to: https://tddft.org/programs/libxc/

 This ORCA versions uses:
   CBLAS   interface :  Fast vector & matrix operations
   LAPACKE interface :  Fast linear algebra routines
   SCALAPACK package :  Parallel linear algebra routines


Your calculation utilizes the DFT-NL dispersion correction.
Cite in your paper:
Vydrov, O. A.; Van Voorhis, T. J. Chem. Phys. 2010, 133, 244103
Hujo, W.; Grimme, S. J. Chem. Theory Comput. 2011, 7, 3866 
   

----- Orbital basis set information -----
Your calculation utilizes the basis: def2-TZVPPD
   F. Weigend and R. Ahlrichs, Phys. Chem. Chem. Phys. 7, 3297 (2005).
   D. Rappoport and F. Furche, J. Chem. Phys. 133 134105 (2010).

----- AuxJK basis set information -----
Your calculation utilizes the auxiliary basis: def2/JK
   H-Ba, Hf-Rn: F. Weigend, J. Comput. Chem. 29, 167 (2008).

================================================================================
                                        WARNINGS
                       Please study these warnings very carefully!
================================================================================


WARNING: your system is open-shell and RHF/RKS was chosen
  ===> : WILL SWITCH to UHF/UKS


INFO   : the flag for use of LIBINT has been found!

================================================================================
                                       INPUT FILE
================================================================================
NAME = Cu04C2_H_F.in
|  1> #
|  2> # Cu04C2_H_F wB97M-V/Def2-TZVPPD
|  3> #
|  4> ! wb97m-v def2-tzvppd def2/jk grid4 nofinalgrid
|  5> 
|  6> *xyz 2 2
|  7> Cu      -0.000000    1.387730   -0.507533 
|  8> Cu       1.201809   -0.693865   -0.507533 
|  9> Cu      -1.201809   -0.693865   -0.507533 
| 10> Cu       0.000000    0.000000    1.576640 
| 11> H        0.000000    0.000000   -1.567185 
| 12> *
| 13> 
| 14> %maxcore 5000
| 15> 
| 16> %pal
| 17> nprocs = 24
| 18> end
| 19> 
| 20> 
| 21>                          ****END OF INPUT****
================================================================================

                       ****************************
                       * Single Point Calculation *
                       ****************************

---------------------------------
CARTESIAN COORDINATES (ANGSTROEM)
---------------------------------
  Cu    -0.000000    1.387730   -0.507533
  Cu     1.201809   -0.693865   -0.507533
  Cu    -1.201809   -0.693865   -0.507533
  Cu     0.000000    0.000000    1.576640
  H      0.000000    0.000000   -1.567185

----------------------------
CARTESIAN COORDINATES (A.U.)
----------------------------
  NO LB      ZA    FRAG     MASS         X           Y           Z
   0 Cu   29.0000    0    63.550   -0.000000    2.622430   -0.959098
   1 Cu   29.0000    0    63.550    2.271090   -1.311215   -0.959098
   2 Cu   29.0000    0    63.550   -2.271090   -1.311215   -0.959098
   3 Cu   29.0000    0    63.550    0.000000    0.000000    2.979418
   4 H     1.0000    0     1.008    0.000000    0.000000   -2.961550

--------------------------------
INTERNAL COORDINATES (ANGSTROEM)
--------------------------------
 Cu     0   0   0     0.000000000000     0.00000000     0.00000000
 Cu     1   0   0     2.403618650391     0.00000000     0.00000000
 Cu     2   1   0     2.403618000000    60.00000895     0.00000000
 Cu     2   1   3     2.503911061646    61.31637692   288.41368009
 H      2   1   3     1.746040054469    46.50387012    56.78304359

---------------------------
INTERNAL COORDINATES (A.U.)
---------------------------
 Cu     0   0   0     0.000000000000     0.00000000     0.00000000
 Cu     1   0   0     4.542180979624     0.00000000     0.00000000
 Cu     2   1   0     4.542179750564    60.00000895     0.00000000
 Cu     2   1   3     4.731706170208    61.31637692   288.41368009
 H      2   1   3     3.299537521803    46.50387012    56.78304359

---------------------
BASIS SET INFORMATION
---------------------
There are 2 groups of distinct atoms

 Group   1 Type Cu  : 17s13p7d2f1g contracted to 6s6p4d2f1g pattern {842111/631111/4111/11/1}
 Group   2 Type H   : 5s3p1d contracted to 3s3p1d pattern {311/111/1}

Atom   0Cu   basis set group =>   1
Atom   1Cu   basis set group =>   1
Atom   2Cu   basis set group =>   1
Atom   3Cu   basis set group =>   1
Atom   4H    basis set group =>   2
----------------------------------
AUXILIARY/JK BASIS SET INFORMATION
----------------------------------
There are 2 groups of distinct atoms

 Group   1 Type Cu  : 19s14p12d10f7g3h1i contracted to 16s13p11d9f5g3h1i pattern {4111111111111111/2111111111111/21111111111/211111111/31111/111/1}
 Group   2 Type H   : 4s2p2d contracted to 2s2p2d pattern {31/11/11}

Atom   0Cu   basis set group =>   1
Atom   1Cu   basis set group =>   1
Atom   2Cu   basis set group =>   1
Atom   3Cu   basis set group =>   1
Atom   4H    basis set group =>   2


           ************************************************************
           *        Program running with 24 parallel MPI-processes    *
           *              working on a common directory               *
           ************************************************************
------------------------------------------------------------------------------
                           ORCA GTO INTEGRAL CALCULATION
------------------------------------------------------------------------------

                         BASIS SET STATISTICS AND STARTUP INFO

 # of primitive gaussian shells          ...  169
 # of primitive gaussian functions       ...  475
 # of contracted shells                  ...   83
 # of contracted basis functions         ...  285
 Highest angular momentum                ...    4
 Maximum contraction depth               ...    8
 Integral package used                   ... LIBINT
 Integral threshhold            Thresh   ...  1.000e-10
 Primitive cut-off              TCut     ...  1.000e-11


------------------------------ INTEGRAL EVALUATION ----------------------------


 * One electron integrals 
 Pre-screening matrix                    ... done
 Shell pair data                         ... done (   0.001 sec)



           ************************************************************
           *        Program running with 24 parallel MPI-processes    *
           *              working on a common directory               *
           ************************************************************
-------------------------------------------------------------------------------
                                 ORCA SCF
-------------------------------------------------------------------------------

------------
SCF SETTINGS
------------
Hamiltonian:
 Density Functional     Method          .... DFT(GTOs)
 Exchange Functional    Exchange        .... WB97M-V
 Correlation Functional Correlation     .... WB97M-V
 Gradients option       PostSCFGGA      .... off
 Hybrid DFT is turned on
   Fraction HF Exchange ScalHFX         ....  0.150000
   Scaling of DF-GGA-X  ScalDFX         ....  0.000000
   Scaling of DF-GGA-C  ScalDFC         ....  1.000000
   Scaling of DF-LDA-C  ScalLDAC        ....  1.000000
   Perturbative correction              ....  0.000000
   Density functional embedding theory  .... OFF
 Long-range corrected/Screened/Range-Separated Hybrid DFT is turned on
   Amount of maximum screened exact exchange              ....  0.850000
   Range separation parameter mu (erf(mu*r12)/r12)        ....  0.300000
   NL short-range parameter             ....  6.000000
   NL long-range parameter              ....  0.010000


General Settings:
 Integral files         IntName         .... Cu04C2_H_F
 Hartree-Fock type      HFTyp           .... UHF
 Total Charge           Charge          ....    2
 Multiplicity           Mult            ....    2
 Number of Electrons    NEL             ....  115
 Basis Dimension        Dim             ....  285
 Nuclear Repulsion      ENuc            ....   1119.9202277639 Eh

Convergence Acceleration:
 DIIS                   CNVDIIS         .... on
   Start iteration      DIISMaxIt       ....    12
   Startup error        DIISStart       ....  0.200000
   # of expansion vecs  DIISMaxEq       ....     5
   Bias factor          DIISBfac        ....   1.050
   Max. coefficient     DIISMaxC        ....  10.000
 Newton-Raphson         CNVNR           .... off
 SOSCF                  CNVSOSCF        .... off
 Level Shifting         CNVShift        .... on
   Level shift para.    LevelShift      ....    0.2500
   Turn off err/grad.   ShiftErr        ....    0.0010
 Zerner damping         CNVZerner       .... off
 Static damping         CNVDamp         .... on
   Fraction old density DampFac         ....    0.7000
   Max. Damping (<1)    DampMax         ....    0.9800
   Min. Damping (>=0)   DampMin         ....    0.0000
   Turn off err/grad.   DampErr         ....    0.1000
 Fernandez-Rico         CNVRico         .... off

SCF Procedure:
 Maximum # iterations   MaxIter         ....   125
 SCF integral mode      SCFMode         .... Direct
   Integral package                     .... LIBINT
 Reset frequency        DirectResetFreq ....    20
 Integral Threshold     Thresh          ....  1.000e-10 Eh
 Primitive CutOff       TCut            ....  1.000e-11 Eh

Convergence Tolerance:
 Convergence Check Mode ConvCheckMode   .... Total+1el-Energy
 Convergence forced     ConvForced      .... 0
 Energy Change          TolE            ....  1.000e-06 Eh
 1-El. energy change                    ....  1.000e-03 Eh
 DIIS Error             TolErr          ....  1.000e-06


Diagonalization of the overlap matrix:
Smallest eigenvalue                        ... 6.380e-04
Time for diagonalization                   ...    0.014 sec
Threshold for overlap eigenvalues          ... 1.000e-08
Number of eigenvalues below threshold      ... 0
Time for construction of square roots      ...    0.010 sec
Total time needed                          ...    0.024 sec

-------------------
DFT GRID GENERATION
-------------------

General Integration Accuracy     IntAcc      ...  4.670
Radial Grid Type                 RadialGrid  ... Gauss-Chebyshev
Angular Grid (max. acc.)         AngularGrid ... Lebedev-302
Angular grid pruning method      GridPruning ... 3 (G Style)
Weight generation scheme         WeightScheme... Becke
Basis function cutoff            BFCut       ...    1.0000e-10
Integration weight cutoff        WCut        ...    1.0000e-14
Grids for H and He will be reduced by one unit

# of grid points (after initial pruning)     ...  41618 (   0.0 sec)
# of grid points (after weights+screening)   ...  40798 (   0.0 sec)
nearest neighbour list constructed           ...    0.0 sec
Grid point re-assignment to atoms done       ...    0.0 sec
Grid point division into batches done        ...    0.2 sec
Reduced shell lists constructed in    0.3 sec

Total number of grid points                  ...    40798
Total number of batches                      ...      640
Average number of points per batch           ...       63
Average number of grid points per atom       ...     8160
Average number of shells per batch           ...    23.54 (28.36%)
Average number of basis functions per batch  ...    65.96 (23.15%)
Average number of large shells per batch     ...    17.86 (75.87%)
Average number of large basis fcns per batch ...    49.07 (74.39%)
Maximum spatial batch extension              ...  20.21, 15.25, 22.17 au
Average spatial batch extension              ...   0.39,  0.33,  0.38 au

Time for grid setup =    0.317 sec

------------------------------
INITIAL GUESS: MODEL POTENTIAL
------------------------------
Loading Hartree-Fock densities                     ... done
Calculating cut-offs                               ... done
Setting up the integral package                    ... done
Initializing the effective Hamiltonian             ... done
Starting the Coulomb interaction                   ... done (   0.0 sec)
Reading the grid                                   ... done
Mapping shells                                     ... done
Starting the XC term evaluation                    ... done (   0.0 sec)
  promolecular density results
     # of electrons  =    116.999555128
     EX              =   -262.356282509
     EC              =     -5.468673781
     EX+EC           =   -267.824956290
Transforming the Hamiltonian                       ... done (   0.0 sec)
Diagonalizing the Hamiltonian                      ... done (   0.0 sec)
Back transforming the eigenvectors                 ... done (   0.0 sec)
Now organizing SCF variables                       ... done
                      ------------------
                      INITIAL GUESS DONE (   0.4 sec)
                      ------------------
--------------
SCF ITERATIONS
--------------
ITER       Energy         Delta-E        Max-DP      RMS-DP      [F,P]     Damp
               ***  Starting incremental Fock matrix formation  ***
  0  -6562.1080016839   0.000000000000 0.03234311  0.00034826  0.0984751 0.7000
  1  -6562.1262537051  -0.018252021227 0.02550827  0.00030216  0.0373349 0.7000
                               ***Turning on DIIS***
  2  -6562.1374039282  -0.011150223121 0.06276900  0.00076002  0.0227386 0.0000
  3  -6562.1635424942  -0.026138566019 0.00688083  0.00010803  0.0153285 0.0000
  4  -6562.1658559680  -0.002313473726 0.00756471  0.00011189  0.0042406 0.0000
  5  -6562.1668337479  -0.000977779894 0.00430907  0.00007120  0.0051520 0.0000
  6  -6562.1672472890  -0.000413541158 0.00297454  0.00004285  0.0055536 0.0000
  7  -6562.1675355140  -0.000288225036 0.00186216  0.00002806  0.0012740 0.0000
  8  -6562.1676360068  -0.000100492753 0.00093356  0.00001335  0.0016307 0.0000
  9  -6562.1676667758  -0.000030768988 0.00075424  0.00000915  0.0015789 0.0000
 10  -6562.1676845758  -0.000017800029 0.00057533  0.00001111  0.0002939 0.0000
 11  -6562.1676975152  -0.000012939378 0.00018616  0.00000346  0.0001077 0.0000
 12  -6562.1676976451  -0.000000129903 0.00010334  0.00000129  0.0001664 0.0000
 13  -6562.1676986647  -0.000001019583 0.00010455  0.00000103  0.0001261 0.0000
 14  -6562.1676986236   0.000000041129 0.00006098  0.00000058  0.0000310 0.0000
 15  -6562.1676985145   0.000000109066 0.00002621  0.00000019  0.0000455 0.0000
                 **** Energy Check signals convergence ****

               *****************************************************
               *                     SUCCESS                       *
               *           SCF CONVERGED AFTER  16 CYCLES          *
               *****************************************************


Setting up the DFT-NL grid :

General Integration Accuracy     IntAcc      ...  4.340
Radial Grid Type                 RadialGrid  ... Gauss-Chebyshev
Angular Grid (max. acc.)         AngularGrid ... Lebedev-110
Angular grid pruning method      GridPruning ... 3 (G Style)
Weight generation scheme         WeightScheme... Becke
Basis function cutoff            BFCut       ...    1.0000e-10
Integration weight cutoff        WCut        ...    1.0000e-14
Grids for H and He will be reduced by one unit

# of grid points (after initial pruning)     ...  12442 (   0.0 sec)
# of grid points (after weights+screening)   ...  12241 (   0.0 sec)
nearest neighbour list constructed           ...    0.0 sec
Grid point re-assignment to atoms done       ...    0.0 sec
Grid point division into batches done        ...    0.0 sec
Reduced shell lists constructed in    0.0 sec

Total number of grid points                  ...    12241
Total number of batches                      ...      193
Average number of points per batch           ...       63
Average number of grid points per atom       ...     2448
Average number of shells per batch           ...    28.40 (34.22%)
Average number of basis functions per batch  ...    83.80 (29.40%)
Average number of large shells per batch     ...    22.20 (78.17%)
Average number of large basis fcns per batch ...    63.20 (75.42%)
Maximum spatial batch extension              ...  27.84, 14.09, 22.51 au
Average spatial batch extension              ...   0.59,  0.41,  0.54 au

Final grid set up in    0.0 sec

-------------------------------------------------------------------------------
                         DFT-NL dispersion correction                          
-------------------------------------------------------------------------------

SC Energy -6562.167698607 
NL    Energy 0.481751927 
SC+NL Energy -6561.685946680 
NL done in    0.0 sec
-------------------------------------------------------------------------------

----------------
TOTAL SCF ENERGY
----------------

Total Energy       :        -6561.68594668 Eh         -178552.55205 eV

Components:
Nuclear Repulsion  :         1119.92022776 Eh           30474.57870 eV
Electronic Energy  :        -7681.60617444 Eh         -209027.13074 eV
One Electron Energy:       -11340.73886486 Eh         -308597.19329 eV
Two Electron Energy:         3659.13269042 Eh           99570.06255 eV

Virial components:
Potential Energy   :       -13114.69614173 Eh         -356869.02489 eV
Kinetic Energy     :         6553.01019505 Eh          178316.47284 eV
Virial Ratio       :            2.00132393


DFT components:
N(Alpha)           :       57.999977548021 electrons
N(Beta)            :       56.999975122315 electrons
N(Total)           :      114.999952670336 electrons
E(X)               :     -207.153785325048 Eh       
E(C)               :       -6.406844113988 Eh       
NL Energy, E(C,NL) :        0.481751927288 Eh       
E(XC)              :     -213.078877511749 Eh       
DFET-embed. en.    :        0.000000000000 Eh       

---------------
SCF CONVERGENCE
---------------

  Last Energy change         ...   -9.2863e-08  Tolerance :   1.0000e-06
  Last MAX-Density change    ...    3.7858e-05  Tolerance :   1.0000e-05
  Last RMS-Density change    ...    2.3924e-07  Tolerance :   1.0000e-06
  Last DIIS Error            ...    2.3495e-05  Tolerance :   1.0000e-06

             **** THE GBW FILE WAS UPDATED (Cu04C2_H_F.gbw) ****
             **** DENSITY FILE WAS UPDATED (Cu04C2_H_F.scfp) ****
             **** ENERGY FILE WAS UPDATED (Cu04C2_H_F.en.tmp) ****
----------------------
UHF SPIN CONTAMINATION
----------------------

Warning: in a DFT calculation there is little theoretical justification to 
         calculate <S**2> as in Hartree-Fock theory. We will do it anyways
         but you should keep in mind that the values have only limited relevance

Expectation value of <S**2>     :     0.758523
Ideal value S*(S+1) for S=0.5   :     0.750000
Deviation                       :     0.008523

             **** THE GBW FILE WAS UPDATED (Cu04C2_H_F.gbw) ****
             **** DENSITY FILE WAS UPDATED (Cu04C2_H_F.scfp) ****
----------------
ORBITAL ENERGIES
----------------
                 SPIN UP ORBITALS
  NO   OCC          E(Eh)            E(eV) 
   0   1.0000    -323.974394     -8815.7914 
   1   1.0000    -323.974391     -8815.7914 
   2   1.0000    -323.974385     -8815.7912 
   3   1.0000    -323.946335     -8815.0279 
   4   1.0000     -39.486337     -1074.4779 
   5   1.0000     -39.486335     -1074.4778 
   6   1.0000     -39.486310     -1074.4771 
   7   1.0000     -39.456449     -1073.6646 
   8   1.0000     -34.587989      -941.1870 
   9   1.0000     -34.587988      -941.1870 
  10   1.0000     -34.587977      -941.1867 
  11   1.0000     -34.587165      -941.1646 
  12   1.0000     -34.587164      -941.1646 
  13   1.0000     -34.587156      -941.1644 
  14   1.0000     -34.586467      -941.1456 
  15   1.0000     -34.586452      -941.1452 
  16   1.0000     -34.586450      -941.1451 
  17   1.0000     -34.557810      -940.3658 
  18   1.0000     -34.557382      -940.3542 
  19   1.0000     -34.557382      -940.3542 
  20   1.0000      -4.877421      -132.7214 
  21   1.0000      -4.877071      -132.7118 
  22   1.0000      -4.877070      -132.7118 
  23   1.0000      -4.846198      -131.8718 
  24   1.0000      -3.346303       -91.0575 
  25   1.0000      -3.343819       -90.9899 
  26   1.0000      -3.343817       -90.9899 
  27   1.0000      -3.341153       -90.9174 
  28   1.0000      -3.340805       -90.9079 
  29   1.0000      -3.340803       -90.9079 
  30   1.0000      -3.339088       -90.8612 
  31   1.0000      -3.339083       -90.8611 
  32   1.0000      -3.338218       -90.8375 
  33   1.0000      -3.311402       -90.1078 
  34   1.0000      -3.309364       -90.0524 
  35   1.0000      -3.309362       -90.0523 
  36   1.0000      -0.942610       -25.6497 
  37   1.0000      -0.863009       -23.4837 
  38   1.0000      -0.835004       -22.7216 
  39   1.0000      -0.834990       -22.7212 
  40   1.0000      -0.825330       -22.4584 
  41   1.0000      -0.825324       -22.4582 
  42   1.0000      -0.824438       -22.4341 
  43   1.0000      -0.809928       -22.0393 
  44   1.0000      -0.809918       -22.0390 
  45   1.0000      -0.809534       -22.0286 
  46   1.0000      -0.801737       -21.8164 
  47   1.0000      -0.801727       -21.8161 
  48   1.0000      -0.797103       -21.6903 
  49   1.0000      -0.796663       -21.6783 
  50   1.0000      -0.796647       -21.6779 
  51   1.0000      -0.776524       -21.1303 
  52   1.0000      -0.776014       -21.1164 
  53   1.0000      -0.776006       -21.1162 
  54   1.0000      -0.771937       -21.0055 
  55   1.0000      -0.765458       -20.8292 
  56   1.0000      -0.765433       -20.8285 
  57   1.0000      -0.662448       -18.0261 
  58   0.0000      -0.397677       -10.8213 
  59   0.0000      -0.397673       -10.8212 
  60   0.0000      -0.317615        -8.6427 
  61   0.0000      -0.297524        -8.0960 
  62   0.0000      -0.270687        -7.3658 
  63   0.0000      -0.270687        -7.3658 
  64   0.0000      -0.267870        -7.2891 
  65   0.0000      -0.267869        -7.2891 
  66   0.0000      -0.191904        -5.2220 
  67   0.0000      -0.181064        -4.9270 
  68   0.0000      -0.181063        -4.9270 
  69   0.0000      -0.154838        -4.2134 
  70   0.0000      -0.154836        -4.2133 
  71   0.0000      -0.154113        -4.1936 
  72   0.0000      -0.150088        -4.0841 
  73   0.0000      -0.135242        -3.6801 
  74   0.0000      -0.121017        -3.2930 
  75   0.0000      -0.118781        -3.2322 
  76   0.0000      -0.118778        -3.2321 
  77   0.0000      -0.112974        -3.0742 
  78   0.0000      -0.112974        -3.0742 
  79   0.0000      -0.101471        -2.7612 
  80   0.0000      -0.087385        -2.3779 
  81   0.0000      -0.087381        -2.3778 
  82   0.0000      -0.045593        -1.2406 
  83   0.0000      -0.043780        -1.1913 
  84   0.0000      -0.043774        -1.1911 
  85   0.0000      -0.035838        -0.9752 
  86   0.0000      -0.035836        -0.9751 
  87   0.0000      -0.033471        -0.9108 
  88   0.0000      -0.011950        -0.3252 
  89   0.0000      -0.002764        -0.0752 
  90   0.0000      -0.002763        -0.0752 
  91   0.0000       0.008155         0.2219 
  92   0.0000       0.016399         0.4462 
  93   0.0000       0.016401         0.4463 
  94   0.0000       0.023721         0.6455 
  95   0.0000       0.023723         0.6455 
  96   0.0000       0.027945         0.7604 
  97   0.0000       0.038899         1.0585 
  98   0.0000       0.059435         1.6173 
  99   0.0000       0.081829         2.2267 
 100   0.0000       0.081830         2.2267 
 101   0.0000       0.085858         2.3363 
 102   0.0000       0.085858         2.3363 
 103   0.0000       0.112407         3.0587 
 104   0.0000       0.149885         4.0786 
 105   0.0000       0.149888         4.0786 
 106   0.0000       0.165062         4.4916 
 107   0.0000       0.165064         4.4916 
 108   0.0000       0.165328         4.4988 
 109   0.0000       0.168726         4.5913 
 110   0.0000       0.186492         5.0747 
 111   0.0000       0.186500         5.0749 
 112   0.0000       0.327500         8.9117 
 113   0.0000       0.400944        10.9102 
 114   0.0000       0.416802        11.3418 
 115   0.0000       0.416804        11.3418 
 116   0.0000       0.430702        11.7200 
 117   0.0000       0.430710        11.7202 
 118   0.0000       0.432304        11.7636 
 119   0.0000       0.490600        13.3499 
 120   0.0000       0.490602        13.3500 
 121   0.0000       0.514110        13.9897 
 122   0.0000       0.522985        14.2312 
 123   0.0000       0.522990        14.2313 
 124   0.0000       0.567462        15.4414 
 125   0.0000       0.601315        16.3626 
 126   0.0000       0.603333        16.4175 
 127   0.0000       0.603336        16.4176 
 128   0.0000       0.613370        16.6907 
 129   0.0000       0.613380        16.6909 
 130   0.0000       0.642132        17.4733 
 131   0.0000       0.665907        18.1202 
 132   0.0000       0.665910        18.1203 
 133   0.0000       0.701213        19.0810 
 134   0.0000       0.714428        19.4406 
 135   0.0000       0.714428        19.4406 
 136   0.0000       0.746263        20.3068 
 137   0.0000       0.755598        20.5609 
 138   0.0000       0.755602        20.5610 
 139   0.0000       0.899718        24.4826 
 140   0.0000       0.899733        24.4830 
 141   0.0000       0.902025        24.5453 
 142   0.0000       0.919949        25.0331 
 143   0.0000       0.919953        25.0332 
 144   0.0000       0.953954        25.9584 
 145   0.0000       1.067793        29.0561 
 146   0.0000       1.067827        29.0571 
 147   0.0000       1.126574        30.6556 
 148   0.0000       2.287311        62.2409 
 149   0.0000       2.638335        71.7927 
 150   0.0000       2.638374        71.7938 
 151   0.0000       2.671805        72.7035 
 152   0.0000       2.684320        73.0441 
 153   0.0000       2.684346        73.0448 
 154   0.0000       2.734517        74.4100 
 155   0.0000       2.752030        74.8865 
 156   0.0000       2.752036        74.8867 
 157   0.0000       2.834596        77.1333 
 158   0.0000       2.834606        77.1335 
 159   0.0000       2.851700        77.5987 
 160   0.0000       2.873465        78.1910 
 161   0.0000       2.873475        78.1912 
 162   0.0000       2.922021        79.5122 
 163   0.0000       2.989946        81.3606 
 164   0.0000       2.989949        81.3606 
 165   0.0000       2.991683        81.4078 
 166   0.0000       3.062316        83.3299 
 167   0.0000       3.112601        84.6982 
 168   0.0000       3.116481        84.8038 
 169   0.0000       3.116494        84.8041 
 170   0.0000       3.123143        84.9851 
 171   0.0000       3.123174        84.9859 
 172   0.0000       3.132149        85.2301 
 173   0.0000       3.134234        85.2869 
 174   0.0000       3.134661        85.2985 
 175   0.0000       3.134692        85.2993 
 176   0.0000       3.139847        85.4396 
 177   0.0000       3.139847        85.4396 
 178   0.0000       3.147549        85.6492 
 179   0.0000       3.154637        85.8420 
 180   0.0000       3.154649        85.8424 
 181   0.0000       3.157263        85.9135 
 182   0.0000       3.174858        86.3923 
 183   0.0000       3.178557        86.4929 
 184   0.0000       3.178572        86.4933 
 185   0.0000       3.178658        86.4957 
 186   0.0000       3.190198        86.8097 
 187   0.0000       3.190208        86.8100 
 188   0.0000       3.201255        87.1106 
 189   0.0000       3.290969        89.5518 
 190   0.0000       3.297542        89.7307 
 191   0.0000       3.324203        90.4562 
 192   0.0000       3.324219        90.4566 
 193   0.0000       3.328380        90.5698 
 194   0.0000       3.328417        90.5708 
 195   0.0000       3.394774        92.3765 
 196   0.0000       3.394785        92.3768 
 197   0.0000       3.456274        94.0500 
 198   0.0000       3.466500        94.3282 
 199   0.0000       3.466536        94.3292 
 200   0.0000       3.466812        94.3367 
 201   0.0000       3.499728        95.2324 
 202   0.0000       3.499746        95.2329 
 203   0.0000       3.518953        95.7556 
 204   0.0000       3.518966        95.7559 
 205   0.0000       3.575961        97.3069 
 206   0.0000       3.593974        97.7970 
 207   0.0000       3.638767        99.0159 
 208   0.0000       3.638808        99.0170 
 209   0.0000       3.672324        99.9290 
 210   0.0000       3.672351        99.9297 
 211   0.0000       3.691086       100.4396 
 212   0.0000       3.737236       101.6953 
 213   0.0000       3.737237       101.6954 
 214   0.0000       3.752446       102.1092 
 215   0.0000       4.030744       109.6821 
 216   0.0000       4.149735       112.9200 
 217   0.0000       4.149859       112.9234 
 218   0.0000       4.285198       116.6062 
 219   0.0000       4.446679       121.0003 
 220   0.0000       4.446779       121.0030 
 221   0.0000      12.723434       346.2222 
 222   0.0000      12.723490       346.2238 
 223   0.0000      12.723600       346.2268 
 224   0.0000      12.724676       346.2560 
 225   0.0000      12.724872       346.2614 
 226   0.0000      12.724982       346.2644 
 227   0.0000      12.725006       346.2650 
 228   0.0000      12.725037       346.2659 
 229   0.0000      12.725388       346.2754 
 230   0.0000      12.725799       346.2866 
 231   0.0000      12.726113       346.2951 
 232   0.0000      12.726143       346.2959 
 233   0.0000      12.726324       346.3009 
 234   0.0000      12.726348       346.3015 
 235   0.0000      12.726448       346.3043 
 236   0.0000      12.727140       346.3231 
 237   0.0000      12.727182       346.3242 
 238   0.0000      12.727352       346.3288 
 239   0.0000      12.729044       346.3749 
 240   0.0000      12.729050       346.3751 
 241   0.0000      12.729363       346.3836 
 242   0.0000      12.729495       346.3872 
 243   0.0000      12.729668       346.3919 
 244   0.0000      12.729760       346.3944 
 245   0.0000      12.730226       346.4071 
 246   0.0000      12.730339       346.4101 
 247   0.0000      12.730500       346.4145 
 248   0.0000      12.755787       347.1026 
 249   0.0000      12.756133       347.1120 
 250   0.0000      12.756341       347.1177 
 251   0.0000      12.757105       347.1385 
 252   0.0000      12.757211       347.1414 
 253   0.0000      12.757374       347.1458 
 254   0.0000      12.757990       347.1626 
 255   0.0000      12.758849       347.1859 
 256   0.0000      12.758851       347.1860 
 257   0.0000      12.906213       351.1959 
 258   0.0000      12.907965       351.2436 
 259   0.0000      12.907993       351.2444 
 260   0.0000      12.908027       351.2453 
 261   0.0000      12.908146       351.2485 
 262   0.0000      12.911855       351.3494 
 263   0.0000      12.911859       351.3495 
 264   0.0000      12.913704       351.3998 
 265   0.0000      12.913714       351.4000 
 266   0.0000      12.915996       351.4621 
 267   0.0000      12.916009       351.4625 
 268   0.0000      12.922924       351.6507 
 269   0.0000      12.923364       351.6626 
 270   0.0000      12.923369       351.6627 
 271   0.0000      12.936511       352.0204 
 272   0.0000      12.936989       352.0334 
 273   0.0000      12.939922       352.1132 
 274   0.0000      12.939968       352.1144 
 275   0.0000      12.940236       352.1217 
 276   0.0000      12.964206       352.7740 
 277   0.0000      12.973397       353.0241 
 278   0.0000      12.973449       353.0255 
 279   0.0000      12.976826       353.1174 
 280   0.0000      12.987913       353.4191 
 281   0.0000      12.987943       353.4199 
 282   0.0000      13.062450       355.4473 
 283   0.0000      13.062475       355.4480 
 284   0.0000      13.145658       357.7115 

                 SPIN DOWN ORBITALS
  NO   OCC          E(Eh)            E(eV) 
   0   1.0000    -323.974193     -8815.7860 
   1   1.0000    -323.974191     -8815.7859 
   2   1.0000    -323.974185     -8815.7857 
   3   1.0000    -323.945689     -8815.0103 
   4   1.0000     -39.483749     -1074.4074 
   5   1.0000     -39.483747     -1074.4074 
   6   1.0000     -39.483722     -1074.4067 
   7   1.0000     -39.456408     -1073.6634 
   8   1.0000     -34.585728      -941.1255 
   9   1.0000     -34.585714      -941.1251 
  10   1.0000     -34.585711      -941.1250 
  11   1.0000     -34.584888      -941.1026 
  12   1.0000     -34.584885      -941.1026 
  13   1.0000     -34.584871      -941.1022 
  14   1.0000     -34.584580      -941.0943 
  15   1.0000     -34.584578      -941.0942 
  16   1.0000     -34.584564      -941.0938 
  17   1.0000     -34.557727      -940.3636 
  18   1.0000     -34.557422      -940.3553 
  19   1.0000     -34.557421      -940.3552 
  20   1.0000      -4.872976      -132.6004 
  21   1.0000      -4.872630      -132.5910 
  22   1.0000      -4.872628      -132.5910 
  23   1.0000      -4.845522      -131.8533 
  24   1.0000      -3.339927       -90.8840 
  25   1.0000      -3.338323       -90.8404 
  26   1.0000      -3.338323       -90.8404 
  27   1.0000      -3.336576       -90.7928 
  28   1.0000      -3.336570       -90.7927 
  29   1.0000      -3.336491       -90.7905 
  30   1.0000      -3.334559       -90.7380 
  31   1.0000      -3.334403       -90.7337 
  32   1.0000      -3.334398       -90.7336 
  33   1.0000      -3.311660       -90.1148 
  34   1.0000      -3.308700       -90.0343 
  35   1.0000      -3.308698       -90.0343 
  36   1.0000      -0.920794       -25.0561 
  37   1.0000      -0.854185       -23.2436 
  38   1.0000      -0.832754       -22.6604 
  39   1.0000      -0.832739       -22.6600 
  40   1.0000      -0.819765       -22.3069 
  41   1.0000      -0.819755       -22.3067 
  42   1.0000      -0.818274       -22.2664 
  43   1.0000      -0.807384       -21.9700 
  44   1.0000      -0.807375       -21.9698 
  45   1.0000      -0.799298       -21.7500 
  46   1.0000      -0.794743       -21.6260 
  47   1.0000      -0.794723       -21.6255 
  48   1.0000      -0.794444       -21.6179 
  49   1.0000      -0.783488       -21.3198 
  50   1.0000      -0.783481       -21.3196 
  51   1.0000      -0.774201       -21.0671 
  52   1.0000      -0.774193       -21.0669 
  53   1.0000      -0.773950       -21.0603 
  54   1.0000      -0.767818       -20.8934 
  55   1.0000      -0.760946       -20.7064 
  56   1.0000      -0.760919       -20.7057 
  57   0.0000      -0.447599       -12.1798 
  58   0.0000      -0.401145       -10.9157 
  59   0.0000      -0.401144       -10.9157 
  60   0.0000      -0.319663        -8.6985 
  61   0.0000      -0.307409        -8.3650 
  62   0.0000      -0.281485        -7.6596 
  63   0.0000      -0.281484        -7.6596 
  64   0.0000      -0.278702        -7.5839 
  65   0.0000      -0.278702        -7.5839 
  66   0.0000      -0.209720        -5.7068 
  67   0.0000      -0.194262        -5.2861 
  68   0.0000      -0.194261        -5.2861 
  69   0.0000      -0.175854        -4.7852 
  70   0.0000      -0.175850        -4.7851 
  71   0.0000      -0.168314        -4.5801 
  72   0.0000      -0.166292        -4.5250 
  73   0.0000      -0.144973        -3.9449 
  74   0.0000      -0.137496        -3.7415 
  75   0.0000      -0.130878        -3.5614 
  76   0.0000      -0.130873        -3.5612 
  77   0.0000      -0.120695        -3.2843 
  78   0.0000      -0.120692        -3.2842 
  79   0.0000      -0.113869        -3.0985 
  80   0.0000      -0.113315        -3.0835 
  81   0.0000      -0.113312        -3.0834 
  82   0.0000      -0.055920        -1.5217 
  83   0.0000      -0.052834        -1.4377 
  84   0.0000      -0.052830        -1.4376 
  85   0.0000      -0.048498        -1.3197 
  86   0.0000      -0.048496        -1.3196 
  87   0.0000      -0.040148        -1.0925 
  88   0.0000      -0.033970        -0.9244 
  89   0.0000      -0.021320        -0.5802 
  90   0.0000      -0.021320        -0.5801 
  91   0.0000      -0.007262        -0.1976 
  92   0.0000      -0.007258        -0.1975 
  93   0.0000      -0.002449        -0.0666 
  94   0.0000       0.002014         0.0548 
  95   0.0000       0.002017         0.0549 
  96   0.0000       0.005640         0.1535 
  97   0.0000       0.032946         0.8965 
  98   0.0000       0.037920         1.0319 
  99   0.0000       0.069463         1.8902 
 100   0.0000       0.069467         1.8903 
 101   0.0000       0.076240         2.0746 
 102   0.0000       0.076242         2.0747 
 103   0.0000       0.089839         2.4447 
 104   0.0000       0.132091         3.5944 
 105   0.0000       0.132097         3.5946 
 106   0.0000       0.150013         4.0821 
 107   0.0000       0.150019         4.0822 
 108   0.0000       0.159966         4.3529 
 109   0.0000       0.162134         4.4119 
 110   0.0000       0.174418         4.7462 
 111   0.0000       0.174423         4.7463 
 112   0.0000       0.318704         8.6724 
 113   0.0000       0.399691        10.8761 
 114   0.0000       0.408751        11.1227 
 115   0.0000       0.408753        11.1227 
 116   0.0000       0.423151        11.5145 
 117   0.0000       0.423155        11.5146 
 118   0.0000       0.425874        11.5886 
 119   0.0000       0.486317        13.2333 
 120   0.0000       0.486323        13.2335 
 121   0.0000       0.508661        13.8414 
 122   0.0000       0.518800        14.1173 
 123   0.0000       0.518807        14.1174 
 124   0.0000       0.563872        15.3437 
 125   0.0000       0.593385        16.1468 
 126   0.0000       0.601801        16.3758 
 127   0.0000       0.601807        16.3760 
 128   0.0000       0.606365        16.5000 
 129   0.0000       0.606369        16.5001 
 130   0.0000       0.645105        17.5542 
 131   0.0000       0.666000        18.1228 
 132   0.0000       0.666000        18.1228 
 133   0.0000       0.701226        19.0813 
 134   0.0000       0.714242        19.4355 
 135   0.0000       0.714246        19.4356 
 136   0.0000       0.746928        20.3250 
 137   0.0000       0.756569        20.5873 
 138   0.0000       0.756573        20.5874 
 139   0.0000       0.901270        24.5248 
 140   0.0000       0.901277        24.5250 
 141   0.0000       0.912168        24.8213 
 142   0.0000       0.923479        25.1291 
 143   0.0000       0.923482        25.1292 
 144   0.0000       0.953981        25.9591 
 145   0.0000       1.073489        29.2111 
 146   0.0000       1.073516        29.2119 
 147   0.0000       1.131474        30.7890 
 148   0.0000       2.356924        64.1352 
 149   0.0000       2.654993        72.2460 
 150   0.0000       2.655043        72.2474 
 151   0.0000       2.693242        73.2869 
 152   0.0000       2.701053        73.4994 
 153   0.0000       2.701066        73.4997 
 154   0.0000       2.737964        74.5038 
 155   0.0000       2.762270        75.1652 
 156   0.0000       2.762285        75.1656 
 157   0.0000       2.842878        77.3586 
 158   0.0000       2.842891        77.3590 
 159   0.0000       2.863338        77.9154 
 160   0.0000       2.875238        78.2392 
 161   0.0000       2.875249        78.2395 
 162   0.0000       2.922527        79.5260 
 163   0.0000       2.994195        81.4762 
 164   0.0000       2.994308        81.4793 
 165   0.0000       2.994313        81.4794 
 166   0.0000       3.066014        83.4305 
 167   0.0000       3.113813        84.7312 
 168   0.0000       3.118068        84.8469 
 169   0.0000       3.118085        84.8474 
 170   0.0000       3.129350        85.1539 
 171   0.0000       3.129368        85.1544 
 172   0.0000       3.134062        85.2822 
 173   0.0000       3.135075        85.3097 
 174   0.0000       3.135274        85.3151 
 175   0.0000       3.135307        85.3161 
 176   0.0000       3.140773        85.4648 
 177   0.0000       3.140777        85.4649 
 178   0.0000       3.151028        85.7438 
 179   0.0000       3.157352        85.9159 
 180   0.0000       3.157367        85.9163 
 181   0.0000       3.159939        85.9863 
 182   0.0000       3.177493        86.4640 
 183   0.0000       3.180676        86.5506 
 184   0.0000       3.181688        86.5781 
 185   0.0000       3.181703        86.5785 
 186   0.0000       3.194528        86.9275 
 187   0.0000       3.194540        86.9279 
 188   0.0000       3.201357        87.1134 
 189   0.0000       3.294788        89.6557 
 190   0.0000       3.314181        90.1835 
 191   0.0000       3.329117        90.5899 
 192   0.0000       3.329122        90.5900 
 193   0.0000       3.346117        91.0525 
 194   0.0000       3.346118        91.0525 
 195   0.0000       3.396607        92.4264 
 196   0.0000       3.396619        92.4267 
 197   0.0000       3.469243        94.4029 
 198   0.0000       3.474646        94.5499 
 199   0.0000       3.474695        94.5513 
 200   0.0000       3.478332        94.6502 
 201   0.0000       3.504797        95.3704 
 202   0.0000       3.504805        95.3706 
 203   0.0000       3.548832        96.5686 
 204   0.0000       3.548897        96.5704 
 205   0.0000       3.583416        97.5097 
 206   0.0000       3.603718        98.0621 
 207   0.0000       3.642798        99.1256 
 208   0.0000       3.642832        99.1265 
 209   0.0000       3.674631        99.9918 
 210   0.0000       3.674657        99.9925 
 211   0.0000       3.692780       100.4857 
 212   0.0000       3.745486       101.9199 
 213   0.0000       3.745496       101.9201 
 214   0.0000       3.763705       102.4156 
 215   0.0000       4.037585       109.8683 
 216   0.0000       4.185259       113.8867 
 217   0.0000       4.185311       113.8881 
 218   0.0000       4.332721       117.8993 
 219   0.0000       4.469585       121.6236 
 220   0.0000       4.469735       121.6277 
 221   0.0000      12.726821       346.3144 
 222   0.0000      12.726849       346.3152 
 223   0.0000      12.726850       346.3152 
 224   0.0000      12.727007       346.3195 
 225   0.0000      12.728054       346.3480 
 226   0.0000      12.728094       346.3490 
 227   0.0000      12.728527       346.3608 
 228   0.0000      12.729171       346.3783 
 229   0.0000      12.729259       346.3808 
 230   0.0000      12.729417       346.3851 
 231   0.0000      12.729551       346.3887 
 232   0.0000      12.729835       346.3964 
 233   0.0000      12.729976       346.4002 
 234   0.0000      12.730110       346.4039 
 235   0.0000      12.730183       346.4059 
 236   0.0000      12.730633       346.4181 
 237   0.0000      12.730745       346.4212 
 238   0.0000      12.731291       346.4360 
 239   0.0000      12.731401       346.4390 
 240   0.0000      12.731439       346.4401 
 241   0.0000      12.731572       346.4437 
 242   0.0000      12.731678       346.4466 
 243   0.0000      12.731827       346.4506 
 244   0.0000      12.732156       346.4596 
 245   0.0000      12.735653       346.5547 
 246   0.0000      12.735658       346.5549 
 247   0.0000      12.736501       346.5778 
 248   0.0000      12.755026       347.0819 
 249   0.0000      12.755500       347.0948 
 250   0.0000      12.755543       347.0960 
 251   0.0000      12.756060       347.1100 
 252   0.0000      12.756167       347.1129 
 253   0.0000      12.756309       347.1168 
 254   0.0000      12.756899       347.1329 
 255   0.0000      12.758615       347.1796 
 256   0.0000      12.758619       347.1797 
 257   0.0000      12.909566       351.2871 
 258   0.0000      12.910783       351.3203 
 259   0.0000      12.911935       351.3516 
 260   0.0000      12.911957       351.3522 
 261   0.0000      12.915417       351.4464 
 262   0.0000      12.915649       351.4527 
 263   0.0000      12.915651       351.4527 
 264   0.0000      12.916340       351.4715 
 265   0.0000      12.916355       351.4719 
 266   0.0000      12.920795       351.5927 
 267   0.0000      12.920814       351.5932 
 268   0.0000      12.926214       351.7402 
 269   0.0000      12.929967       351.8423 
 270   0.0000      12.929970       351.8424 
 271   0.0000      12.938457       352.0733 
 272   0.0000      12.938760       352.0816 
 273   0.0000      12.939825       352.1105 
 274   0.0000      12.939869       352.1117 
 275   0.0000      12.941328       352.1514 
 276   0.0000      12.971177       352.9637 
 277   0.0000      12.976134       353.0985 
 278   0.0000      12.976195       353.1002 
 279   0.0000      12.978752       353.1698 
 280   0.0000      12.990822       353.4982 
 281   0.0000      12.990845       353.4989 
 282   0.0000      13.070475       355.6657 
 283   0.0000      13.070501       355.6664 
 284   0.0000      13.154103       357.9413 

                    ********************************
                    * MULLIKEN POPULATION ANALYSIS *
                    ********************************

--------------------------------------------
MULLIKEN ATOMIC CHARGES AND SPIN POPULATIONS
--------------------------------------------
   0 Cu:    0.458994    0.065608
   1 Cu:    0.459083    0.065583
   2 Cu:    0.459077    0.065591
   3 Cu:    0.352804    0.561167
   4 H :    0.270042    0.242051
Sum of atomic charges         :    2.0000000
Sum of atomic spin populations:    1.0000000

-----------------------------------------------------
MULLIKEN REDUCED ORBITAL CHARGES AND SPIN POPULATIONS
-----------------------------------------------------
CHARGE
  0 Cus       :     6.448092  s :     6.448092
      pz      :     4.071231  p :    12.249297
      px      :     4.014935
      py      :     4.163131
      dz2     :     1.978455  d :     9.843322
      dxz     :     1.993864
      dyz     :     1.926059
      dx2y2   :     1.990977
      dxy     :     1.953967
      f0      :     0.000046  f :     0.000293
      f+1     :     0.000013
      f-1     :     0.000032
      f+2     :     0.000083
      f-2     :     0.000031
      f+3     :     0.000032
      f-3     :     0.000056
      g0      :     0.000000  g :     0.000001
      g+1     :     0.000000
      g-1     :     0.000000
      g+2     :     0.000000
      g-2     :     0.000000
      g+3     :     0.000000
      g-3     :     0.000000
      g+4     :     0.000000
      g-4     :     0.000000
  1 Cus       :     6.448039  s :     6.448039
      pz      :     4.071240  p :    12.249263
      px      :     4.126046
      py      :     4.051977
      dz2     :     1.978453  d :     9.843321
      dxz     :     1.943003
      dyz     :     1.976908
      dx2y2   :     1.963240
      dxy     :     1.981718
      f0      :     0.000046  f :     0.000293
      f+1     :     0.000027
      f-1     :     0.000018
      f+2     :     0.000044
      f-2     :     0.000070
      f+3     :     0.000032
      f-3     :     0.000056
      g0      :     0.000000  g :     0.000001
      g+1     :     0.000000
      g-1     :     0.000000
      g+2     :     0.000000
      g-2     :     0.000000
      g+3     :     0.000000
      g-3     :     0.000000
      g+4     :     0.000000
      g-4     :     0.000000
  2 Cus       :     6.448042  s :     6.448042
      pz      :     4.071241  p :    12.249266
      px      :     4.126047
      py      :     4.051978
      dz2     :     1.978453  d :     9.843321
      dxz     :     1.943003
      dyz     :     1.976908
      dx2y2   :     1.963240
      dxy     :     1.981718
      f0      :     0.000046  f :     0.000293
      f+1     :     0.000027
      f-1     :     0.000018
      f+2     :     0.000044
      f-2     :     0.000070
      f+3     :     0.000032
      f-3     :     0.000056
      g0      :     0.000000  g :     0.000001
      g+1     :     0.000000
      g-1     :     0.000000
      g+2     :     0.000000
      g-2     :     0.000000
      g+3     :     0.000000
      g-3     :     0.000000
      g+4     :     0.000000
      g-4     :     0.000000
  3 Cus       :     6.674319  s :     6.674319
      pz      :     4.079431  p :    12.106013
      px      :     4.013293
      py      :     4.013288
      dz2     :     1.969009  d :     9.866733
      dxz     :     1.956240
      dyz     :     1.956260
      dx2y2   :     1.992611
      dxy     :     1.992613
      f0      :     0.000036  f :     0.000131
      f+1     :     0.000023
      f-1     :     0.000023
      f+2     :     0.000020
      f-2     :     0.000020
      f+3     :     0.000004
      f-3     :     0.000005
      g0      :     0.000000  g :     0.000001
      g+1     :     0.000000
      g-1     :     0.000000
      g+2     :     0.000000
      g-2     :     0.000000
      g+3     :     0.000000
      g-3     :     0.000000
      g+4     :     0.000000
      g-4     :     0.000000
  4 H s       :     0.770454  s :     0.770454
      pz      :    -0.050462  p :    -0.043785
      px      :     0.003339
      py      :     0.003337
      dz2     :     0.000517  d :     0.003289
      dxz     :     0.000883
      dyz     :     0.000883
      dx2y2   :     0.000503
      dxy     :     0.000503

SPIN
  0 Cus       :    -0.024632  s :    -0.024632
      pz      :     0.048347  p :     0.038960
      px      :     0.000268
      py      :    -0.009655
      dz2     :    -0.002004  d :     0.051244
      dxz     :    -0.000498
      dyz     :     0.050920
      dx2y2   :     0.002601
      dxy     :     0.000225
      f0      :     0.000005  f :     0.000036
      f+1     :     0.000000
      f-1     :     0.000000
      f+2     :     0.000028
      f-2     :    -0.000000
      f+3     :     0.000000
      f-3     :     0.000003
      g0      :     0.000000  g :     0.000000
      g+1     :     0.000000
      g-1     :    -0.000000
      g+2     :     0.000000
      g-2     :    -0.000000
      g+3     :     0.000000
      g-3     :     0.000000
      g+4     :     0.000000
      g-4     :     0.000000
  1 Cus       :    -0.024671  s :    -0.024671
      pz      :     0.048355  p :     0.038951
      px      :    -0.007187
      py      :    -0.002218
      dz2     :    -0.002002  d :     0.051267
      dxz     :     0.038082
      dyz     :     0.012362
      dx2y2   :     0.000821
      dxy     :     0.002004
      f0      :     0.000005  f :     0.000036
      f+1     :     0.000000
      f-1     :     0.000000
      f+2     :     0.000007
      f-2     :     0.000021
      f+3     :     0.000000
      f-3     :     0.000003
      g0      :     0.000000  g :     0.000000
      g+1     :    -0.000000
      g-1     :    -0.000000
      g+2     :    -0.000000
      g-2     :     0.000000
      g+3     :     0.000000
      g-3     :     0.000000
      g+4     :     0.000000
      g-4     :     0.000000
  2 Cus       :    -0.024667  s :    -0.024667
      pz      :     0.048356  p :     0.038953
      px      :    -0.007185
      py      :    -0.002218
      dz2     :    -0.002002  d :     0.051268
      dxz     :     0.038082
      dyz     :     0.012362
      dx2y2   :     0.000821
      dxy     :     0.002005
      f0      :     0.000005  f :     0.000036
      f+1     :     0.000000
      f-1     :     0.000000
      f+2     :     0.000007
      f-2     :     0.000021
      f+3     :     0.000000
      f-3     :     0.000003
      g0      :     0.000000  g :     0.000000
      g+1     :    -0.000000
      g-1     :    -0.000000
      g+2     :    -0.000000
      g-2     :     0.000000
      g+3     :     0.000000
      g-3     :     0.000000
      g+4     :     0.000000
      g-4     :     0.000000
  3 Cus       :     0.527792  s :     0.527792
      pz      :     0.048802  p :     0.053128
      px      :     0.002163
      py      :     0.002163
      dz2     :    -0.004335  d :    -0.019754
      dxz     :    -0.006889
      dyz     :    -0.006887
      dx2y2   :    -0.000822
      dxy     :    -0.000821
      f0      :     0.000004  f :     0.000000
      f+1     :    -0.000002
      f-1     :    -0.000002
      f+2     :    -0.000000
      f-2     :    -0.000000
      f+3     :     0.000000
      f-3     :     0.000001
      g0      :     0.000000  g :    -0.000000
      g+1     :    -0.000000
      g-1     :    -0.000000
      g+2     :    -0.000000
      g-2     :    -0.000000
      g+3     :     0.000000
      g-3     :     0.000000
      g+4     :    -0.000000
      g-4     :     0.000000
  4 H s       :     0.272367  s :     0.272367
      pz      :    -0.029071  p :    -0.030452
      px      :    -0.000691
      py      :    -0.000690
      dz2     :     0.000056  d :     0.000137
      dxz     :     0.000019
      dyz     :     0.000020
      dx2y2   :     0.000021
      dxy     :     0.000021


                     *******************************
                     * LOEWDIN POPULATION ANALYSIS *
                     *******************************

-------------------------------------------
LOEWDIN ATOMIC CHARGES AND SPIN POPULATIONS
-------------------------------------------
   0 Cu:    0.480951    0.230291
   1 Cu:    0.480959    0.230303
   2 Cu:    0.480958    0.230303
   3 Cu:    0.543678    0.173194
   4 H :    0.013454    0.135909

----------------------------------------------------
LOEWDIN REDUCED ORBITAL CHARGES AND SPIN POPULATIONS
----------------------------------------------------
CHARGE
  0 Cus       :     6.188467  s :     6.188467
      pz      :     4.177206  p :    12.384877
      px      :     4.025721
      py      :     4.181949
      dz2     :     1.989425  d :     9.944877
      dxz     :     1.992546
      dyz     :     1.988863
      dx2y2   :     1.999163
      dxy     :     1.974880
      f0      :     0.000095  f :     0.000825
      f+1     :     0.000037
      f-1     :     0.000124
      f+2     :     0.000252
      f-2     :     0.000056
      f+3     :     0.000135
      f-3     :     0.000125
      g0      :     0.000000  g :     0.000003
      g+1     :     0.000000
      g-1     :     0.000000
      g+2     :     0.000000
      g-2     :     0.000000
      g+3     :     0.000000
      g-3     :     0.000000
      g+4     :     0.000000
      g-4     :     0.000000
  1 Cus       :     6.188466  s :     6.188466
      pz      :     4.177205  p :    12.384870
      px      :     4.142886
      py      :     4.064779
      dz2     :     1.989425  d :     9.944878
      dxz     :     1.989772
      dyz     :     1.991618
      dx2y2   :     1.980972
      dxy     :     1.993090
      f0      :     0.000095  f :     0.000825
      f+1     :     0.000103
      f-1     :     0.000059
      f+2     :     0.000105
      f-2     :     0.000203
      f+3     :     0.000135
      f-3     :     0.000125
      g0      :     0.000000  g :     0.000003
      g+1     :     0.000000
      g-1     :     0.000000
      g+2     :     0.000000
      g-2     :     0.000000
      g+3     :     0.000000
      g-3     :     0.000000
      g+4     :     0.000000
      g-4     :     0.000000
  2 Cus       :     6.188466  s :     6.188466
      pz      :     4.177205  p :    12.384870
      px      :     4.142886
      py      :     4.064779
      dz2     :     1.989425  d :     9.944878
      dxz     :     1.989772
      dyz     :     1.991618
      dx2y2   :     1.980972
      dxy     :     1.993090
      f0      :     0.000095  f :     0.000825
      f+1     :     0.000103
      f-1     :     0.000059
      f+2     :     0.000105
      f-2     :     0.000203
      f+3     :     0.000135
      f-3     :     0.000125
      g0      :     0.000000  g :     0.000003
      g+1     :     0.000000
      g-1     :     0.000000
      g+2     :     0.000000
      g-2     :     0.000000
      g+3     :     0.000000
      g-3     :     0.000000
      g+4     :     0.000000
      g-4     :     0.000000
  3 Cus       :     6.299086  s :     6.299086
      pz      :     4.154476  p :    12.196422
      px      :     4.020975
      py      :     4.020972
      dz2     :     2.021260  d :     9.960425
      dxz     :     1.974306
      dyz     :     1.974327
      dx2y2   :     1.995265
      dxy     :     1.995267
      f0      :     0.000075  f :     0.000387
      f+1     :     0.000095
      f-1     :     0.000095
      f+2     :     0.000052
      f-2     :     0.000052
      f+3     :     0.000009
      f-3     :     0.000008
      g0      :     0.000000  g :     0.000001
      g+1     :     0.000000
      g-1     :     0.000000
      g+2     :     0.000000
      g-2     :     0.000000
      g+3     :     0.000000
      g-3     :     0.000000
      g+4     :     0.000000
      g-4     :     0.000000
  4 H s       :     0.737650  s :     0.737650
      pz      :     0.111768  p :     0.233062
      px      :     0.060650
      py      :     0.060644
      dz2     :     0.002638  d :     0.015835
      dxz     :     0.003961
      dyz     :     0.003961
      dx2y2   :     0.002637
      dxy     :     0.002637

SPIN
  0 Cus       :     0.003691  s :     0.003691
      pz      :     0.129013  p :     0.131710
      px      :     0.000302
      py      :     0.002395
      dz2     :     0.000308  d :     0.094768
      dxz     :    -0.000381
      dyz     :     0.090374
      dx2y2   :     0.003845
      dxy     :     0.000623
      f0      :     0.000009  f :     0.000121
      f+1     :     0.000000
      f-1     :     0.000007
      f+2     :     0.000094
      f-2     :    -0.000001
      f+3     :     0.000001
      f-3     :     0.000011
      g0      :     0.000000  g :     0.000000
      g+1     :    -0.000000
      g-1     :    -0.000000
      g+2     :     0.000000
      g-2     :    -0.000000
      g+3     :     0.000000
      g-3     :     0.000000
      g+4     :     0.000000
      g-4     :     0.000000
  1 Cus       :     0.003684  s :     0.003684
      pz      :     0.129013  p :     0.131708
      px      :     0.001869
      py      :     0.000826
      dz2     :     0.000310  d :     0.094790
      dxz     :     0.067698
      dyz     :     0.022313
      dx2y2   :     0.001429
      dxy     :     0.003040
      f0      :     0.000009  f :     0.000121
      f+1     :     0.000005
      f-1     :     0.000002
      f+2     :     0.000023
      f-2     :     0.000070
      f+3     :     0.000001
      f-3     :     0.000011
      g0      :     0.000000  g :     0.000000
      g+1     :    -0.000000
      g-1     :    -0.000000
      g+2     :    -0.000000
      g-2     :     0.000000
      g+3     :     0.000000
      g-3     :     0.000000
      g+4     :     0.000000
      g-4     :     0.000000
  2 Cus       :     0.003684  s :     0.003684
      pz      :     0.129013  p :     0.131708
      px      :     0.001869
      py      :     0.000826
      dz2     :     0.000310  d :     0.094790
      dxz     :     0.067698
      dyz     :     0.022313
      dx2y2   :     0.001429
      dxy     :     0.003040
      f0      :     0.000009  f :     0.000121
      f+1     :     0.000005
      f-1     :     0.000002
      f+2     :     0.000023
      f-2     :     0.000070
      f+3     :     0.000001
      f-3     :     0.000011
      g0      :     0.000000  g :     0.000000
      g+1     :    -0.000000
      g-1     :    -0.000000
      g+2     :    -0.000000
      g-2     :     0.000000
      g+3     :     0.000000
      g-3     :     0.000000
      g+4     :     0.000000
      g-4     :     0.000000
  3 Cus       :     0.178594  s :     0.178594
      pz      :    -0.000319  p :     0.001849
      px      :     0.001084
      py      :     0.001084
      dz2     :     0.006236  d :    -0.007242
      dxz     :    -0.006643
      dyz     :    -0.006641
      dx2y2   :    -0.000097
      dxy     :    -0.000097
      f0      :     0.000007  f :    -0.000007
      f+1     :    -0.000006
      f-1     :    -0.000006
      f+2     :    -0.000001
      f-2     :    -0.000001
      f+3     :    -0.000000
      f-3     :     0.000001
      g0      :     0.000000  g :    -0.000000
      g+1     :    -0.000000
      g-1     :    -0.000000
      g+2     :    -0.000000
      g-2     :    -0.000000
      g+3     :     0.000000
      g-3     :    -0.000000
      g+4     :     0.000000
      g-4     :     0.000000
  4 H s       :     0.120939  s :     0.120939
      pz      :     0.016514  p :     0.014885
      px      :    -0.000815
      py      :    -0.000815
      dz2     :     0.000089  d :     0.000085
      dxz     :     0.000007
      dyz     :     0.000007
      dx2y2   :    -0.000009
      dxy     :    -0.000009


                      *****************************
                      * MAYER POPULATION ANALYSIS *
                      *****************************

  NA   - Mulliken gross atomic population
  ZA   - Total nuclear charge
  QA   - Mulliken gross atomic charge
  VA   - Mayer's total valence
  BVA  - Mayer's bonded valence
  FA   - Mayer's free valence

  ATOM       NA         ZA         QA         VA         BVA        FA
  0 Cu    28.5410    29.0000     0.4590     1.2933     1.2617     0.0316
  1 Cu    28.5409    29.0000     0.4591     1.2932     1.2616     0.0316
  2 Cu    28.5409    29.0000     0.4591     1.2932     1.2616     0.0316
  3 Cu    28.6472    29.0000     0.3528     1.1311     0.8065     0.3245
  4 H      0.7300     1.0000     0.2700     0.6664     0.6038     0.0627

  Mayer bond orders larger than 0.100000
B(  0-Cu,  1-Cu) :   0.4021 B(  0-Cu,  2-Cu) :   0.4021 B(  0-Cu,  3-Cu) :   0.2625 
B(  0-Cu,  4-H ) :   0.1949 B(  1-Cu,  2-Cu) :   0.4020 B(  1-Cu,  3-Cu) :   0.2625 
B(  1-Cu,  4-H ) :   0.1949 B(  2-Cu,  3-Cu) :   0.2625 B(  2-Cu,  4-H ) :   0.1949 


-------
TIMINGS
-------

Total SCF time: 0 days 0 hours 0 min 36 sec 

Total time                  ....      36.151 sec
Sum of individual times     ....      35.751 sec  ( 98.9%)

Fock matrix formation       ....      34.595 sec  ( 95.7%)
  XC integration            ....       1.932 sec  (  5.6% of F)
    Basis function eval.    ....       0.111 sec  (  5.7% of XC)
    Density eval.           ....       0.403 sec  ( 20.9% of XC)
    XC-Functional eval.     ....       0.051 sec  (  2.6% of XC)
    XC-Potential eval.      ....       0.808 sec  ( 41.8% of XC)
Diagonalization             ....       0.447 sec  (  1.2%)
Density matrix formation    ....       0.040 sec  (  0.1%)
Population analysis         ....       0.024 sec  (  0.1%)
Initial guess               ....       0.126 sec  (  0.3%)
Orbital Transformation      ....       0.000 sec  (  0.0%)
Orbital Orthonormalization  ....       0.000 sec  (  0.0%)
DIIS solution               ....       0.170 sec  (  0.5%)
Grid generation             ....       0.349 sec  (  1.0%)

-------------------------   --------------------
FINAL SINGLE POINT ENERGY     -6561.685946680061
-------------------------   --------------------


                            ***************************************
                            *     ORCA property calculations      *
                            ***************************************

                                    ---------------------
                                    Active property flags
                                    ---------------------
   (+) Dipole Moment


------------------------------------------------------------------------------
                       ORCA ELECTRIC PROPERTIES CALCULATION
------------------------------------------------------------------------------

Dipole Moment Calculation                       ... on
Quadrupole Moment Calculation                   ... off
Polarizability Calculation                      ... off
GBWName                                         ... Cu04C2_H_F.gbw
Electron density file                           ... Cu04C2_H_F.scfp
The origin for moment calculation is the CENTER OF MASS  = ( 0.000000,  0.000000  0.013733)

-------------
DIPOLE MOMENT
-------------
                                X             Y             Z
Electronic contribution:     -0.00000       0.00001       1.61808
Nuclear contribution   :      0.00000       0.00000      -1.60670
                        -----------------------------------------
Total Dipole Moment    :     -0.00000       0.00001       0.01138
                        -----------------------------------------
Magnitude (a.u.)       :      0.01138
Magnitude (Debye)      :      0.02893



--------------------
Rotational spectrum 
--------------------
 
Rotational constants in cm-1:     0.045915     0.042882     0.042882 
Rotational constants in MHz :  1376.483459  1285.559854  1285.559421 

 Dipole components along the rotational axes: 
x,y,z [a.u.] :     0.011383     0.000009    -0.000000 
x,y,z [Debye]:     0.028933     0.000023    -0.000000 

 

Timings for individual modules:

Sum of individual times         ...       37.387 sec (=   0.623 min)
GTO integral calculation        ...        0.850 sec (=   0.014 min)   2.3 %
SCF iterations                  ...       36.538 sec (=   0.609 min)  97.7 %
                             ****ORCA TERMINATED NORMALLY****
TOTAL RUN TIME: 0 days 0 hours 0 minutes 37 seconds 851 msec
