
                                 *****************
                                 * O   R   C   A *
                                 *****************

           --- An Ab Initio, DFT and Semiempirical electronic structure package ---

                  #######################################################
                  #                        -***-                        #
                  #          Department of theory and spectroscopy      #
                  #               Directorship: Frank Neese             #
                  #        Max Planck Institute fuer Kohlenforschung    #
                  #                Kaiser Wilhelm Platz 1               #
                  #                 D-45470 Muelheim/Ruhr               #
                  #                      Germany                        #
                  #                                                     #
                  #                  All rights reserved                #
                  #                        -***-                        #
                  #######################################################


                         Program Version 4.2.0 -  RELEASE  -


 With contributions from (in alphabetic order):
   Daniel Aravena         : Magnetic Suceptibility
   Michael Atanasov       : Ab Initio Ligand Field Theory (pilot matlab implementation)
   Alexander A. Auer      : GIAO ZORA, VPT2
   Ute Becker             : Parallelization
   Giovanni Bistoni       : ED, misc. LED, open-shell LED, HFLED
   Martin Brehm           : Molecular dynamics
   Dmytro Bykov           : SCF Hessian
   Vijay G. Chilkuri      : MRCI spin determinant printing, contributions to CSF-ICE
   Dipayan Datta          : RHF DLPNO-CCSD density
   Achintya Kumar Dutta   : EOM-CC, STEOM-CC
   Dmitry Ganyushin       : Spin-Orbit,Spin-Spin,Magnetic field MRCI
   Miquel Garcia          : C-PCM Hessian, Gaussian charge scheme
   Yang Guo               : DLPNO-NEVPT2, CIM, IAO-localization
   Andreas Hansen         : Spin unrestricted coupled pair/coupled cluster methods
   Benjamin Helmich-Paris : CASSCF linear response (MC-RPA)
   Lee Huntington         : MR-EOM, pCC
   Robert Izsak           : Overlap fitted RIJCOSX, COSX-SCS-MP3, EOM
   Christian Kollmar      : KDIIS, OOCD, Brueckner-CCSD(T), CCSD density
   Simone Kossmann        : Meta GGA functionals, TD-DFT gradient, OOMP2, MP2 Hessian
   Martin Krupicka        : AUTO-CI
   Lucas Lang             : DCDCAS
   Dagmar Lenk            : GEPOL surface, SMD
   Dimitrios Liakos       : Extrapolation schemes; Compound Job, initial MDCI parallelization
   Dimitrios Manganas     : Further ROCIS development; embedding schemes
   Dimitrios Pantazis     : SARC Basis sets
   Taras Petrenko         : DFT Hessian,TD-DFT gradient, ASA, ECA, R-Raman, ABS, FL, XAS/XES, NRVS
   Peter Pinski           : DLPNO-MP2, DLPNO-MP2 Gradient
   Christoph Reimann      : Effective Core Potentials
   Marius Retegan         : Local ZFS, SOC
   Christoph Riplinger    : Optimizer, TS searches, QM/MM, DLPNO-CCSD(T), (RO)-DLPNO pert. Triples
   Tobias Risthaus        : Range-separated hybrids, TD-DFT gradient, RPA, STAB
   Michael Roemelt        : Original ROCIS implementation
   Masaaki Saitow         : Open-shell DLPNO-CCSD energy and density
   Barbara Sandhoefer     : DKH picture change effects
   Avijit Sen             : IP-ROCIS
   Kantharuban Sivalingam : CASSCF convergence, NEVPT2, FIC-MRCI
   Bernardo de Souza      : ESD, SOC TD-DFT
   Georgi Stoychev        : AutoAux, RI-MP2 NMR
   Willem Van den Heuvel  : Paramagnetic NMR
   Boris Wezisla          : Elementary symmetry handling
   Frank Wennmohs         : Technical directorship


 We gratefully acknowledge several colleagues who have allowed us to
 interface, adapt or use parts of their codes:
   Stefan Grimme, W. Hujo, H. Kruse,             : VdW corrections, initial TS optimization,
                  C. Bannwarth                     DFT functionals, gCP, sTDA/sTD-DF
   Ed Valeev, F. Pavosevic, A. Kumar             : LibInt (2-el integral package), F12 methods
   Garnet Chan, S. Sharma, J. Yang, R. Olivares  : DMRG
   Ulf Ekstrom                                   : XCFun DFT Library
   Mihaly Kallay                                 : mrcc  (arbitrary order and MRCC methods)
   Andreas Klamt, Michael Diedenhofen            : otool_cosmo (COSMO solvation model)
   Jiri Pittner, Ondrej Demel                    : Mk-CCSD
   Frank Weinhold                                : gennbo (NPA and NBO analysis)
   Christopher J. Cramer and Donald G. Truhlar   : smd solvation model
   Lars Goerigk                                  : TD-DFT with DH, B97 family of functionals
   V. Asgeirsson, H. Jonsson                     : NEB implementation
   FAccTs GmbH                                   : IRC, NEB, NEB-TS, Multilevel, MM, QM/MM, CI optimization
   S Lehtola, MJT Oliveira, MAL Marques          : LibXC Library


 Your calculation uses the libint2 library for the computation of 2-el integrals
 For citations please refer to: http://libint.valeyev.net

 Your ORCA version has been built with support for libXC version: 4.2.3
 For citations please refer to: https://tddft.org/programs/libxc/

 This ORCA versions uses:
   CBLAS   interface :  Fast vector & matrix operations
   LAPACKE interface :  Fast linear algebra routines
   SCALAPACK package :  Parallel linear algebra routines


Your calculation utilizes the DFT-NL dispersion correction.
Cite in your paper:
Vydrov, O. A.; Van Voorhis, T. J. Chem. Phys. 2010, 133, 244103
Hujo, W.; Grimme, S. J. Chem. Theory Comput. 2011, 7, 3866 
   

----- Orbital basis set information -----
Your calculation utilizes the basis: def2-TZVPPD
   F. Weigend and R. Ahlrichs, Phys. Chem. Chem. Phys. 7, 3297 (2005).
   D. Rappoport and F. Furche, J. Chem. Phys. 133 134105 (2010).

----- AuxJK basis set information -----
Your calculation utilizes the auxiliary basis: def2/JK
   H-Ba, Hf-Rn: F. Weigend, J. Comput. Chem. 29, 167 (2008).

================================================================================
                                        WARNINGS
                       Please study these warnings very carefully!
================================================================================


INFO   : the flag for use of LIBINT has been found!

================================================================================
                                       INPUT FILE
================================================================================
NAME = NH3.in
|  1> #
|  2> # NH3 wB97M-V/Def2-TZVPPD
|  3> #
|  4> ! wb97m-v def2-tzvppd def2/jk grid4 nofinalgrid
|  5> 
|  6> *xyz 0 1
|  7> N       -0.000000    0.125670    0.000000 
|  8> H       -0.933163   -0.293418    0.000000 
|  9> H        0.466582   -0.293138    0.808252 
| 10> H        0.466582   -0.293138   -0.808252 
| 11> *
| 12> 
| 13> %maxcore 5000
| 14> 
| 15> %pal
| 16> nprocs = 24
| 17> end
| 18> 
| 19> 
| 20>                          ****END OF INPUT****
================================================================================

                       ****************************
                       * Single Point Calculation *
                       ****************************

---------------------------------
CARTESIAN COORDINATES (ANGSTROEM)
---------------------------------
  N     -0.000000    0.125670    0.000000
  H     -0.933163   -0.293418    0.000000
  H      0.466582   -0.293138    0.808252
  H      0.466582   -0.293138   -0.808252

----------------------------
CARTESIAN COORDINATES (A.U.)
----------------------------
  NO LB      ZA    FRAG     MASS         X           Y           Z
   0 N     7.0000    0    14.007   -0.000000    0.237482    0.000000
   1 H     1.0000    0     1.008   -1.763423   -0.554480    0.000000
   2 H     1.0000    0     1.008    0.881712   -0.553951    1.527375
   3 H     1.0000    0     1.008    0.881712   -0.553951   -1.527375

--------------------------------
INTERNAL COORDINATES (ANGSTROEM)
--------------------------------
 N      0   0   0     0.000000000000     0.00000000     0.00000000
 H      1   0   0     1.022950603066     0.00000000     0.00000000
 H      1   2   0     1.022922381753   104.38025937     0.00000000
 H      1   2   3     1.022922381753   104.38025937   109.31265228

---------------------------
INTERNAL COORDINATES (A.U.)
---------------------------
 N      0   0   0     0.000000000000     0.00000000     0.00000000
 H      1   0   0     1.933096488324     0.00000000     0.00000000
 H      1   2   0     1.933043157772   104.38025937     0.00000000
 H      1   2   3     1.933043157772   104.38025937   109.31265228

---------------------
BASIS SET INFORMATION
---------------------
There are 2 groups of distinct atoms

 Group   1 Type N   : 12s6p3d1f contracted to 6s3p3d1f pattern {621111/411/111/1}
 Group   2 Type H   : 5s3p1d contracted to 3s3p1d pattern {311/111/1}

Atom   0N    basis set group =>   1
Atom   1H    basis set group =>   2
Atom   2H    basis set group =>   2
Atom   3H    basis set group =>   2
----------------------------------
AUXILIARY/JK BASIS SET INFORMATION
----------------------------------
There are 2 groups of distinct atoms

 Group   1 Type N   : 14s10p6d2f1g contracted to 10s8p4d2f1g pattern {5111111111/31111111/3111/11/1}
 Group   2 Type H   : 4s2p2d contracted to 2s2p2d pattern {31/11/11}

Atom   0N    basis set group =>   1
Atom   1H    basis set group =>   2
Atom   2H    basis set group =>   2
Atom   3H    basis set group =>   2


           ************************************************************
           *        Program running with 24 parallel MPI-processes    *
           *              working on a common directory               *
           ************************************************************
------------------------------------------------------------------------------
                           ORCA GTO INTEGRAL CALCULATION
------------------------------------------------------------------------------

                         BASIS SET STATISTICS AND STARTUP INFO

 # of primitive gaussian shells          ...   49
 # of primitive gaussian functions       ...  109
 # of contracted shells                  ...   34
 # of contracted basis functions         ...   88
 Highest angular momentum                ...    3
 Maximum contraction depth               ...    6
 Integral package used                   ... LIBINT
 Integral threshhold            Thresh   ...  1.000e-10
 Primitive cut-off              TCut     ...  1.000e-11


------------------------------ INTEGRAL EVALUATION ----------------------------


 * One electron integrals 
 Pre-screening matrix                    ... done
 Shell pair data                         ... done (   0.000 sec)



           ************************************************************
           *        Program running with 24 parallel MPI-processes    *
           *              working on a common directory               *
           ************************************************************
-------------------------------------------------------------------------------
                                 ORCA SCF
-------------------------------------------------------------------------------

------------
SCF SETTINGS
------------
Hamiltonian:
 Density Functional     Method          .... DFT(GTOs)
 Exchange Functional    Exchange        .... WB97M-V
 Correlation Functional Correlation     .... WB97M-V
 Gradients option       PostSCFGGA      .... off
 Hybrid DFT is turned on
   Fraction HF Exchange ScalHFX         ....  0.150000
   Scaling of DF-GGA-X  ScalDFX         ....  0.000000
   Scaling of DF-GGA-C  ScalDFC         ....  1.000000
   Scaling of DF-LDA-C  ScalLDAC        ....  1.000000
   Perturbative correction              ....  0.000000
   Density functional embedding theory  .... OFF
 Long-range corrected/Screened/Range-Separated Hybrid DFT is turned on
   Amount of maximum screened exact exchange              ....  0.850000
   Range separation parameter mu (erf(mu*r12)/r12)        ....  0.300000
   NL short-range parameter             ....  6.000000
   NL long-range parameter              ....  0.010000


General Settings:
 Integral files         IntName         .... NH3
 Hartree-Fock type      HFTyp           .... RHF
 Total Charge           Charge          ....    0
 Multiplicity           Mult            ....    1
 Number of Electrons    NEL             ....   10
 Basis Dimension        Dim             ....   88
 Nuclear Repulsion      ENuc            ....     11.8457428677 Eh

Convergence Acceleration:
 DIIS                   CNVDIIS         .... on
   Start iteration      DIISMaxIt       ....    12
   Startup error        DIISStart       ....  0.200000
   # of expansion vecs  DIISMaxEq       ....     5
   Bias factor          DIISBfac        ....   1.050
   Max. coefficient     DIISMaxC        ....  10.000
 Newton-Raphson         CNVNR           .... off
 SOSCF                  CNVSOSCF        .... on
   Start iteration      SOSCFMaxIt      ....   150
   Startup grad/error   SOSCFStart      ....  0.003300
 Level Shifting         CNVShift        .... on
   Level shift para.    LevelShift      ....    0.2500
   Turn off err/grad.   ShiftErr        ....    0.0010
 Zerner damping         CNVZerner       .... off
 Static damping         CNVDamp         .... on
   Fraction old density DampFac         ....    0.7000
   Max. Damping (<1)    DampMax         ....    0.9800
   Min. Damping (>=0)   DampMin         ....    0.0000
   Turn off err/grad.   DampErr         ....    0.1000
 Fernandez-Rico         CNVRico         .... off

SCF Procedure:
 Maximum # iterations   MaxIter         ....   125
 SCF integral mode      SCFMode         .... Direct
   Integral package                     .... LIBINT
 Reset frequency        DirectResetFreq ....    20
 Integral Threshold     Thresh          ....  1.000e-10 Eh
 Primitive CutOff       TCut            ....  1.000e-11 Eh

Convergence Tolerance:
 Convergence Check Mode ConvCheckMode   .... Total+1el-Energy
 Convergence forced     ConvForced      .... 0
 Energy Change          TolE            ....  1.000e-06 Eh
 1-El. energy change                    ....  1.000e-03 Eh
 Orbital Gradient       TolG            ....  5.000e-05
 Orbital Rotation angle TolX            ....  5.000e-05
 DIIS Error             TolErr          ....  1.000e-06


Diagonalization of the overlap matrix:
Smallest eigenvalue                        ... 4.011e-04
Time for diagonalization                   ...    0.004 sec
Threshold for overlap eigenvalues          ... 1.000e-08
Number of eigenvalues below threshold      ... 0
Time for construction of square roots      ...    0.002 sec
Total time needed                          ...    0.005 sec

-------------------
DFT GRID GENERATION
-------------------

General Integration Accuracy     IntAcc      ...  4.670
Radial Grid Type                 RadialGrid  ... Gauss-Chebyshev
Angular Grid (max. acc.)         AngularGrid ... Lebedev-302
Angular grid pruning method      GridPruning ... 3 (G Style)
Weight generation scheme         WeightScheme... Becke
Basis function cutoff            BFCut       ...    1.0000e-10
Integration weight cutoff        WCut        ...    1.0000e-14
Grids for H and He will be reduced by one unit

# of grid points (after initial pruning)     ...  16394 (   0.0 sec)
# of grid points (after weights+screening)   ...  16118 (   0.0 sec)
nearest neighbour list constructed           ...    0.0 sec
Grid point re-assignment to atoms done       ...    0.0 sec
Grid point division into batches done        ...    0.1 sec
Reduced shell lists constructed in    0.1 sec

Total number of grid points                  ...    16118
Total number of batches                      ...      254
Average number of points per batch           ...       63
Average number of grid points per atom       ...     4030
Average number of shells per batch           ...    22.83 (67.16%)
Average number of basis functions per batch  ...    58.67 (66.67%)
Average number of large shells per batch     ...    19.17 (83.94%)
Average number of large basis fcns per batch ...    49.83 (84.94%)
Maximum spatial batch extension              ...  13.13, 11.83, 13.13 au
Average spatial batch extension              ...   0.25,  0.27,  0.26 au

Time for grid setup =    0.095 sec

------------------------------
INITIAL GUESS: MODEL POTENTIAL
------------------------------
Loading Hartree-Fock densities                     ... done
Calculating cut-offs                               ... done
Setting up the integral package                    ... done
Initializing the effective Hamiltonian             ... done
Starting the Coulomb interaction                   ... done (   0.0 sec)
Reading the grid                                   ... done
Mapping shells                                     ... done
Starting the XC term evaluation                    ... done (   0.0 sec)
  promolecular density results
     # of electrons  =      9.998529348
     EX              =     -7.399082050
     EC              =     -0.305298365
     EX+EC           =     -7.704380414
Transforming the Hamiltonian                       ... done (   0.0 sec)
Diagonalizing the Hamiltonian                      ... done (   0.0 sec)
Back transforming the eigenvectors                 ... done (   0.0 sec)
Now organizing SCF variables                       ... done
                      ------------------
                      INITIAL GUESS DONE (   0.2 sec)
                      ------------------
--------------
SCF ITERATIONS
--------------
ITER       Energy         Delta-E        Max-DP      RMS-DP      [F,P]     Damp
               ***  Starting incremental Fock matrix formation  ***
  0    -56.4775700614   0.000000000000 0.04765532  0.00172420  0.3370478 0.7000
  1    -56.5298162463  -0.052246184967 0.03052971  0.00128462  0.1784117 0.7000
                               ***Turning on DIIS***
  2    -56.5527203912  -0.022904144830 0.04985869  0.00238624  0.0732367 0.0000
  3    -56.5863515279  -0.033631136780 0.02200751  0.00076264  0.0910765 0.0000
  4    -56.5941401935  -0.007788665577 0.00281698  0.00016962  0.0138698 0.0000
                      *** Initiating the SOSCF procedure ***
                           *** Shutting down DIIS ***
                      *** Re-Reading the Fockian *** 
                      *** Removing any level shift *** 
ITER      Energy       Delta-E        Grad      Rot      Max-DP    RMS-DP
  5    -56.59434707  -0.0002068772  0.000728  0.000728  0.001033  0.000050
               *** Restarting incremental Fock matrix formation ***
  6    -56.59435548  -0.0000084110  0.000320  0.000578  0.000887  0.000029
  7    -56.59435604  -0.0000005579  0.000187  0.000221  0.000352  0.000010
                 **** Energy Check signals convergence ****
              ***Rediagonalizing the Fockian in SOSCF/NRSCF***

               *****************************************************
               *                     SUCCESS                       *
               *           SCF CONVERGED AFTER   8 CYCLES          *
               *****************************************************


Setting up the DFT-NL grid :

General Integration Accuracy     IntAcc      ...  4.340
Radial Grid Type                 RadialGrid  ... Gauss-Chebyshev
Angular Grid (max. acc.)         AngularGrid ... Lebedev-110
Angular grid pruning method      GridPruning ... 3 (G Style)
Weight generation scheme         WeightScheme... Becke
Basis function cutoff            BFCut       ...    1.0000e-10
Integration weight cutoff        WCut        ...    1.0000e-14
Grids for H and He will be reduced by one unit

# of grid points (after initial pruning)     ...   4084 (   0.0 sec)
# of grid points (after weights+screening)   ...   4025 (   0.0 sec)
nearest neighbour list constructed           ...    0.0 sec
Grid point re-assignment to atoms done       ...    0.0 sec
Grid point division into batches done        ...    0.0 sec
Reduced shell lists constructed in    0.0 sec

Total number of grid points                  ...     4025
Total number of batches                      ...       65
Average number of points per batch           ...       61
Average number of grid points per atom       ...     1006
Average number of shells per batch           ...    21.75 (63.97%)
Average number of basis functions per batch  ...    56.25 (63.92%)
Average number of large shells per batch     ...    20.25 (93.10%)
Average number of large basis fcns per batch ...    51.75 (92.00%)
Maximum spatial batch extension              ...  15.12, 13.67, 10.94 au
Average spatial batch extension              ...   0.47,  0.45,  0.31 au

Final grid set up in    0.0 sec

-------------------------------------------------------------------------------
                         DFT-NL dispersion correction                          
-------------------------------------------------------------------------------

SC Energy -56.594356358 
NL    Energy 0.041804987 
SC+NL Energy -56.552551372 
NL done in    0.0 sec
-------------------------------------------------------------------------------

----------------
TOTAL SCF ENERGY
----------------

Total Energy       :          -56.55255137 Eh           -1538.87316 eV

Components:
Nuclear Repulsion  :           11.84574287 Eh             322.33905 eV
Electronic Energy  :          -68.39829424 Eh           -1861.21221 eV
One Electron Energy:          -99.44670143 Eh           -2706.08232 eV
Two Electron Energy:           31.04840719 Eh             844.87011 eV

Virial components:
Potential Energy   :         -112.88660381 Eh           -3071.80066 eV
Kinetic Energy     :           56.33405244 Eh            1532.92750 eV
Virial Ratio       :            2.00387863


DFT components:
N(Alpha)           :        4.999984392967 electrons
N(Beta)            :        4.999984392967 electrons
N(Total)           :        9.999968785935 electrons
E(X)               :       -5.254902976973 Eh       
E(C)               :       -0.297188885567 Eh       
NL Energy, E(C,NL) :        0.041804986566 Eh       
E(XC)              :       -5.510286875974 Eh       
DFET-embed. en.    :        0.000000000000 Eh       

---------------
SCF CONVERGENCE
---------------

  Last Energy change         ...   -3.1853e-07  Tolerance :   1.0000e-06
  Last MAX-Density change    ...    9.9217e-05  Tolerance :   1.0000e-05
  Last RMS-Density change    ...    4.0969e-06  Tolerance :   1.0000e-06
  Last Orbital Gradient      ...    2.9045e-05  Tolerance :   5.0000e-05
  Last Orbital Rotation      ...    8.2307e-05  Tolerance :   5.0000e-05

             **** THE GBW FILE WAS UPDATED (NH3.gbw) ****
             **** DENSITY FILE WAS UPDATED (NH3.scfp) ****
             **** ENERGY FILE WAS UPDATED (NH3.en.tmp) ****
             **** THE GBW FILE WAS UPDATED (NH3.gbw) ****
             **** DENSITY FILE WAS UPDATED (NH3.scfp) ****
----------------
ORBITAL ENERGIES
----------------

  NO   OCC          E(Eh)            E(eV) 
   0   2.0000     -14.488941      -394.2641 
   1   2.0000      -0.977872       -26.6093 
   2   2.0000      -0.562839       -15.3156 
   3   2.0000      -0.562789       -15.3143 
   4   2.0000      -0.383910       -10.4467 
   5   0.0000       0.044386         1.2078 
   6   0.0000       0.120483         3.2785 
   7   0.0000       0.120488         3.2786 
   8   0.0000       0.169655         4.6165 
   9   0.0000       0.185327         5.0430 
  10   0.0000       0.185332         5.0431 
  11   0.0000       0.224392         6.1060 
  12   0.0000       0.224393         6.1060 
  13   0.0000       0.224937         6.1208 
  14   0.0000       0.292777         7.9669 
  15   0.0000       0.333357         9.0711 
  16   0.0000       0.350248         9.5307 
  17   0.0000       0.350268         9.5313 
  18   0.0000       0.418919        11.3994 
  19   0.0000       0.418938        11.3999 
  20   0.0000       0.468272        12.7423 
  21   0.0000       0.508288        13.8312 
  22   0.0000       0.508306        13.8317 
  23   0.0000       0.643240        17.5035 
  24   0.0000       0.658496        17.9186 
  25   0.0000       0.683774        18.6064 
  26   0.0000       0.683847        18.6084 
  27   0.0000       0.764430        20.8012 
  28   0.0000       0.764451        20.8018 
  29   0.0000       0.899274        24.4705 
  30   0.0000       1.018392        27.7119 
  31   0.0000       1.018410        27.7123 
  32   0.0000       1.150789        31.3146 
  33   0.0000       1.152696        31.3665 
  34   0.0000       1.269153        34.5354 
  35   0.0000       1.269163        34.5357 
  36   0.0000       1.302094        35.4318 
  37   0.0000       1.302165        35.4337 
  38   0.0000       1.454086        39.5677 
  39   0.0000       1.641683        44.6725 
  40   0.0000       1.692938        46.0672 
  41   0.0000       1.692971        46.0681 
  42   0.0000       1.835243        49.9395 
  43   0.0000       1.835319        49.9416 
  44   0.0000       2.305287        62.7301 
  45   0.0000       2.530223        68.8509 
  46   0.0000       2.530301        68.8530 
  47   0.0000       2.621211        71.3268 
  48   0.0000       2.831546        77.0503 
  49   0.0000       2.990375        81.3722 
  50   0.0000       2.990413        81.3733 
  51   0.0000       3.141359        85.4807 
  52   0.0000       3.307935        90.0135 
  53   0.0000       3.360793        91.4518 
  54   0.0000       3.360797        91.4519 
  55   0.0000       3.378267        91.9273 
  56   0.0000       3.378390        91.9307 
  57   0.0000       3.554852        96.7325 
  58   0.0000       3.567974        97.0895 
  59   0.0000       3.567998        97.0902 
  60   0.0000       3.882771       105.6556 
  61   0.0000       3.909391       106.3799 
  62   0.0000       3.909423       106.3808 
  63   0.0000       3.989538       108.5608 
  64   0.0000       3.989558       108.5614 
  65   0.0000       3.996073       108.7387 
  66   0.0000       4.186864       113.9304 
  67   0.0000       4.186921       113.9319 
  68   0.0000       4.437114       120.7400 
  69   0.0000       4.500600       122.4675 
  70   0.0000       4.500694       122.4701 
  71   0.0000       4.564779       124.2139 
  72   0.0000       4.806654       130.7957 
  73   0.0000       5.000274       136.0644 
  74   0.0000       5.000350       136.0664 
  75   0.0000       5.271592       143.4473 
  76   0.0000       5.271673       143.4495 
  77   0.0000       5.293978       144.0565 
  78   0.0000       5.541914       150.8031 
  79   0.0000       5.889142       160.2517 
  80   0.0000       5.896616       160.4551 
  81   0.0000       5.896874       160.4621 
  82   0.0000       6.048132       164.5780 
  83   0.0000       6.048135       164.5781 
  84   0.0000       6.480869       176.3534 
  85   0.0000       6.702724       182.3904 
  86   0.0000       6.702945       182.3964 
  87   0.0000      33.080876       900.1764 

                    ********************************
                    * MULLIKEN POPULATION ANALYSIS *
                    ********************************

-----------------------
MULLIKEN ATOMIC CHARGES
-----------------------
   0 N :   -0.306282
   1 H :    0.102006
   2 H :    0.102138
   3 H :    0.102138
Sum of atomic charges:   -0.0000000

--------------------------------
MULLIKEN REDUCED ORBITAL CHARGES
--------------------------------
  0 N s       :     3.635004  s :     3.635004
      pz      :     1.084333  p :     3.653677
      px      :     1.084549
      py      :     1.484795
      dz2     :     0.000622  d :     0.017908
      dxz     :     0.000042
      dyz     :     0.007728
      dx2y2   :     0.001778
      dxy     :     0.007739
      f0      :     0.000012  f :    -0.000307
      f+1     :    -0.000058
      f-1     :    -0.000087
      f+2     :     0.000020
      f-2     :    -0.000231
      f+3     :     0.000026
      f-3     :     0.000009
  1 H s       :     0.794113  s :     0.794113
      pz      :     0.020050  p :     0.098336
      px      :     0.029373
      py      :     0.048913
      dz2     :     0.000501  d :     0.005546
      dxz     :     0.001216
      dyz     :     0.000088
      dx2y2   :     0.001935
      dxy     :     0.001805
  2 H s       :     0.794026  s :     0.794026
      pz      :     0.027017  p :     0.098292
      px      :     0.022382
      py      :     0.048893
      dz2     :     0.001609  d :     0.005545
      dxz     :     0.001355
      dyz     :     0.001376
      dx2y2   :     0.000688
      dxy     :     0.000517
  3 H s       :     0.794026  s :     0.794026
      pz      :     0.027017  p :     0.098292
      px      :     0.022382
      py      :     0.048893
      dz2     :     0.001609  d :     0.005545
      dxz     :     0.001355
      dyz     :     0.001376
      dx2y2   :     0.000688
      dxy     :     0.000517


                     *******************************
                     * LOEWDIN POPULATION ANALYSIS *
                     *******************************

----------------------
LOEWDIN ATOMIC CHARGES
----------------------
   0 N :    0.452300
   1 H :   -0.150751
   2 H :   -0.150774
   3 H :   -0.150774

-------------------------------
LOEWDIN REDUCED ORBITAL CHARGES
-------------------------------
  0 N s       :     2.930600  s :     2.930600
      pz      :     1.078256  p :     3.492249
      px      :     1.078271
      py      :     1.335722
      dz2     :     0.026147  d :     0.116461
      dxz     :     0.032865
      dyz     :     0.022381
      dx2y2   :     0.012676
      dxy     :     0.022392
      f0      :     0.000003  f :     0.008391
      f+1     :     0.002012
      f-1     :     0.001993
      f+2     :     0.000005
      f-2     :     0.002746
      f+3     :     0.000141
      f-3     :     0.001490
  1 H s       :     0.667911  s :     0.667911
      pz      :     0.095772  p :     0.425951
      px      :     0.155510
      py      :     0.174669
      dz2     :     0.004712  d :     0.056890
      dxz     :     0.014342
      dyz     :     0.002136
      dx2y2   :     0.015730
      dxy     :     0.019969
  2 H s       :     0.667925  s :     0.667925
      pz      :     0.140582  p :     0.425955
      px      :     0.110719
      py      :     0.174654
      dz2     :     0.015535  d :     0.056894
      dxz     :     0.012210
      dyz     :     0.015516
      dx2y2   :     0.007040
      dxy     :     0.006593
  3 H s       :     0.667925  s :     0.667925
      pz      :     0.140582  p :     0.425955
      px      :     0.110719
      py      :     0.174654
      dz2     :     0.015535  d :     0.056894
      dxz     :     0.012210
      dyz     :     0.015516
      dx2y2   :     0.007040
      dxy     :     0.006593


                      *****************************
                      * MAYER POPULATION ANALYSIS *
                      *****************************

  NA   - Mulliken gross atomic population
  ZA   - Total nuclear charge
  QA   - Mulliken gross atomic charge
  VA   - Mayer's total valence
  BVA  - Mayer's bonded valence
  FA   - Mayer's free valence

  ATOM       NA         ZA         QA         VA         BVA        FA
  0 N      7.3063     7.0000    -0.3063     3.0340     3.0340    -0.0000
  1 H      0.8980     1.0000     0.1020     1.0742     1.0742    -0.0000
  2 H      0.8979     1.0000     0.1021     1.0741     1.0741    -0.0000
  3 H      0.8979     1.0000     0.1021     1.0741     1.0741    -0.0000

  Mayer bond orders larger than 0.100000
B(  0-N ,  1-H ) :   1.0114 B(  0-N ,  2-H ) :   1.0113 B(  0-N ,  3-H ) :   1.0113 


-------
TIMINGS
-------

Total SCF time: 0 days 0 hours 0 min 1 sec 

Total time                  ....       1.622 sec
Sum of individual times     ....       1.435 sec  ( 88.5%)

Fock matrix formation       ....       1.215 sec  ( 74.9%)
  XC integration            ....       0.137 sec  ( 11.3% of F)
    Basis function eval.    ....       0.013 sec  (  9.3% of XC)
    Density eval.           ....       0.017 sec  ( 12.6% of XC)
    XC-Functional eval.     ....       0.010 sec  (  7.1% of XC)
    XC-Potential eval.      ....       0.035 sec  ( 25.7% of XC)
Diagonalization             ....       0.006 sec  (  0.4%)
Density matrix formation    ....       0.002 sec  (  0.2%)
Population analysis         ....       0.003 sec  (  0.2%)
Initial guess               ....       0.102 sec  (  6.3%)
Orbital Transformation      ....       0.000 sec  (  0.0%)
Orbital Orthonormalization  ....       0.000 sec  (  0.0%)
DIIS solution               ....       0.003 sec  (  0.2%)
SOSCF solution              ....       0.002 sec  (  0.1%)
Grid generation             ....       0.102 sec  (  6.3%)

-------------------------   --------------------
FINAL SINGLE POINT ENERGY       -56.552551371580
-------------------------   --------------------


                            ***************************************
                            *     ORCA property calculations      *
                            ***************************************

                                    ---------------------
                                    Active property flags
                                    ---------------------
   (+) Dipole Moment


------------------------------------------------------------------------------
                       ORCA ELECTRIC PROPERTIES CALCULATION
------------------------------------------------------------------------------

Dipole Moment Calculation                       ... on
Quadrupole Moment Calculation                   ... off
Polarizability Calculation                      ... off
GBWName                                         ... NH3.gbw
Electron density file                           ... NH3.scfp
The origin for moment calculation is the CENTER OF MASS  = ( 0.000000,  0.096925  0.000000)

-------------
DIPOLE MOMENT
-------------
                                X             Y             Z
Electronic contribution:      0.00006       0.32350      -0.00000
Nuclear contribution   :      0.00000      -0.96926       0.00000
                        -----------------------------------------
Total Dipole Moment    :      0.00006      -0.64576      -0.00000
                        -----------------------------------------
Magnitude (a.u.)       :      0.64576
Magnitude (Debye)      :      1.64138



--------------------
Rotational spectrum 
--------------------
 
Rotational constants in cm-1:     9.616093     9.614148     6.400903 
Rotational constants in MHz : 288283.214631 288224.911301 191894.257358 

 Dipole components along the rotational axes: 
x,y,z [a.u.] :    -0.000000     0.000129    -0.645756 
x,y,z [Debye]:    -0.000000     0.000329    -1.641382 

 

Timings for individual modules:

Sum of individual times         ...        2.681 sec (=   0.045 min)
GTO integral calculation        ...        0.684 sec (=   0.011 min)  25.5 %
SCF iterations                  ...        1.997 sec (=   0.033 min)  74.5 %
                             ****ORCA TERMINATED NORMALLY****
TOTAL RUN TIME: 0 days 0 hours 0 minutes 3 seconds 123 msec
