
    -----------------------------------------------------------------------
          Psi4: An Open-Source Ab Initio Electronic Structure Package
                               Psi4 1.3.2 release

                         Git: Rev {HEAD} ecbda83 


    R. M. Parrish, L. A. Burns, D. G. A. Smith, A. C. Simmonett,
    A. E. DePrince III, E. G. Hohenstein, U. Bozkaya, A. Yu. Sokolov,
    R. Di Remigio, R. M. Richard, J. F. Gonthier, A. M. James,
    H. R. McAlexander, A. Kumar, M. Saitow, X. Wang, B. P. Pritchard,
    P. Verma, H. F. Schaefer III, K. Patkowski, R. A. King, E. F. Valeev,
    F. A. Evangelista, J. M. Turney, T. D. Crawford, and C. D. Sherrill,
    J. Chem. Theory Comput. 13(7) pp 3185--3197 (2017).
    (doi: 10.1021/acs.jctc.7b00174)


                         Additional Contributions by
    P. Kraus, H. Kruse, M. H. Lechner, M. C. Schieber, R. A. Shaw,
    A. Alenaizan, R. Galvelis, Z. L. Glick, S. Lehtola, and J. P. Misiewicz

    -----------------------------------------------------------------------


    Psi4 started on: Thursday, 28 October 2021 03:28PM

    Process ID: 122575
    Host:       bp1-compute00157.data.bp.acrc.priv
    PSIDATADIR: /work/zw18965/.conda/envs/p4env/share/psi4
    Memory:     500.0 MiB
    Threads:    24
    
  ==> Input File <==

--------------------------------------------------------------------------
memory 144 GB

molecule {
1 1
Ag       0.000000    0.000000    0.000000 
Ag       0.000000    0.000000    2.629319 
Ag       0.000000    0.000000   -2.629319 
 }

set basis Def2-TZVPPD

energy("MN15-D3BJ")
--------------------------------------------------------------------------

  Memory set to 134.110 GiB by Python driver.

*** tstart() called on bp1-compute00157.data.bp.acrc.priv
*** at Thu Oct 28 15:28:09 2021

   => Loading Basis Set <=

    Name: DEF2-TZVPPD
    Role: ORBITAL
    Keyword: BASIS
    atoms 1-3 entry AG         line  2174 (ECP: line  3646) file /work/zw18965/.conda/envs/p4env/share/psi4/basis/def2-tzvppd.gbs 

    !!!  WARNING: ECP capability is in beta. Please check occupations closely.  !!!


         ---------------------------------------------------------
                                   SCF
               by Justin Turney, Rob Parrish, Andy Simmonett
                          and Daniel G. A. Smith
                              RKS Reference
                       24 Threads, 137329 MiB Core
         ---------------------------------------------------------

  ==> Geometry <==

    Molecular point group: d2h
    Full point group: D_inf_h

    Geometry (in Angstrom), charge = 1, multiplicity = 1:

       Center              X                  Y                   Z               Mass       
    ------------   -----------------  -----------------  -----------------  -----------------
         AG           0.000000000000     0.000000000000     0.000000000000   106.905091600000
         AG           0.000000000000     0.000000000000     2.629319000000   106.905091600000
         AG           0.000000000000     0.000000000000    -2.629319000000   106.905091600000

  Running in d2h symmetry.

  Rotational constants: A = ************  B =      0.01140  C =      0.01140 [cm^-1]
  Rotational constants: A = ************  B =    341.90248  C =    341.90248 [MHz]
  Nuclear repulsion =  181.637310889121835

  Charge       = 1
  Multiplicity = 1
  Electrons    = 56
  Nalpha       = 28
  Nbeta        = 28

  ==> Algorithm <==

  SCF Algorithm Type is DF.
  DIIS enabled.
  MOM disabled.
  Fractional occupation disabled.
  Guess Type is SAD.
  Energy threshold   = 1.00e-06
  Density threshold  = 1.00e-06
  Integral threshold = 0.00e+00

  ==> Primary Basis <==

  Basis Set: DEF2-TZVPPD
    Blend: DEF2-TZVPPD
    Number of shells: 48
    Number of basis function: 168
    Number of Cartesian functions: 213
    Spherical Harmonics?: true
    Max angular momentum: 4

  Core potential: DEF2-TZVPPD
    Number of shells: 12
    Number of ECP primitives: 42
    Number of ECP core electrons: 84
    Max angular momentum: 3

  ==> DFT Potential <==

   => Composite Functional: MN15-D3BJ <= 

   MN15 Hybrid Meta-GGA Exchange-Correlation Functional

    H. S. Yu, X. He, S. L. Li, and D. G. Truhlar, Chem. Sci. 7, 5032-5051, 2016


    Deriv               =              1
    GGA                 =           TRUE
    Meta                =           TRUE

    Exchange Hybrid     =           TRUE
    MP2 Hybrid          =          FALSE

   => Exchange Functionals <=

    1.0000   XC_HYB_MGGA_X_MN15

   => Exact (HF) Exchange <=

    0.4400               HF 

   => Correlation Functionals <=

    1.0000   XC_MGGA_C_MN15

   => Molecular Quadrature <=

    Radial Scheme          =       TREUTLER
    Pruning Scheme         =           FLAT
    Nuclear Scheme         =       TREUTLER

    BS radius alpha        =              1
    Pruning alpha          =              1
    Radial Points          =             75
    Spherical Points       =            302
    Total Points           =          67368
    Total Blocks           =            623
    Max Points             =            248
    Max Functions          =            149

   => MN15-D3(BJ): Empirical Dispersion <=

    Grimme's -D3 (BJ-damping) Dispersion Correction
    Grimme S.; Ehrlich S.; Goerigk L. (2011), J. Comput. Chem., 32: 1456
    Parametrisation from:    L. Goerigk, A. Hansen, C. Bauer, S. Ehrlich, A. Najibi, S. Grimme, Phys. Chem. Chem. Phys. 19, 32184-32215, 2017

        s6 =       1.000000
        s8 =       2.097100
        a1 =       0.786200
        a2 =       7.592300

   => Loading Basis Set <=

    Name: (DEF2-TZVPPD AUX)
    Role: JKFIT
    Keyword: DF_BASIS_SCF
    atoms 1-3 entry AG         line  4369 file /work/zw18965/.conda/envs/p4env/share/psi4/basis/def2-tzvpp-jkfit.gbs 

  ==> Pre-Iterations <==

   -------------------------------------------------------
    Irrep   Nso     Nmo     Nalpha   Nbeta   Ndocc  Nsocc
   -------------------------------------------------------
     Ag        38      38       0       0       0       0
     B1g       12      12       0       0       0       0
     B2g       18      18       0       0       0       0
     B3g       18      18       0       0       0       0
     Au         9       9       0       0       0       0
     B1u       31      31       0       0       0       0
     B2u       21      21       0       0       0       0
     B3u       21      21       0       0       0       0
   -------------------------------------------------------
    Total     168     168      28      28      28       0
   -------------------------------------------------------

  ==> Integral Setup <==

  DFHelper Memory: AOs need 0.158 GiB; user supplied 100.048 GiB. Using in-core AOs.

  ==> MemDFJK: Density-Fitted J/K Matrices <==

    J tasked:                   Yes
    K tasked:                   Yes
    wK tasked:                   No
    OpenMP threads:              24
    Memory [MiB]:            102449
    Algorithm:                 Core
    Schwarz Cutoff:           1E-12
    Mask sparsity (%):      12.9535
    Fitting Condition:        1E-10

   => Auxiliary Basis Set <=

  Basis Set: (DEF2-TZVPPD AUX)
    Blend: DEF2-TZVPP-JKFIT
    Number of shells: 147
    Number of basis function: 765
    Number of Cartesian functions: 1152
    Spherical Harmonics?: true
    Max angular momentum: 6

  Cached 100.0% of DFT collocation blocks in 0.535 [GiB].

  Minimum eigenvalue in the overlap matrix is 1.3220231581E-03.
  Using Symmetric Orthogonalization.

  SCF Guess: Superposition of Atomic Densities via on-the-fly atomic UHF.

  ==> Iterations <==

                           Total Energy        Delta E     RMS |[F,P]|

   @DF-RKS iter SAD:  -439.39323555895083   -4.39393e+02   0.00000e+00 
   @DF-RKS iter   1:  -439.82801921599219   -4.34784e-01   5.25251e-03 DIIS
   @DF-RKS iter   2:  -439.81913902130367    8.88019e-03   6.48461e-03 DIIS
   @DF-RKS iter   3:  -439.86309286886228   -4.39538e-02   3.38023e-04 DIIS
   @DF-RKS iter   4:  -439.86331892631802   -2.26057e-04   1.51361e-04 DIIS
   @DF-RKS iter   5:  -439.86336235229339   -4.34260e-05   4.40473e-05 DIIS
   @DF-RKS iter   6:  -439.86336772268066   -5.37039e-06   3.44042e-05 DIIS
   @DF-RKS iter   7:  -439.86336927265728   -1.54998e-06   3.85945e-06 DIIS
   @DF-RKS iter   8:  -439.86336933920222   -6.65449e-08   1.03527e-06 DIIS
   @DF-RKS iter   9:  -439.86336934493733   -5.73510e-09   1.94832e-07 DIIS
  Energy and wave function converged.


  ==> Post-Iterations <==

    Orbital Energies [Eh]
    ---------------------

    Doubly Occupied:                                                      

       1B1u   -3.846507     1Ag    -3.846503     2Ag    -3.805490  
       2B1u   -2.499126     3Ag    -2.498726     1B3u   -2.496999  
       1B2u   -2.496999     1B2g   -2.496984     1B3g   -2.496984  
       3B1u   -2.458287     2B3u   -2.452356     2B2u   -2.452356  
       4Ag    -0.608068     2B2g   -0.587241     2B3g   -0.587240  
       4B1u   -0.578875     3B3u   -0.576823     3B2u   -0.576823  
       5Ag    -0.573508     1B1g   -0.573495     5B1u   -0.573066  
       1Au    -0.573053     6Ag    -0.525388     2B1g   -0.525371  
       3B2g   -0.522750     3B3g   -0.522750     7Ag    -0.516914  
       8Ag    -0.416717  

    Virtual:                                                              

       6B1u   -0.306672     9Ag    -0.200137     4B3u   -0.161140  
       4B2u   -0.161140     7B1u   -0.123025     4B2g   -0.107968  
       4B3g   -0.107968     5B3u   -0.035771     5B2u   -0.035771  
      10Ag    -0.008740    11Ag     0.011218     8B1u    0.025055  
       9B1u    0.044681     6B3u    0.079590     6B2u    0.079590  
      12Ag     0.090820     5B2g    0.109173     5B3g    0.109173  
       7B3u    0.156374     7B2u    0.156374    10B1u    0.169651  
      13Ag     0.178726     3B1g    0.234045    14Ag     0.234049  
       6B2g    0.264709     6B3g    0.264709    11B1u    0.283153  
       2Au     0.283154    12B1u    0.309703    15Ag     0.369779  
       4B1g    0.369783     8B2u    0.377108     8B3u    0.377108  
      16Ag     0.486900    13B1u    0.554388     7B2g    0.560507  
       7B3g    0.560507    17Ag     0.634115    14B1u    1.272646  
       9B3u    1.347209     9B2u    1.347209    15B1u    1.383220  
       3Au     1.383271    10B2u    1.389588    10B3u    1.389588  
       8B3g    1.389604     8B2g    1.389604    18Ag     1.389772  
       5B1g    1.389823     9B2g    1.416373     9B3g    1.416373  
      19Ag     1.418363    16B1u    1.436880     4Au     1.436940  
      11B3u    1.440903    11B2u    1.440903    12B3u    1.441046  
      12B2u    1.441046    13B3u    1.468233    13B2u    1.468233  
      10B2g    1.502070    10B3g    1.502070    17B1u    1.502573  
      20Ag     1.509087    18B1u    1.554136    14B3u    1.580609  
      14B2u    1.580609    21Ag     1.681950    19B1u    1.768369  
      22Ag     1.849445     6B1g    1.849458    20B1u    1.855995  
       5Au     1.856010    11B2g    1.876545    11B3g    1.876545  
      23Ag     1.918561     7B1g    1.918573    15B3u    1.921629  
      15B2u    1.921629    24Ag     1.965200    21B1u    1.972146  
      12B2g    2.027421    12B3g    2.027421    22B1u    2.126989  
      25Ag     2.135080    26Ag     2.456949    23B1u    4.373657  
      16B3u    4.388087    16B2u    4.388087    24B1u    4.416768  
       6Au     4.416799    17B2u    4.420556    17B3u    4.420556  
      13B2g    4.420568    13B3g    4.420568    27Ag     4.422441  
       8B1g    4.422473    14B2g    4.460097    14B3g    4.460097  
      18B3u    4.464390    18B2u    4.464390    25B1u    4.465033  
       7Au     4.465060    19B3u    4.526611    19B2u    4.526611  
      28Ag     4.575626    26B1u    4.722175    20B3u    5.222046  
      20B2u    5.222046    27B1u    5.222326     8Au     5.222441  
      29Ag     5.222648     9B1g    5.222762    15B2g    5.223394  
      15B3g    5.223394    21B3u    5.223718    21B2u    5.223718  
      16B2g    5.223722    16B3g    5.223722    30Ag     5.224828  
      28B1u    5.224828    10B1g    5.225046     9Au     5.225046  
      29B1u    5.225331    31Ag     5.226190    32Ag     5.266028  
      11B1g    5.266213    17B2g    5.266385    17B3g    5.266385  
      18B2g    5.270097    18B3g    5.270097    33Ag     5.274843  
      12B1g    5.275153    34Ag     5.278898    35Ag    32.595617  
      30B1u   32.731431    36Ag    33.131683    37Ag   110.362335  
      31B1u  110.401624    38Ag   110.550697  

    Final Occupation by Irrep:
             Ag   B1g   B2g   B3g    Au   B1u   B2u   B3u 
    DOCC [     8,    2,    3,    3,    1,    5,    3,    3 ]

  @DF-RKS Final Energy:  -439.86336934493733

   => Energetics <=

    Nuclear Repulsion Energy =            181.6373108891218351
    One-Electron Energy =               -1134.3263061469169770
    Two-Electron Energy =                 536.6650840658451216
    DFT Exchange-Correlation Energy =     -23.8393304529873156
    Empirical Dispersion Energy =          -0.0001277000000000
    VV10 Nonlocal Energy =                  0.0000000000000000
    Total Energy =                       -439.8633693449373254

Computation Completed


Properties will be evaluated at   0.000000,   0.000000,   0.000000 [a0]

Properties computed using the SCF density matrix

  Nuclear Dipole Moment: [e a0]
     X:     0.0000      Y:     0.0000      Z:     0.0000

  Electronic Dipole Moment: [e a0]
     X:     0.0000      Y:     0.0000      Z:     0.0000

  Dipole Moment: [e a0]
     X:     0.0000      Y:     0.0000      Z:     0.0000     Total:     0.0000

  Dipole Moment: [D]
     X:     0.0000      Y:     0.0000      Z:     0.0000     Total:     0.0000


*** tstop() called on bp1-compute00157.data.bp.acrc.priv at Thu Oct 28 15:28:17 2021
Module time:
	user time   =      76.60 seconds =       1.28 minutes
	system time =       4.10 seconds =       0.07 minutes
	total time  =          8 seconds =       0.13 minutes
Total time:
	user time   =      76.60 seconds =       1.28 minutes
	system time =       4.10 seconds =       0.07 minutes
	total time  =          8 seconds =       0.13 minutes

    Psi4 stopped on: Thursday, 28 October 2021 03:28PM
    Psi4 wall time for execution: 0:00:07.49

*** Psi4 exiting successfully. Buy a developer a beer!
