
    -----------------------------------------------------------------------
          Psi4: An Open-Source Ab Initio Electronic Structure Package
                               Psi4 1.3.2 release

                         Git: Rev {HEAD} ecbda83 


    R. M. Parrish, L. A. Burns, D. G. A. Smith, A. C. Simmonett,
    A. E. DePrince III, E. G. Hohenstein, U. Bozkaya, A. Yu. Sokolov,
    R. Di Remigio, R. M. Richard, J. F. Gonthier, A. M. James,
    H. R. McAlexander, A. Kumar, M. Saitow, X. Wang, B. P. Pritchard,
    P. Verma, H. F. Schaefer III, K. Patkowski, R. A. King, E. F. Valeev,
    F. A. Evangelista, J. M. Turney, T. D. Crawford, and C. D. Sherrill,
    J. Chem. Theory Comput. 13(7) pp 3185--3197 (2017).
    (doi: 10.1021/acs.jctc.7b00174)


                         Additional Contributions by
    P. Kraus, H. Kruse, M. H. Lechner, M. C. Schieber, R. A. Shaw,
    A. Alenaizan, R. Galvelis, Z. L. Glick, S. Lehtola, and J. P. Misiewicz

    -----------------------------------------------------------------------


    Psi4 started on: Thursday, 28 October 2021 03:28PM

    Process ID: 199500
    Host:       bp1-compute00024.data.bp.acrc.priv
    PSIDATADIR: /work/zw18965/.conda/envs/p4env/share/psi4
    Memory:     500.0 MiB
    Threads:    24
    
  ==> Input File <==

--------------------------------------------------------------------------
memory 144 GB

molecule {
1 1
Ag       0.000000    1.529877    0.000000 
Ag       1.324912   -0.764938    0.000000 
Ag      -1.324912   -0.764938    0.000000 
 }

set basis Def2-TZVPPD

energy("MN15-D3BJ")
--------------------------------------------------------------------------

  Memory set to 134.110 GiB by Python driver.

*** tstart() called on bp1-compute00024.data.bp.acrc.priv
*** at Thu Oct 28 15:28:09 2021

   => Loading Basis Set <=

    Name: DEF2-TZVPPD
    Role: ORBITAL
    Keyword: BASIS
    atoms 1-3 entry AG         line  2174 (ECP: line  3646) file /work/zw18965/.conda/envs/p4env/share/psi4/basis/def2-tzvppd.gbs 

    !!!  WARNING: ECP capability is in beta. Please check occupations closely.  !!!


         ---------------------------------------------------------
                                   SCF
               by Justin Turney, Rob Parrish, Andy Simmonett
                          and Daniel G. A. Smith
                              RKS Reference
                       24 Threads, 137329 MiB Core
         ---------------------------------------------------------

  ==> Geometry <==

    Molecular point group: c2v
    Full point group: C2v

    Geometry (in Angstrom), charge = 1, multiplicity = 1:

       Center              X                  Y                   Z               Mass       
    ------------   -----------------  -----------------  -----------------  -----------------
         AG           0.000000000000     0.000000000000     1.529876666667   106.905091600000
         AG           1.324912000000     0.000000000000    -0.764938333333   106.905091600000
         AG          -1.324912000000    -0.000000000000    -0.764938333333   106.905091600000

  Running in c2v symmetry.

  Rotational constants: A =      0.04492  B =      0.04492  C =      0.02246 [cm^-1]
  Rotational constants: A =   1346.52601  B =   1346.52589  C =    673.26298 [MHz]
  Nuclear repulsion =  216.278102475318548

  Charge       = 1
  Multiplicity = 1
  Electrons    = 56
  Nalpha       = 28
  Nbeta        = 28

  ==> Algorithm <==

  SCF Algorithm Type is DF.
  DIIS enabled.
  MOM disabled.
  Fractional occupation disabled.
  Guess Type is SAD.
  Energy threshold   = 1.00e-06
  Density threshold  = 1.00e-06
  Integral threshold = 0.00e+00

  ==> Primary Basis <==

  Basis Set: DEF2-TZVPPD
    Blend: DEF2-TZVPPD
    Number of shells: 48
    Number of basis function: 168
    Number of Cartesian functions: 213
    Spherical Harmonics?: true
    Max angular momentum: 4

  Core potential: DEF2-TZVPPD
    Number of shells: 12
    Number of ECP primitives: 42
    Number of ECP core electrons: 84
    Max angular momentum: 3

  ==> DFT Potential <==

   => Composite Functional: MN15-D3BJ <= 

   MN15 Hybrid Meta-GGA Exchange-Correlation Functional

    H. S. Yu, X. He, S. L. Li, and D. G. Truhlar, Chem. Sci. 7, 5032-5051, 2016


    Deriv               =              1
    GGA                 =           TRUE
    Meta                =           TRUE

    Exchange Hybrid     =           TRUE
    MP2 Hybrid          =          FALSE

   => Exchange Functionals <=

    1.0000   XC_HYB_MGGA_X_MN15

   => Exact (HF) Exchange <=

    0.4400               HF 

   => Correlation Functionals <=

    1.0000   XC_MGGA_C_MN15

   => Molecular Quadrature <=

    Radial Scheme          =       TREUTLER
    Pruning Scheme         =           FLAT
    Nuclear Scheme         =       TREUTLER

    BS radius alpha        =              1
    Pruning alpha          =              1
    Radial Points          =             75
    Spherical Points       =            302
    Total Points           =          67393
    Total Blocks           =            588
    Max Points             =            256
    Max Functions          =            165

   => MN15-D3(BJ): Empirical Dispersion <=

    Grimme's -D3 (BJ-damping) Dispersion Correction
    Grimme S.; Ehrlich S.; Goerigk L. (2011), J. Comput. Chem., 32: 1456
    Parametrisation from:    L. Goerigk, A. Hansen, C. Bauer, S. Ehrlich, A. Najibi, S. Grimme, Phys. Chem. Chem. Phys. 19, 32184-32215, 2017

        s6 =       1.000000
        s8 =       2.097100
        a1 =       0.786200
        a2 =       7.592300

   => Loading Basis Set <=

    Name: (DEF2-TZVPPD AUX)
    Role: JKFIT
    Keyword: DF_BASIS_SCF
    atoms 1-3 entry AG         line  4369 file /work/zw18965/.conda/envs/p4env/share/psi4/basis/def2-tzvpp-jkfit.gbs 

  ==> Pre-Iterations <==

   -------------------------------------------------------
    Irrep   Nso     Nmo     Nalpha   Nbeta   Ndocc  Nsocc
   -------------------------------------------------------
     A1        59      59       0       0       0       0
     A2        27      27       0       0       0       0
     B1        49      49       0       0       0       0
     B2        33      33       0       0       0       0
   -------------------------------------------------------
    Total     168     168      28      28      28       0
   -------------------------------------------------------

  ==> Integral Setup <==

  DFHelper Memory: AOs need 0.177 GiB; user supplied 99.987 GiB. Using in-core AOs.

  ==> MemDFJK: Density-Fitted J/K Matrices <==

    J tasked:                   Yes
    K tasked:                   Yes
    wK tasked:                   No
    OpenMP threads:              24
    Memory [MiB]:            102386
    Algorithm:                 Core
    Schwarz Cutoff:           1E-12
    Mask sparsity (%):       1.2188
    Fitting Condition:        1E-10

   => Auxiliary Basis Set <=

  Basis Set: (DEF2-TZVPPD AUX)
    Blend: DEF2-TZVPP-JKFIT
    Number of shells: 147
    Number of basis function: 765
    Number of Cartesian functions: 1152
    Spherical Harmonics?: true
    Max angular momentum: 6

  Cached 100.0% of DFT collocation blocks in 0.596 [GiB].

  Minimum eigenvalue in the overlap matrix is 2.8944547741E-03.
  Using Symmetric Orthogonalization.

  SCF Guess: Superposition of Atomic Densities via on-the-fly atomic UHF.

  ==> Iterations <==

                           Total Energy        Delta E     RMS |[F,P]|

   @DF-RKS iter SAD:  -439.46122917130128   -4.39461e+02   0.00000e+00 
   @DF-RKS iter   1:  -439.86606486882704   -4.04836e-01   4.98357e-03 DIIS
   @DF-RKS iter   2:  -439.85192608433664    1.41388e-02   5.87973e-03 DIIS
   @DF-RKS iter   3:  -439.91975178045089   -6.78257e-02   2.45293e-04 DIIS
   @DF-RKS iter   4:  -439.91991822216170   -1.66442e-04   1.47190e-04 DIIS
   @DF-RKS iter   5:  -439.91997224089897   -5.40187e-05   3.19537e-05 DIIS
   @DF-RKS iter   6:  -439.91997829106424   -6.05017e-06   9.09256e-06 DIIS
   @DF-RKS iter   7:  -439.91997852410594   -2.33042e-07   6.17101e-06 DIIS
   @DF-RKS iter   8:  -439.91997864527121   -1.21165e-07   6.46594e-07 DIIS
  Energy and wave function converged.


  ==> Post-Iterations <==

    Orbital Energies [Eh]
    ---------------------

    Doubly Occupied:                                                      

       1A1    -3.843448     2A1    -3.842835     1B1    -3.842833  
       3A1    -2.497960     2B1    -2.495535     4A1    -2.495530  
       3B1    -2.492091     1B2    -2.491805     2B2    -2.491127  
       1A2    -2.491126     4B1    -2.490973     5A1    -2.490965  
       6A1    -0.617836     5B1    -0.601570     7A1    -0.601564  
       3B2    -0.597226     8A1    -0.582609     4B2    -0.579224  
       2A2    -0.579223     9A1    -0.558481     6B1    -0.558481  
       3A2    -0.554792     5B2    -0.551573     4A2    -0.551568  
       7B1    -0.550944    10A1    -0.550933     8B1    -0.531151  
      11A1    -0.459366  

    Virtual:                                                              

       9B1    -0.248152    12A1    -0.248150     6B2    -0.179275  
      13A1    -0.130094    14A1    -0.123709    10B1    -0.123708  
       5A2    -0.073779     7B2    -0.073778    11B1    -0.002877  
      15A1    -0.002875    12B1    -0.001850    16A1     0.008311  
      17A1     0.060299     8B2     0.066465    18A1     0.077636  
      13B1     0.077636    14B1     0.085145    19A1     0.085146  
       6A2     0.120658     9B2     0.120659    15B1     0.182276  
      20A1     0.217172    16B1     0.231848    21A1     0.231861  
      10B2     0.255584     7A2     0.255591    11B2     0.272581  
      17B1     0.365099    22A1     0.365102     8A2     0.409146  
      23A1     0.431992     9A2     0.462365    12B2     0.462377  
      18B1     0.471030    24A1     0.471040    19B1     0.543602  
      25A1     0.543630    20B1     0.601509    26A1     1.280377  
      21B1     1.280383    27A1     1.315581    28A1     1.325509  
      13B2     1.355478    10A2     1.357411    14B2     1.357434  
      29A1     1.385537    22B1     1.385565    15B2     1.386740  
      11A2     1.400911    16B2     1.400921    23B1     1.403034  
      12A2     1.419170    17B2     1.419194    24B1     1.434287  
      30A1     1.434289    13A2     1.450498    25B1     1.459360  
      31A1     1.459364    18B2     1.459476    32A1     1.500722  
      26B1     1.500737    27B1     1.510216    33A1     1.539343  
      14A2     1.551737    19B2     1.551779    34A1     1.583543  
      28B1     1.583556    29B1     1.727185    35A1     1.767152  
      36A1     1.856526    20B2     1.866649    15A2     1.866745  
      21B2     1.897333    30B1     1.899168    37A1     1.899175  
      16A2     1.917508    31B1     1.925343    38A1     1.925354  
      17A2     1.941457    22B2     1.941461    32B1     2.030521  
      39A1     2.030585    33B1     2.056897    40A1     2.160757  
      34B1     2.316393    41A1     2.316432    42A1     4.364894  
      35B1     4.382136    43A1     4.382155    23B2     4.391346  
      18A2     4.393731    24B2     4.393801    44A1     4.402121  
      25B2     4.416915    45A1     4.420668    36B1     4.420677  
      26B2     4.428974    19A2     4.429003    37B1     4.433927  
      20A2     4.474703    46A1     4.495794    38B1     4.495829  
      21A2     4.498083    27B2     4.498226    47A1     4.650218  
      39B1     4.650244    40B1     4.665626    48A1     5.226016  
      49A1     5.227185    41B1     5.227216    42B1     5.227720  
      22A2     5.227867    28B2     5.227918    29B2     5.228040  
      50A1     5.228445    43B1     5.228536    23A2     5.228676  
      30B2     5.228676    24A2     5.228723    51A1     5.229586  
      31B2     5.229748    52A1     5.230313    44B1     5.230416  
      32B2     5.231454    25A2     5.231579    53A1     5.231696  
      45B1     5.231738    54A1     5.231739    26A2     5.231941  
      33B2     5.232076    27A2     5.232091    46B1     5.233341  
      55A1     5.240132    47B1     5.240168    56A1    32.632162  
      57A1    32.965298    48B1    32.965301    58A1   110.370529  
      49B1   110.476472    59A1   110.476473  

    Final Occupation by Irrep:
             A1    A2    B1    B2 
    DOCC [    11,    4,    8,    5 ]

  @DF-RKS Final Energy:  -439.91997864527121

   => Energetics <=

    Nuclear Repulsion Energy =            216.2781024753185477
    One-Electron Energy =               -1203.0804675809376931
    Two-Electron Energy =                 570.7437223389850942
    DFT Exchange-Correlation Energy =     -23.8612068586371819
    Empirical Dispersion Energy =          -0.0001290200000000
    VV10 Nonlocal Energy =                  0.0000000000000000
    Total Energy =                       -439.9199786452712146

Computation Completed


Properties will be evaluated at   0.000000,   0.000000,   0.000000 [a0]

Properties computed using the SCF density matrix

  Nuclear Dipole Moment: [e a0]
     X:     0.0000      Y:     0.0000      Z:    -0.0000

  Electronic Dipole Moment: [e a0]
     X:     0.0000      Y:     0.0000      Z:    -0.0000

  Dipole Moment: [e a0]
     X:     0.0000      Y:     0.0000      Z:    -0.0000     Total:     0.0000

  Dipole Moment: [D]
     X:     0.0000      Y:     0.0000      Z:    -0.0000     Total:     0.0000


*** tstop() called on bp1-compute00024.data.bp.acrc.priv at Thu Oct 28 15:28:18 2021
Module time:
	user time   =      86.30 seconds =       1.44 minutes
	system time =       2.71 seconds =       0.05 minutes
	total time  =          9 seconds =       0.15 minutes
Total time:
	user time   =      86.30 seconds =       1.44 minutes
	system time =       2.71 seconds =       0.05 minutes
	total time  =          9 seconds =       0.15 minutes

    Psi4 stopped on: Thursday, 28 October 2021 03:28PM
    Psi4 wall time for execution: 0:00:08.30

*** Psi4 exiting successfully. Buy a developer a beer!
