
    -----------------------------------------------------------------------
          Psi4: An Open-Source Ab Initio Electronic Structure Package
                               Psi4 1.4.1 release

                         Git: Rev {HEAD} cd00f19 


    D. G. A. Smith, L. A. Burns, A. C. Simmonett, R. M. Parrish,
    M. C. Schieber, R. Galvelis, P. Kraus, H. Kruse, R. Di Remigio,
    A. Alenaizan, A. M. James, S. Lehtola, J. P. Misiewicz, M. Scheurer,
    R. A. Shaw, J. B. Schriber, Y. Xie, Z. L. Glick, D. A. Sirianni,
    J. S. O'Brien, J. M. Waldrop, A. Kumar, E. G. Hohenstein,
    B. P. Pritchard, B. R. Brooks, H. F. Schaefer III, A. Yu. Sokolov,
    K. Patkowski, A. E. DePrince III, U. Bozkaya, R. A. King,
    F. A. Evangelista, J. M. Turney, T. D. Crawford, C. D. Sherrill,
    J. Chem. Phys. 152(18) 184108 (2020). https://doi.org/10.1063/5.0006002

                            Additional Code Authors
    E. T. Seidl, C. L. Janssen, E. F. Valeev, M. L. Leininger,
    J. F. Gonthier, R. M. Richard, H. R. McAlexander, M. Saitow, X. Wang,
    P. Verma, and M. H. Lechner

             Previous Authors, Complete List of Code Contributors,
                       and Citations for Specific Modules
    https://github.com/psi4/psi4/blob/master/codemeta.json
    https://github.com/psi4/psi4/graphs/contributors
    http://psicode.org/psi4manual/master/introduction.html#citing-psifour

    -----------------------------------------------------------------------


    Psi4 started on: Tuesday, 02 November 2021 11:09AM

    Process ID: 13513
    Host:       compute130.bc4.acrc.priv
    PSIDATADIR: /mnt/storage/home/zw18965/.conda/envs/p4env/share/psi4
    Memory:     500.0 MiB
    Threads:    28
    
  ==> Input File <==

--------------------------------------------------------------------------
memory 144 GB

molecule {
2 2
Ag       0.000000    1.604405   -0.611776 
Ag       1.389456   -0.802203   -0.611776 
Ag      -1.389456   -0.802203   -0.611776 
Ag       0.000000    0.000000    1.871824 
H        0.000000    0.000000   -1.715373 
 }

set reference uks
set basis Def2-TZVPPD

energy("MN15-D3BJ")
--------------------------------------------------------------------------

  Memory set to 134.110 GiB by Python driver.

Scratch directory: /tmp/

*** tstart() called on compute130.bc4.acrc.priv
*** at Tue Nov  2 11:09:13 2021

   => Loading Basis Set <=

    Name: DEF2-TZVPPD
    Role: ORBITAL
    Keyword: BASIS
    atoms 1-4 entry AG         line  2174 (ECP: line  3646) file /mnt/storage/home/zw18965/.conda/envs/p4env/share/psi4/basis/def2-tzvppd.gbs 
    atoms 5   entry H          line    14 file /mnt/storage/home/zw18965/.conda/envs/p4env/share/psi4/basis/def2-tzvppd.gbs 

    !!!  WARNING: ECP capability is in beta. Please check occupations closely.  !!!

   => MN15-D3(BJ): Empirical Dispersion <=

    Grimme's -D3 (BJ-damping) Dispersion Correction
    Grimme S.; Ehrlich S.; Goerigk L. (2011), J. Comput. Chem., 32: 1456
    Parametrisation from:    L. Goerigk, A. Hansen, C. Bauer, S. Ehrlich, A. Najibi, S. Grimme, Phys. Chem. Chem. Phys. 19, 32184-32215, 2017

        s6 =       1.000000
        s8 =       2.097100
        a1 =       0.786200
        a2 =       7.592300


         ---------------------------------------------------------
                                   SCF
               by Justin Turney, Rob Parrish, Andy Simmonett
                          and Daniel G. A. Smith
                              UKS Reference
                       28 Threads, 137329 MiB Core
         ---------------------------------------------------------

  ==> Geometry <==

    Molecular point group: cs
    Full point group: Cs

    Geometry (in Angstrom), charge = 2, multiplicity = 2:

       Center              X                  Y                   Z               Mass       
    ------------   -----------------  -----------------  -----------------  -----------------
         AG          -1.604405249412     0.616845224138     0.000000000000   106.905091600000
         AG           0.802202750588     0.616845224138     1.389456000000   106.905091600000
         AG           0.802202750588     0.616845224138    -1.389456000000   106.905091600000
         AG          -0.000000249412    -1.866754775862     0.000000000000   106.905091600000
         H           -0.000000249412     1.720442224138     0.000000000000     1.007825032230

  Running in cs symmetry.

  Rotational constants: A =      0.02042  B =      0.01852  C =      0.01852 [cm^-1]
  Rotational constants: A =    612.16612  B =    555.15787  C =    555.15779 [MHz]
  Nuclear repulsion =  418.350983777256772

  Charge       = 2
  Multiplicity = 2
  Electrons    = 75
  Nalpha       = 38
  Nbeta        = 37

  ==> Algorithm <==

  SCF Algorithm Type is DF.
  DIIS enabled.
  MOM disabled.
  Fractional occupation disabled.
  Guess Type is SAD.
  Energy threshold   = 1.00e-06
  Density threshold  = 1.00e-06
  Integral threshold = 1.00e-12

  ==> Primary Basis <==

  Basis Set: DEF2-TZVPPD
    Blend: DEF2-TZVPPD
    Number of shells: 71
    Number of basis functions: 241
    Number of Cartesian functions: 302
    Spherical Harmonics?: true
    Max angular momentum: 4

  Core potential: DEF2-TZVPPD
    Number of shells: 16
    Number of ECP primitives: 56
    Number of ECP core electrons: 112
    Max angular momentum: 3

  ==> DFT Potential <==

   => Composite Functional: MN15-D3BJ <= 

   MN15 Hybrid Meta-GGA Exchange-Correlation Functional

    H. S. Yu, X. He, S. L. Li, and D. G. Truhlar, Chem. Sci. 7, 5032-5051, 2016


    Deriv               =              1
    GGA                 =           TRUE
    Meta                =           TRUE

    Exchange Hybrid     =           TRUE
    MP2 Hybrid          =          FALSE

   => Exchange Functionals <=

    1.0000   XC_HYB_MGGA_X_MN15

   => Exact (HF) Exchange <=

    0.4400               HF 

   => Correlation Functionals <=

    1.0000   XC_MGGA_C_MN15

   => LibXC Density Thresholds  <==

    XC_MGGA_C_MN15:  1.00E-15 
    XC_HYB_MGGA_X_MN15:  1.00E-15 

   => Molecular Quadrature <=

    Radial Scheme          =       TREUTLER
    Pruning Scheme         =           NONE
    Nuclear Scheme         =       TREUTLER

    BS radius alpha        =              1
    Pruning alpha          =              1
    Radial Points          =             75
    Spherical Points       =            302
    Total Points           =         105159
    Total Blocks           =            922
    Max Points             =            256
    Max Functions          =            236
    Weights Tolerance      =       1.00E-15

   => Loading Basis Set <=

    Name: (DEF2-TZVPPD AUX)
    Role: JKFIT
    Keyword: DF_BASIS_SCF
    atoms 1-4 entry AG         line  4364 file /mnt/storage/home/zw18965/.conda/envs/p4env/share/psi4/basis/def2-universal-jkfit.gbs 
    atoms 5   entry H          line    18 file /mnt/storage/home/zw18965/.conda/envs/p4env/share/psi4/basis/def2-universal-jkfit.gbs 

  ==> Integral Setup <==

  DFHelper Memory: AOs need 0.474 GiB; user supplied 99.372 GiB. Using in-core AOs.

  ==> MemDFJK: Density-Fitted J/K Matrices <==

    J tasked:                   Yes
    K tasked:                   Yes
    wK tasked:                   No
    OpenMP threads:              28
    Memory [MiB]:            101756
    Algorithm:                 Core
    Schwarz Cutoff:           1E-12
    Mask sparsity (%):       2.8099
    Fitting Condition:        1E-10

   => Auxiliary Basis Set <=

  Basis Set: (DEF2-TZVPPD AUX)
    Blend: DEF2-UNIVERSAL-JKFIT
    Number of shells: 202
    Number of basis functions: 1038
    Number of Cartesian functions: 1556
    Spherical Harmonics?: true
    Max angular momentum: 6

  Cached 100.0% of DFT collocation blocks in 1.211 [GiB].

  Minimum eigenvalue in the overlap matrix is 8.1043429916E-04.
  Reciprocal condition number of the overlap matrix is 1.1648563184E-04.
    Using symmetric orthogonalization.

  ==> Pre-Iterations <==

  SCF Guess: Superposition of Atomic Densities via on-the-fly atomic UHF (no occupation information).

   -------------------------
    Irrep   Nso     Nmo    
   -------------------------
     A'       140     140 
     A"       101     101 
   -------------------------
    Total     241     241
   -------------------------

  ==> Iterations <==

                           Total Energy        Delta E     RMS |[F,P]|

   @DF-UKS iter SAD:  -586.67005975568281   -5.86670e+02   0.00000e+00 
   @DF-UKS iter   1:  -586.66317101723257    6.88874e-03   3.64158e-03 DIIS
   @DF-UKS iter   2:  -586.61766658638294    4.55044e-02   4.68185e-03 DIIS
   @DF-UKS iter   3:  -586.78725567572724   -1.69589e-01   1.81311e-04 DIIS
   @DF-UKS iter   4:  -586.78782652222503   -5.70846e-04   1.13903e-04 DIIS
   @DF-UKS iter   5:  -586.78797176263834   -1.45240e-04   3.59615e-05 DIIS
   @DF-UKS iter   6:  -586.78799908345331   -2.73208e-05   1.42281e-05 DIIS
   @DF-UKS iter   7:  -586.78800338622386   -4.30277e-06   8.98921e-06 DIIS
   @DF-UKS iter   8:  -586.78800495210544   -1.56588e-06   2.00242e-06 DIIS
   @DF-UKS iter   9:  -586.78800527293424   -3.20829e-07   7.96674e-07 DIIS
  Energy and wave function converged.


  ==> Post-Iterations <==

   Electrons on quadrature grid:
      Nalpha   =   37.9999766374 ; deviation = -2.336e-05
      Nbeta    =   36.9999757649 ; deviation = -2.424e-05
      Ntotal   =   74.9999524023 ; deviation = -4.760e-05 

   @Spin Contamination Metric:   7.780055103E-03
   @S^2 Expected:                7.500000000E-01
   @S^2 Observed:                7.577800551E-01
   @S   Expected:                5.000000000E-01
   @S   Observed:                5.000000000E-01

    Orbital Energies [Eh]
    ---------------------

    Alpha Occupied:                                                       

       1Ap    -4.038873     2Ap    -4.038543     1App   -4.038543  
       3Ap    -4.008612     4Ap    -2.692686     2App   -2.690653  
       5Ap    -2.690652     3App   -2.688533     6Ap    -2.688533  
       4App   -2.688246     7Ap    -2.688179     5App   -2.687329  
       8Ap    -2.687324     9Ap    -2.658958    10Ap    -2.658123  
       6App   -2.658123    11Ap    -0.858761    12Ap    -0.807211  
      13Ap    -0.791389     7App   -0.791389     8App   -0.777939  
      14Ap    -0.777937    15Ap    -0.777208     9App   -0.763688  
      16Ap    -0.763687    10App   -0.754443    17Ap    -0.754437  
      11App   -0.752181    12App   -0.750377    18Ap    -0.750372  
      19Ap    -0.739877    13App   -0.732335    20Ap    -0.732333  
      14App   -0.731616    15App   -0.723324    21Ap    -0.723321  
      22Ap    -0.711185    23Ap    -0.576373  

    Alpha Virtual:                                                        

      16App   -0.427308    24Ap    -0.427303    25Ap    -0.358722  
      26Ap    -0.301894    27Ap    -0.294165    17App   -0.294162  
      18App   -0.285985    28Ap    -0.285983    29Ap    -0.170766  
      19App   -0.162050    30Ap    -0.162046    31Ap    -0.160624  
      20App   -0.146205    21App   -0.144978    32Ap    -0.144972  
      33Ap    -0.106307    34Ap    -0.082388    35Ap    -0.062805  
      22App   -0.062804    36Ap    -0.061968    23App   -0.054824  
      37Ap    -0.054822    24App   -0.037608    38Ap    -0.037601  
      39Ap    -0.031196    25App    0.002943    40Ap     0.002946  
      41Ap     0.027168    26App    0.027407    42Ap     0.027419  
      27App    0.028033    43Ap     0.036402    28App    0.056327  
      44Ap     0.056339    45Ap     0.122926    29App    0.122930  
      46Ap     0.183989    30App    0.183999    47Ap     0.188090  
      31App    0.225434    48Ap     0.238107    49Ap     0.281559  
      50Ap     0.290567    32App    0.290577    51Ap     0.305564  
      33App    0.305567    52Ap     0.328490    34App    0.328496  
      53Ap     0.340063    35App    0.368571    54Ap     0.368606  
      36App    0.408570    55Ap     0.408575    37App    0.421559  
      56Ap     0.423299    57Ap     0.649110    38App    0.649173  
      58Ap     0.738502    59Ap     1.118654    39App    1.118662  
      60Ap     1.165487    61Ap     1.172930    40App    1.178688  
      62Ap     1.178694    63Ap     1.187679    41App    1.189754  
      64Ap     1.189769    65Ap     1.197745    42App    1.197758  
      43App    1.204061    66Ap     1.216375    44App    1.216383  
      45App    1.221166    46App    1.224093    67Ap     1.224100  
      68Ap     1.224733    69Ap     1.227131    47App    1.229908  
      70Ap     1.229914    48App    1.236783    49App    1.263832  
      71Ap     1.263855    72Ap     1.279474    50App    1.279477  
      51App    1.285544    73Ap     1.324442    74Ap     1.355038  
      52App    1.355048    75Ap     1.361309    53App    1.396299  
      76Ap     1.396310    77Ap     1.398632    78Ap     1.440143  
      54App    1.440152    79Ap     1.467437    55App    1.525739  
      56App    1.545985    80Ap     1.545998    57App    1.699798  
      81Ap     1.699799    82Ap     1.708520    58App    1.725248  
      83Ap     1.725258    59App    1.726306    84Ap     1.758919  
      85Ap     1.771642    60App    1.771645    86Ap     1.789270  
      61App    1.794533    87Ap     1.794537    62App    1.803534  
      88Ap     1.803539    63App    1.812597    89Ap     1.812608  
      64App    1.816316    90Ap     1.835910    91Ap     1.886106  
      65App    1.886112    92Ap     2.120711    93Ap     2.323012  
      66App    2.363790    94Ap     2.363839    95Ap     2.636779  
      67App    2.791836    96Ap     2.791974    97Ap     2.834882  
      68App    3.089297    98Ap     3.089822    99Ap     3.612962  
      69App    3.613030   100Ap     3.675600   101Ap     4.209950  
      70App    4.209972   102Ap     4.224304   103Ap     4.231059  
      71App    4.231075    72App    4.234736   104Ap     4.250480  
      73App    4.250511   105Ap     4.251594    74App    4.252125  
     106Ap     4.268394    75App    4.268410    76App    4.268790  
     107Ap     4.274716   108Ap     4.280662    77App    4.280676  
     109Ap     4.291458    78App    4.301360   110Ap     4.301379  
     111Ap     4.377969    79App    4.378003   112Ap     4.384830  
      80App    4.413345   113Ap     4.428412    81App    4.428447  
      82App    4.579154   114Ap     4.579411   115Ap     4.617012  
      83App    5.031309   116Ap     5.033250    84App    5.033303  
      85App    5.033475   117Ap     5.034219    86App    5.034241  
     118Ap     5.034256    87App    5.035638   119Ap     5.035784  
      88App    5.035909   120Ap     5.036985    89App    5.037016  
      90App    5.037212    91App    5.037391   121Ap     5.037452  
     122Ap     5.037670    92App    5.038666   123Ap     5.038699  
     124Ap     5.042016    93App    5.042020   125Ap     5.044783  
      94App    5.046043   126Ap     5.046044   127Ap     5.054393  
     128Ap     5.063645    95App    5.064094   129Ap     5.064095  
      96App    5.064583   130Ap     5.065063    97App    5.065290  
     131Ap     5.065309   132Ap     5.069095    98App    5.069315  
      99App    5.155005   133Ap     5.155160   134Ap     5.186706  
     135Ap    32.529330   136Ap    32.776353   100App   32.926885  
     137Ap    32.926885   138Ap   110.211372   139Ap   110.295799  
     140Ap   110.330464   101App  110.330465  

    Beta Occupied:                                                        

       1Ap    -4.038228     2Ap    -4.037903     1App   -4.037903  
       3Ap    -4.008052     4Ap    -2.691003     2App   -2.689827  
       5Ap    -2.689825     3App   -2.687709     6Ap    -2.687071  
       4App   -2.686787     7Ap    -2.686784     5App   -2.686705  
       8Ap    -2.686704     9Ap    -2.658959    10Ap    -2.657918  
       6App   -2.657917    11Ap    -0.843012    12Ap    -0.803069  
      13Ap    -0.791163     7App   -0.791163     8App   -0.775536  
      14Ap    -0.775533    15Ap    -0.774925     9App   -0.761602  
      16Ap    -0.761598    10App   -0.751814    11App   -0.751118  
      17Ap    -0.751112    12App   -0.747302    18Ap    -0.747300  
      19Ap    -0.734561    13App   -0.730745    14App   -0.729680  
      20Ap    -0.729675    15App   -0.720720    21Ap    -0.720719  
      22Ap    -0.696628  

    Beta Virtual:                                                         

      23Ap    -0.461583    16App   -0.419942    24Ap    -0.419933  
      25Ap    -0.338755    26Ap    -0.289573    27Ap    -0.284442  
      17App   -0.284440    18App   -0.275487    28Ap    -0.275481  
      29Ap    -0.157267    19App   -0.152580    30Ap    -0.152580  
      31Ap    -0.145820    20App   -0.145452    21App   -0.142982  
      32Ap    -0.142971    33Ap    -0.101034    34Ap    -0.082756  
      22App   -0.061653    35Ap    -0.061648    36Ap    -0.057264  
      23App   -0.053629    37Ap    -0.053627    24App   -0.031456  
      38Ap    -0.031455    39Ap    -0.021332    25App    0.004399  
      40Ap     0.004405    26App    0.025427    27App    0.027505  
      41Ap     0.027515    42Ap     0.032625    43Ap     0.046817  
      28App    0.058265    44Ap     0.058277    29App    0.132956  
      45Ap     0.132962    30App    0.186622    46Ap     0.186638  
      47Ap     0.189095    31App    0.224642    48Ap     0.242452  
      49Ap     0.287768    32App    0.296935    50Ap     0.296935  
      33App    0.305397    51Ap     0.305415    34App    0.329550  
      52Ap     0.329553    53Ap     0.344305    35App    0.369367  
      54Ap     0.369427    55Ap     0.410941    36App    0.410951  
      37App    0.421118    56Ap     0.429113    57Ap     0.665421  
      38App    0.665535    58Ap     0.755945    59Ap     1.119616  
      39App    1.119628    60Ap     1.168197    61Ap     1.174425  
      62Ap     1.179465    40App    1.179470    63Ap     1.188887  
      41App    1.192217    64Ap     1.192221    65Ap     1.199009  
      42App    1.199031    43App    1.204612    66Ap     1.218142  
      44App    1.218156    45App    1.225032    67Ap     1.226350  
      46App    1.226353    68Ap     1.231108    69Ap     1.233285  
      47App    1.233289    70Ap     1.233925    48App    1.239875  
      49App    1.267170    71Ap     1.267177    72Ap     1.280533  
      50App    1.280543    51App    1.285136    73Ap     1.331294  
      74Ap     1.364790    75Ap     1.366316    52App    1.366337  
      53App    1.398540    76Ap     1.398545    77Ap     1.407600  
      54App    1.447211    78Ap     1.447216    79Ap     1.475513  
      55App    1.525092    56App    1.547310    80Ap     1.547320  
      81Ap     1.702324    57App    1.702336    82Ap     1.712020  
      58App    1.726494    59App    1.731834    83Ap     1.731922  
      84Ap     1.766334    85Ap     1.773191    60App    1.773191  
      86Ap     1.791131    61App    1.795649    87Ap     1.795653  
      62App    1.804169    88Ap     1.804177    63App    1.816059  
      64App    1.816153    89Ap     1.816154    90Ap     1.839801  
      65App    1.893249    91Ap     1.893249    92Ap     2.135056  
      93Ap     2.327044    66App    2.368430    94Ap     2.368538  
      95Ap     2.666087    96Ap     2.843667    67App    2.843719  
      97Ap     2.885258    68App    3.102630    98Ap     3.103287  
      99Ap     3.668083    69App    3.668446   100Ap     3.703617  
     101Ap     4.210373    70App    4.210399   102Ap     4.224373  
     103Ap     4.231315    71App    4.231338    72App    4.234359  
     104Ap     4.251300    73App    4.251338    74App    4.253374  
     105Ap     4.253602   106Ap     4.268807    75App    4.268825  
      76App    4.270739   107Ap     4.276692   108Ap     4.282092  
      77App    4.282115   109Ap     4.295734    78App    4.304478  
     110Ap     4.304497   111Ap     4.379787    79App    4.379837  
     112Ap     4.388879    80App    4.413140   113Ap     4.429144  
      81App    4.429178    82App    4.592464   114Ap     4.592562  
     115Ap     4.620893    83App    5.032092    84App    5.033344  
     116Ap     5.033370    85App    5.033724   117Ap     5.033974  
     118Ap     5.034408    86App    5.034500    87App    5.036073  
     119Ap     5.036131    88App    5.036229   120Ap     5.036705  
      89App    5.036759    90App    5.036913   121Ap     5.037242  
      91App    5.037739   122Ap     5.037804    92App    5.038985  
     123Ap     5.039042   124Ap     5.041991    93App    5.041993  
     125Ap     5.045329    94App    5.047785   126Ap     5.047786  
     127Ap     5.056514   128Ap     5.063936    95App    5.064289  
     129Ap     5.064318    96App    5.064928   130Ap     5.065355  
      97App    5.066113   131Ap     5.066116   132Ap     5.069294  
      98App    5.069505    99App    5.162222   133Ap     5.162288  
     134Ap     5.188410   135Ap    32.533453   136Ap    32.782928  
     100App   32.927461   137Ap    32.927466   138Ap   110.211838  
     139Ap   110.298588   101App  110.329669   140Ap   110.329670  

    Final Occupation by Irrep:
             Ap   App 
    DOCC [    22,   15 ]
    SOCC [     1,    0 ]

  @DF-UKS Final Energy:  -586.78800527293424

   => Energetics <=

    Nuclear Repulsion Energy =            418.3509837772567721
    One-Electron Energy =               -1850.0548677425108508
    Two-Electron Energy =                 876.8338680829770055
    DFT Exchange-Correlation Energy =     -31.9176792806569551
    Empirical Dispersion Energy =          -0.0003101100000000
    VV10 Nonlocal Energy =                  0.0000000000000000
    Total Energy =                       -586.7880052729341287

  UHF NO Occupations:
  HONO-2 :   21 Ap 1.9995492
  HONO-1 :   22 Ap 1.9974635
  HONO-0 :   23 Ap 1.0000000
  LUNO+0 :   24 Ap 0.0025365
  LUNO+1 :   25 Ap 0.0004508
  LUNO+2 :   16App 0.0004498
  LUNO+3 :   26 Ap 0.0001582


Computation Completed


Properties will be evaluated at   0.000000,   0.000000,   0.000000 [a0]

Properties computed using the SCF density matrix

  Nuclear Dipole Moment: [e a0]
     X:    -0.0000      Y:     2.6688      Z:     0.0000

  Electronic Dipole Moment: [e a0]
     X:     0.0003      Y:    -2.5941      Z:     0.0000

  Dipole Moment: [e a0]
     X:     0.0003      Y:     0.0747      Z:     0.0000     Total:     0.0747

  Dipole Moment: [D]
     X:     0.0008      Y:     0.1899      Z:     0.0000     Total:     0.1899


*** tstop() called on compute130.bc4.acrc.priv at Tue Nov  2 11:09:57 2021
Module time:
	user time   =     837.80 seconds =      13.96 minutes
	system time =      38.94 seconds =       0.65 minutes
	total time  =         44 seconds =       0.73 minutes
Total time:
	user time   =     837.80 seconds =      13.96 minutes
	system time =      38.94 seconds =       0.65 minutes
	total time  =         44 seconds =       0.73 minutes

    Psi4 stopped on: Tuesday, 02 November 2021 11:09AM
    Psi4 wall time for execution: 0:00:44.25

*** Psi4 exiting successfully. Buy a developer a beer!
