
    -----------------------------------------------------------------------
          Psi4: An Open-Source Ab Initio Electronic Structure Package
                               Psi4 1.4.1 release

                         Git: Rev {HEAD} cd00f19 


    D. G. A. Smith, L. A. Burns, A. C. Simmonett, R. M. Parrish,
    M. C. Schieber, R. Galvelis, P. Kraus, H. Kruse, R. Di Remigio,
    A. Alenaizan, A. M. James, S. Lehtola, J. P. Misiewicz, M. Scheurer,
    R. A. Shaw, J. B. Schriber, Y. Xie, Z. L. Glick, D. A. Sirianni,
    J. S. O'Brien, J. M. Waldrop, A. Kumar, E. G. Hohenstein,
    B. P. Pritchard, B. R. Brooks, H. F. Schaefer III, A. Yu. Sokolov,
    K. Patkowski, A. E. DePrince III, U. Bozkaya, R. A. King,
    F. A. Evangelista, J. M. Turney, T. D. Crawford, C. D. Sherrill,
    J. Chem. Phys. 152(18) 184108 (2020). https://doi.org/10.1063/5.0006002

                            Additional Code Authors
    E. T. Seidl, C. L. Janssen, E. F. Valeev, M. L. Leininger,
    J. F. Gonthier, R. M. Richard, H. R. McAlexander, M. Saitow, X. Wang,
    P. Verma, and M. H. Lechner

             Previous Authors, Complete List of Code Contributors,
                       and Citations for Specific Modules
    https://github.com/psi4/psi4/blob/master/codemeta.json
    https://github.com/psi4/psi4/graphs/contributors
    http://psicode.org/psi4manual/master/introduction.html#citing-psifour

    -----------------------------------------------------------------------


    Psi4 started on: Tuesday, 02 November 2021 11:09AM

    Process ID: 16042
    Host:       compute415.bc4.acrc.priv
    PSIDATADIR: /mnt/storage/home/zw18965/.conda/envs/p4env/share/psi4
    Memory:     500.0 MiB
    Threads:    28
    
  ==> Input File <==

--------------------------------------------------------------------------
memory 144 GB

molecule {
2 1
Ag      -0.000000   -0.000016    1.715553 
Ag       0.000000   -1.617524   -0.571836 
Ag       1.400774    0.808769   -0.571859 
Ag      -1.400774    0.808770   -0.571858 
 }

set basis Def2-TZVPPD

energy("MN15-D3BJ")
--------------------------------------------------------------------------

  Memory set to 134.110 GiB by Python driver.

Scratch directory: /tmp/

*** tstart() called on compute415.bc4.acrc.priv
*** at Tue Nov  2 11:09:01 2021

   => Loading Basis Set <=

    Name: DEF2-TZVPPD
    Role: ORBITAL
    Keyword: BASIS
    atoms 1-4 entry AG         line  2174 (ECP: line  3646) file /mnt/storage/home/zw18965/.conda/envs/p4env/share/psi4/basis/def2-tzvppd.gbs 

    !!!  WARNING: ECP capability is in beta. Please check occupations closely.  !!!

   => MN15-D3(BJ): Empirical Dispersion <=

    Grimme's -D3 (BJ-damping) Dispersion Correction
    Grimme S.; Ehrlich S.; Goerigk L. (2011), J. Comput. Chem., 32: 1456
    Parametrisation from:    L. Goerigk, A. Hansen, C. Bauer, S. Ehrlich, A. Najibi, S. Grimme, Phys. Chem. Chem. Phys. 19, 32184-32215, 2017

        s6 =       1.000000
        s8 =       2.097100
        a1 =       0.786200
        a2 =       7.592300


         ---------------------------------------------------------
                                   SCF
               by Justin Turney, Rob Parrish, Andy Simmonett
                          and Daniel G. A. Smith
                              RKS Reference
                       28 Threads, 137329 MiB Core
         ---------------------------------------------------------

  ==> Geometry <==

    Molecular point group: c1
    Full point group: C1

    Geometry (in Angstrom), charge = 2, multiplicity = 1:

       Center              X                  Y                   Z               Mass       
    ------------   -----------------  -----------------  -----------------  -----------------
         AG          -0.000000000000    -0.000015750000     1.715553000000   106.905091600000
         AG          -0.000000000000    -1.617523750000    -0.571836000000   106.905091600000
         AG           1.400774000000     0.808769250000    -0.571859000000   106.905091600000
         AG          -1.400774000000     0.808770250000    -0.571858000000   106.905091600000

  Running in c1 symmetry.

  Rotational constants: A =      0.02009  B =      0.02009  C =      0.02009 [cm^-1]
  Rotational constants: A =    602.32776  B =    602.30657  C =    602.29241 [MHz]
  Nuclear repulsion =  409.128587124652711

  Charge       = 2
  Multiplicity = 1
  Electrons    = 74
  Nalpha       = 37
  Nbeta        = 37

  ==> Algorithm <==

  SCF Algorithm Type is DF.
  DIIS enabled.
  MOM disabled.
  Fractional occupation disabled.
  Guess Type is SAD.
  Energy threshold   = 1.00e-06
  Density threshold  = 1.00e-06
  Integral threshold = 1.00e-12

  ==> Primary Basis <==

  Basis Set: DEF2-TZVPPD
    Blend: DEF2-TZVPPD
    Number of shells: 64
    Number of basis functions: 224
    Number of Cartesian functions: 284
    Spherical Harmonics?: true
    Max angular momentum: 4

  Core potential: DEF2-TZVPPD
    Number of shells: 16
    Number of ECP primitives: 56
    Number of ECP core electrons: 112
    Max angular momentum: 3

  ==> DFT Potential <==

   => Composite Functional: MN15-D3BJ <= 

   MN15 Hybrid Meta-GGA Exchange-Correlation Functional

    H. S. Yu, X. He, S. L. Li, and D. G. Truhlar, Chem. Sci. 7, 5032-5051, 2016


    Deriv               =              1
    GGA                 =           TRUE
    Meta                =           TRUE

    Exchange Hybrid     =           TRUE
    MP2 Hybrid          =          FALSE

   => Exchange Functionals <=

    1.0000   XC_HYB_MGGA_X_MN15

   => Exact (HF) Exchange <=

    0.4400               HF 

   => Correlation Functionals <=

    1.0000   XC_MGGA_C_MN15

   => LibXC Density Thresholds  <==

    XC_MGGA_C_MN15:  1.00E-15 
    XC_HYB_MGGA_X_MN15:  1.00E-15 

   => Molecular Quadrature <=

    Radial Scheme          =       TREUTLER
    Pruning Scheme         =           NONE
    Nuclear Scheme         =       TREUTLER

    BS radius alpha        =              1
    Pruning alpha          =              1
    Radial Points          =             75
    Spherical Points       =            302
    Total Points           =          83823
    Total Blocks           =            753
    Max Points             =            256
    Max Functions          =            219
    Weights Tolerance      =       1.00E-15

   => Loading Basis Set <=

    Name: (DEF2-TZVPPD AUX)
    Role: JKFIT
    Keyword: DF_BASIS_SCF
    atoms 1-4 entry AG         line  4364 file /mnt/storage/home/zw18965/.conda/envs/p4env/share/psi4/basis/def2-universal-jkfit.gbs 

  ==> Integral Setup <==

  DFHelper Memory: AOs need 0.405 GiB; user supplied 99.740 GiB. Using in-core AOs.

  ==> MemDFJK: Density-Fitted J/K Matrices <==

    J tasked:                   Yes
    K tasked:                   Yes
    wK tasked:                   No
    OpenMP threads:              28
    Memory [MiB]:            102133
    Algorithm:                 Core
    Schwarz Cutoff:           1E-12
    Mask sparsity (%):       2.2720
    Fitting Condition:        1E-10

   => Auxiliary Basis Set <=

  Basis Set: (DEF2-TZVPPD AUX)
    Blend: DEF2-UNIVERSAL-JKFIT
    Number of shells: 196
    Number of basis functions: 1020
    Number of Cartesian functions: 1536
    Spherical Harmonics?: true
    Max angular momentum: 6

  Cached 100.0% of DFT collocation blocks in 0.843 [GiB].

  Minimum eigenvalue in the overlap matrix is 1.9393201064E-03.
  Reciprocal condition number of the overlap matrix is 2.8703941110E-04.
    Using symmetric orthogonalization.

  ==> Pre-Iterations <==

  SCF Guess: Superposition of Atomic Densities via on-the-fly atomic UHF (no occupation information).

   -------------------------
    Irrep   Nso     Nmo    
   -------------------------
     A        224     224 
   -------------------------
    Total     224     224
   -------------------------

  ==> Iterations <==

                           Total Energy        Delta E     RMS |[F,P]|

   @DF-RKS iter SAD:  -586.04465409523323   -5.86045e+02   0.00000e+00 
   @DF-RKS iter   1:  -586.16433673150527   -1.19683e-01   2.47364e-03 DIIS
   @DF-RKS iter   2:  -586.13367544117955    3.06613e-02   3.07714e-03 DIIS
   @DF-RKS iter   3:  -586.25109268611845   -1.17417e-01   8.88981e-05 DIIS
   @DF-RKS iter   4:  -586.25127220634283   -1.79520e-04   6.90506e-05 DIIS
   @DF-RKS iter   5:  -586.25134380915267   -7.16028e-05   1.38067e-05 DIIS
   @DF-RKS iter   6:  -586.25134832815377   -4.51900e-06   4.24005e-06 DIIS
   @DF-RKS iter   7:  -586.25134863631820   -3.08164e-07   2.83312e-06 DIIS
   @DF-RKS iter   8:  -586.25134877328401   -1.36966e-07   3.68990e-07 DIIS
  Energy and wave function converged.


  ==> Post-Iterations <==

   Electrons on quadrature grid:
      Ntotal   =   74.0000172127 ; deviation = 1.721e-05 

    Orbital Energies [Eh]
    ---------------------

    Doubly Occupied:                                                      

       1A     -4.025116     2A     -4.024735     3A     -4.024734  
       4A     -4.024731     5A     -2.678315     6A     -2.676289  
       7A     -2.676287     8A     -2.676286     9A     -2.675661  
      10A     -2.675656    11A     -2.673982    12A     -2.673982  
      13A     -2.673978    14A     -2.673356    15A     -2.673352  
      16A     -2.673351    17A     -0.801951    18A     -0.781695  
      19A     -0.781690    20A     -0.781689    21A     -0.774758  
      22A     -0.774753    23A     -0.761313    24A     -0.761309  
      25A     -0.761308    26A     -0.740464    27A     -0.740463  
      28A     -0.740461    29A     -0.738489    30A     -0.738486  
      31A     -0.737403    32A     -0.737402    33A     -0.737395  
      34A     -0.719045    35A     -0.719037    36A     -0.719037  
      37A     -0.660055  

    Virtual:                                                              

      38A     -0.418819    39A     -0.418817    40A     -0.418813  
      41A     -0.287023    42A     -0.283578    43A     -0.283575  
      44A     -0.283574    45A     -0.273553    46A     -0.273547  
      47A     -0.144362    48A     -0.144358    49A     -0.144357  
      50A     -0.139124    51A     -0.139121    52A     -0.139118  
      53A     -0.101024    54A     -0.079285    55A     -0.052765  
      56A     -0.052764    57A     -0.052763    58A     -0.050078  
      59A     -0.050074    60A     -0.030804    61A     -0.030804  
      62A     -0.030800    63A      0.029363    64A      0.029369  
      65A      0.029371    66A      0.047334    67A      0.047345  
      68A      0.047356    69A      0.077169    70A      0.077178  
      71A      0.077180    72A      0.199427    73A      0.199434  
      74A      0.214906    75A      0.228085    76A      0.228091  
      77A      0.228093    78A      0.310963    79A      0.310971  
      80A      0.310982    81A      0.323021    82A      0.323025  
      83A      0.366690    84A      0.366710    85A      0.366715  
      86A      0.425665    87A      0.425670    88A      0.425681  
      89A      1.131486    90A      1.131486    91A      1.175868  
      92A      1.175868    93A      1.175876    94A      1.180982  
      95A      1.182297    96A      1.182302    97A      1.182304  
      98A      1.201176    99A      1.201192   100A      1.201195  
     101A      1.202115   102A      1.218598   103A      1.218615  
     104A      1.218745   105A      1.218750   106A      1.218769  
     107A      1.225105   108A      1.245245   109A      1.245256  
     110A      1.245277   111A      1.246407   112A      1.246411  
     113A      1.246420   114A      1.291749   115A      1.291770  
     116A      1.291785   117A      1.304725   118A      1.304732  
     119A      1.304744   120A      1.381738   121A      1.398704  
     122A      1.398707   123A      1.408258   124A      1.408264  
     125A      1.408273   126A      1.535645   127A      1.535650  
     128A      1.535689   129A      1.612320   130A      1.705904  
     131A      1.705908   132A      1.705917   133A      1.734806  
     134A      1.734818   135A      1.736427   136A      1.736440  
     137A      1.736450   138A      1.806930   139A      1.806958  
     140A      1.806997   141A      1.813200   142A      1.813226  
     143A      1.813231   144A      1.823415   145A      1.823427  
     146A      1.823450   147A      1.834384   148A      1.834388  
     149A      2.210336   150A      2.332333   151A      2.332368  
     152A      2.332388   153A      4.197627   154A      4.197651  
     155A      4.218419   156A      4.218476   157A      4.218486  
     158A      4.224755   159A      4.237978   160A      4.238030  
     161A      4.238045   162A      4.238571   163A      4.238590  
     164A      4.238628   165A      4.241832   166A      4.251156  
     167A      4.277232   168A      4.277240   169A      4.277252  
     170A      4.289243   171A      4.289251   172A      4.289275  
     173A      4.299588   174A      4.299632   175A      4.419117  
     176A      4.419150   177A      4.419165   178A      4.424162  
     179A      4.424173   180A      4.424190   181A      5.045744  
     182A      5.045803   183A      5.045859   184A      5.046051  
     185A      5.046153   186A      5.046160   187A      5.046203  
     188A      5.046213   189A      5.046760   190A      5.047013  
     191A      5.047110   192A      5.047124   193A      5.047199  
     194A      5.047256   195A      5.047263   196A      5.047305  
     197A      5.048043   198A      5.048109   199A      5.048290  
     200A      5.048325   201A      5.048337   202A      5.048364  
     203A      5.048846   204A      5.048906   205A      5.048954  
     206A      5.049002   207A      5.049073   208A      5.049114  
     209A      5.049842   210A      5.049906   211A      5.050568  
     212A      5.050641   213A      5.050702   214A      5.063063  
     215A      5.063067   216A      5.063082   217A     32.446150  
     218A     32.846620   219A     32.846627   220A     32.846646  
     221A    110.187203   222A    110.313802   223A    110.313804  
     224A    110.313811  

    Final Occupation by Irrep:
              A 
    DOCC [    37 ]

  @DF-RKS Final Energy:  -586.25134877328401

   => Energetics <=

    Nuclear Repulsion Energy =            409.1285871246527108
    One-Electron Energy =               -1831.8962566864258861
    Two-Electron Energy =                 868.2400632939423986
    DFT Exchange-Correlation Energy =     -31.7234845654532513
    Empirical Dispersion Energy =          -0.0002579400000000
    VV10 Nonlocal Energy =                  0.0000000000000000
    Total Energy =                       -586.2513487732840076

Computation Completed


Properties will be evaluated at   0.000000,   0.000000,   0.000000 [a0]

Properties computed using the SCF density matrix

  Nuclear Dipole Moment: [e a0]
     X:    -0.0000      Y:    -0.0000      Z:    -0.0000

  Electronic Dipole Moment: [e a0]
     X:    -0.0000      Y:    -0.0000      Z:    -0.0000

  Dipole Moment: [e a0]
     X:    -0.0000      Y:    -0.0000      Z:    -0.0000     Total:     0.0000

  Dipole Moment: [D]
     X:    -0.0000      Y:    -0.0001      Z:    -0.0000     Total:     0.0001


*** tstop() called on compute415.bc4.acrc.priv at Tue Nov  2 11:09:16 2021
Module time:
	user time   =     133.16 seconds =       2.22 minutes
	system time =       4.66 seconds =       0.08 minutes
	total time  =         15 seconds =       0.25 minutes
Total time:
	user time   =     133.16 seconds =       2.22 minutes
	system time =       4.66 seconds =       0.08 minutes
	total time  =         15 seconds =       0.25 minutes

    Psi4 stopped on: Tuesday, 02 November 2021 11:09AM
    Psi4 wall time for execution: 0:00:14.84

*** Psi4 exiting successfully. Buy a developer a beer!
