
    -----------------------------------------------------------------------
          Psi4: An Open-Source Ab Initio Electronic Structure Package
                               Psi4 1.4.1 release

                         Git: Rev {HEAD} cd00f19 


    D. G. A. Smith, L. A. Burns, A. C. Simmonett, R. M. Parrish,
    M. C. Schieber, R. Galvelis, P. Kraus, H. Kruse, R. Di Remigio,
    A. Alenaizan, A. M. James, S. Lehtola, J. P. Misiewicz, M. Scheurer,
    R. A. Shaw, J. B. Schriber, Y. Xie, Z. L. Glick, D. A. Sirianni,
    J. S. O'Brien, J. M. Waldrop, A. Kumar, E. G. Hohenstein,
    B. P. Pritchard, B. R. Brooks, H. F. Schaefer III, A. Yu. Sokolov,
    K. Patkowski, A. E. DePrince III, U. Bozkaya, R. A. King,
    F. A. Evangelista, J. M. Turney, T. D. Crawford, C. D. Sherrill,
    J. Chem. Phys. 152(18) 184108 (2020). https://doi.org/10.1063/5.0006002

                            Additional Code Authors
    E. T. Seidl, C. L. Janssen, E. F. Valeev, M. L. Leininger,
    J. F. Gonthier, R. M. Richard, H. R. McAlexander, M. Saitow, X. Wang,
    P. Verma, and M. H. Lechner

             Previous Authors, Complete List of Code Contributors,
                       and Citations for Specific Modules
    https://github.com/psi4/psi4/blob/master/codemeta.json
    https://github.com/psi4/psi4/graphs/contributors
    http://psicode.org/psi4manual/master/introduction.html#citing-psifour

    -----------------------------------------------------------------------


    Psi4 started on: Tuesday, 02 November 2021 11:07AM

    Process ID: 13138
    Host:       compute130.bc4.acrc.priv
    PSIDATADIR: /mnt/storage/home/zw18965/.conda/envs/p4env/share/psi4
    Memory:     500.0 MiB
    Threads:    28
    
  ==> Input File <==

--------------------------------------------------------------------------
memory 144 GB

molecule {
2 1
Ag      -0.268639    1.507918    0.000000 
Ag       1.705052   -0.492854   -0.000000 
Ag      -0.647170   -0.911099    1.379441 
Ag      -0.647170   -0.911099   -1.379441 
N       -0.647170    3.675657    0.000000 
H       -0.250844    4.149729    0.817426 
H       -0.250844    4.149729   -0.817426 
H       -1.645581    3.906275    0.000000 
 }

set basis Def2-TZVPPD

energy("MN15-D3BJ")
--------------------------------------------------------------------------

  Memory set to 134.110 GiB by Python driver.

Scratch directory: /tmp/

*** tstart() called on compute130.bc4.acrc.priv
*** at Tue Nov  2 11:07:37 2021

   => Loading Basis Set <=

    Name: DEF2-TZVPPD
    Role: ORBITAL
    Keyword: BASIS
    atoms 1-4 entry AG         line  2174 (ECP: line  3646) file /mnt/storage/home/zw18965/.conda/envs/p4env/share/psi4/basis/def2-tzvppd.gbs 
    atoms 5   entry N          line   181 file /mnt/storage/home/zw18965/.conda/envs/p4env/share/psi4/basis/def2-tzvppd.gbs 
    atoms 6-8 entry H          line    14 file /mnt/storage/home/zw18965/.conda/envs/p4env/share/psi4/basis/def2-tzvppd.gbs 

    !!!  WARNING: ECP capability is in beta. Please check occupations closely.  !!!

   => MN15-D3(BJ): Empirical Dispersion <=

    Grimme's -D3 (BJ-damping) Dispersion Correction
    Grimme S.; Ehrlich S.; Goerigk L. (2011), J. Comput. Chem., 32: 1456
    Parametrisation from:    L. Goerigk, A. Hansen, C. Bauer, S. Ehrlich, A. Najibi, S. Grimme, Phys. Chem. Chem. Phys. 19, 32184-32215, 2017

        s6 =       1.000000
        s8 =       2.097100
        a1 =       0.786200
        a2 =       7.592300


         ---------------------------------------------------------
                                   SCF
               by Justin Turney, Rob Parrish, Andy Simmonett
                          and Daniel G. A. Smith
                              RKS Reference
                       28 Threads, 137329 MiB Core
         ---------------------------------------------------------

  ==> Geometry <==

    Molecular point group: cs
    Full point group: Cs

    Geometry (in Angstrom), charge = 2, multiplicity = 1:

       Center              X                  Y                   Z               Mass       
    ------------   -----------------  -----------------  -----------------  -----------------
         AG          -0.277549184886     1.558553668839     0.000000000000   106.905091600000
         AG           1.696141815114    -0.442218331161     0.000000000000   106.905091600000
         AG          -0.656080184886    -0.860463331161     1.379441000000   106.905091600000
         AG          -0.656080184886    -0.860463331161    -1.379441000000   106.905091600000
         N           -0.656080184886     3.726292668839     0.000000000000    14.003074004430
         H           -0.259754184886     4.200364668839     0.817426000000     1.007825032230
         H           -0.259754184886     4.200364668839    -0.817426000000     1.007825032230
         H           -1.654491184886     3.956910668839     0.000000000000     1.007825032230

  Running in cs symmetry.

  Rotational constants: A =      0.02065  B =      0.01531  C =      0.01530 [cm^-1]
  Rotational constants: A =    619.07535  B =    458.84484  C =    458.82428 [MHz]
  Nuclear repulsion =  527.725235825397704

  Charge       = 2
  Multiplicity = 1
  Electrons    = 84
  Nalpha       = 42
  Nbeta        = 42

  ==> Algorithm <==

  SCF Algorithm Type is DF.
  DIIS enabled.
  MOM disabled.
  Fractional occupation disabled.
  Guess Type is SAD.
  Energy threshold   = 1.00e-06
  Density threshold  = 1.00e-06
  Integral threshold = 1.00e-12

  ==> Primary Basis <==

  Basis Set: DEF2-TZVPPD
    Blend: DEF2-TZVPPD
    Number of shells: 98
    Number of basis functions: 312
    Number of Cartesian functions: 381
    Spherical Harmonics?: true
    Max angular momentum: 4

  Core potential: DEF2-TZVPPD
    Number of shells: 16
    Number of ECP primitives: 56
    Number of ECP core electrons: 112
    Max angular momentum: 3

  ==> DFT Potential <==

   => Composite Functional: MN15-D3BJ <= 

   MN15 Hybrid Meta-GGA Exchange-Correlation Functional

    H. S. Yu, X. He, S. L. Li, and D. G. Truhlar, Chem. Sci. 7, 5032-5051, 2016


    Deriv               =              1
    GGA                 =           TRUE
    Meta                =           TRUE

    Exchange Hybrid     =           TRUE
    MP2 Hybrid          =          FALSE

   => Exchange Functionals <=

    1.0000   XC_HYB_MGGA_X_MN15

   => Exact (HF) Exchange <=

    0.4400               HF 

   => Correlation Functionals <=

    1.0000   XC_MGGA_C_MN15

   => LibXC Density Thresholds  <==

    XC_MGGA_C_MN15:  1.00E-15 
    XC_HYB_MGGA_X_MN15:  1.00E-15 

   => Molecular Quadrature <=

    Radial Scheme          =       TREUTLER
    Pruning Scheme         =           NONE
    Nuclear Scheme         =       TREUTLER

    BS radius alpha        =              1
    Pruning alpha          =              1
    Radial Points          =             75
    Spherical Points       =            302
    Total Points           =         169899
    Total Blocks           =           1408
    Max Points             =            256
    Max Functions          =            292
    Weights Tolerance      =       1.00E-15

   => Loading Basis Set <=

    Name: (DEF2-TZVPPD AUX)
    Role: JKFIT
    Keyword: DF_BASIS_SCF
    atoms 1-4 entry AG         line  4364 file /mnt/storage/home/zw18965/.conda/envs/p4env/share/psi4/basis/def2-universal-jkfit.gbs 
    atoms 5   entry N          line   258 file /mnt/storage/home/zw18965/.conda/envs/p4env/share/psi4/basis/def2-universal-jkfit.gbs 
    atoms 6-8 entry H          line    18 file /mnt/storage/home/zw18965/.conda/envs/p4env/share/psi4/basis/def2-universal-jkfit.gbs 

  ==> Integral Setup <==

  DFHelper Memory: AOs need 0.788 GiB; user supplied 98.455 GiB. Using in-core AOs.

  ==> MemDFJK: Density-Fitted J/K Matrices <==

    J tasked:                   Yes
    K tasked:                   Yes
    wK tasked:                   No
    OpenMP threads:              28
    Memory [MiB]:            100817
    Algorithm:                 Core
    Schwarz Cutoff:           1E-12
    Mask sparsity (%):      12.5657
    Fitting Condition:        1E-10

   => Auxiliary Basis Set <=

  Basis Set: (DEF2-TZVPPD AUX)
    Blend: DEF2-UNIVERSAL-JKFIT
    Number of shells: 239
    Number of basis functions: 1151
    Number of Cartesian functions: 1689
    Spherical Harmonics?: true
    Max angular momentum: 6

  Cached 100.0% of DFT collocation blocks in 2.128 [GiB].

  Minimum eigenvalue in the overlap matrix is 1.7564697249E-04.
  Reciprocal condition number of the overlap matrix is 2.1272051910E-05.
    Using symmetric orthogonalization.

  ==> Pre-Iterations <==

  SCF Guess: Superposition of Atomic Densities via on-the-fly atomic UHF (no occupation information).

   -------------------------
    Irrep   Nso     Nmo    
   -------------------------
     A'       182     182 
     A"       130     130 
   -------------------------
    Total     312     312
   -------------------------

  ==> Iterations <==

                           Total Energy        Delta E     RMS |[F,P]|

   @DF-RKS iter SAD:  -642.30390442188184   -6.42304e+02   0.00000e+00 
   @DF-RKS iter   1:  -642.56488135702511   -2.60977e-01   3.97554e-03 DIIS
   @DF-RKS iter   2:  -642.30466735941627    2.60214e-01   5.23043e-03 DIIS
   @DF-RKS iter   3:  -642.84284170976787   -5.38174e-01   4.60292e-04 DIIS
   @DF-RKS iter   4:  -642.84625595699094   -3.41425e-03   2.74837e-04 DIIS
   @DF-RKS iter   5:  -642.84732019920295   -1.06424e-03   2.40170e-05 DIIS
   @DF-RKS iter   6:  -642.84733423092791   -1.40317e-05   1.42028e-05 DIIS
   @DF-RKS iter   7:  -642.84733759463541   -3.36371e-06   6.30144e-06 DIIS
   @DF-RKS iter   8:  -642.84733827477373   -6.80138e-07   2.14529e-06 DIIS
   @DF-RKS iter   9:  -642.84733835438294   -7.96092e-08   9.08492e-07 DIIS
  Energy and wave function converged.


  ==> Post-Iterations <==

   Electrons on quadrature grid:
      Ntotal   =   83.9999653006 ; deviation = -3.470e-05 

    Orbital Energies [Eh]
    ---------------------

    Doubly Occupied:                                                      

       1Ap   -14.419326     2Ap    -3.996411     3Ap    -3.996053  
       1App   -3.996049     4Ap    -3.983514     5Ap    -2.649261  
       2App   -2.647545     6Ap    -2.647536     7Ap    -2.646392  
       8Ap    -2.645920     3App   -2.645918     4App   -2.645206  
       5App   -2.644497     9Ap    -2.644494     6App   -2.633072  
      10Ap    -2.633069    11Ap    -2.630855    12Ap    -1.221904  
       7App   -0.824978    13Ap    -0.824972    14Ap    -0.779173  
      15Ap    -0.757302     8App   -0.750682    16Ap    -0.750668  
       9App   -0.741566    17Ap    -0.741560    18Ap    -0.734331  
      19Ap    -0.732436    10App   -0.727726    20Ap    -0.727721  
      11App   -0.710850    12App   -0.709650    21Ap    -0.709649  
      22Ap    -0.707852    13App   -0.707848    14App   -0.700354  
      23Ap    -0.700335    15App   -0.688585    24Ap    -0.681971  
      16App   -0.681962    25Ap    -0.647076    26Ap    -0.626767  

    Virtual:                                                              

      17App   -0.393333    27Ap    -0.393325    28Ap    -0.366712  
      29Ap    -0.263649    30Ap    -0.260805    18App   -0.260805  
      19App   -0.251541    31Ap    -0.251535    32Ap    -0.220886  
      33Ap    -0.152837    20App   -0.133965    34Ap    -0.133960  
      21App   -0.124329    22App   -0.124114    35Ap    -0.124096  
      36Ap    -0.107052    23App   -0.102532    37Ap    -0.102520  
      38Ap    -0.067446    39Ap    -0.062144    24App   -0.062026  
      40Ap    -0.057769    41Ap    -0.038049    25App   -0.033330  
      42Ap    -0.033326    43Ap    -0.017465    26App   -0.017404  
      44Ap    -0.007152    27App   -0.006653    45Ap    -0.006520  
      46Ap     0.029802    47Ap     0.033967    28App    0.034174  
      29App    0.049459    48Ap     0.070908    30App    0.071036  
      31App    0.075188    49Ap     0.075237    50Ap     0.083487  
      51Ap     0.113062    52Ap     0.119469    32App    0.119470  
      33App    0.130060    53Ap     0.132196    34App    0.137700  
      54Ap     0.138018    55Ap     0.176225    56Ap     0.198530  
      35App    0.198573    57Ap     0.243718    36App    0.247829  
      58Ap     0.247971    37App    0.255150    59Ap     0.257951  
      38App    0.258356    39App    0.282568    60Ap     0.282774  
      61Ap     0.313403    62Ap     0.337072    40App    0.337180  
      63Ap     0.372932    41App    0.378246    64Ap     0.378401  
      65Ap     0.405912    42App    0.405969    43App    0.451644  
      66Ap     0.466406    44App    0.477124    67Ap     0.477194  
      68Ap     0.483316    69Ap     0.498963    45App    0.499003  
      70Ap     0.561599    71Ap     0.638923    46App    0.639362  
      72Ap     0.660726    47App    0.836656    73Ap     0.892568  
      48App    0.892658    74Ap     0.921958    75Ap     0.930685  
      49App    0.930856    50App    1.002782    76Ap     1.002782  
      77Ap     1.162970    78Ap     1.179100    51App    1.179135  
      79Ap     1.203085    52App    1.218931    80Ap     1.218980  
      81Ap     1.223828    82Ap     1.227175    53App    1.227325  
      54App    1.238446    83Ap     1.241957    84Ap     1.246133  
      55App    1.246157    85Ap     1.257070    56App    1.257082  
      57App    1.261141    86Ap     1.261283    58App    1.263873  
      87Ap     1.264060    88Ap     1.269437    59App    1.282803  
      89Ap     1.282819    60App    1.283381    90Ap     1.292442  
      61App    1.302552    91Ap     1.302581    62App    1.323332  
      92Ap     1.323350    63App    1.332862    93Ap     1.348249  
      64App    1.348287    94Ap     1.367034    65App    1.433983  
      95Ap     1.433985    66App    1.447331    96Ap     1.447342  
      97Ap     1.456042    67App    1.487344    98Ap     1.487429  
      99Ap     1.539503    68App    1.560493   100Ap     1.560647  
      69App    1.569828   101Ap     1.604603    70App    1.604783  
     102Ap     1.654038   103Ap     1.734380    71App    1.745205  
     104Ap     1.745307    72App    1.764779   105Ap     1.775107  
      73App    1.775132   106Ap     1.794807    74App    1.802022  
     107Ap     1.802111   108Ap     1.841628    75App    1.841656  
     109Ap     1.847239   110Ap     1.848654    76App    1.848671  
      77App    1.861928    78App    1.875706   111Ap     1.875897  
     112Ap     1.909534   113Ap     2.072525    79App    2.073369  
     114Ap     2.205913    80App    2.294141   115Ap     2.294178  
     116Ap     2.301858   117Ap     2.405026   118Ap     2.421462  
      81App    2.421491   119Ap     2.470632   120Ap     2.516126  
      82App    2.602814   121Ap     2.602919   122Ap     2.849929  
      83App    2.888664   123Ap     2.964868    84App    2.964932  
      85App    3.034118   124Ap     3.034120    86App    3.126539  
     125Ap     3.158105    87App    3.158172   126Ap     3.547092  
      88App    3.547106   127Ap     3.637295    89App    3.670569  
     128Ap     3.670635   129Ap     3.730656   130Ap     3.807775  
      90App    3.807925    91App    4.011886   131Ap     4.117656  
      92App    4.117905   132Ap     4.155497   133Ap     4.242536  
     134Ap     4.249666    93App    4.249857    94App    4.257926  
     135Ap     4.258020   136Ap     4.267164   137Ap     4.271592  
      95App    4.273374   138Ap     4.273755    96App    4.273895  
     139Ap     4.285180    97App    4.285627   140Ap     4.307771  
      98App    4.308021    99App    4.312472   100App    4.323520  
     141Ap     4.323586   142Ap     4.324627   101App    4.332836  
     143Ap     4.332977   102App    4.338863   144Ap     4.339431  
     103App    4.444691   145Ap     4.444815   146Ap     4.452667  
     104App    4.464843   147Ap     4.470800   105App    4.470822  
     148Ap     4.542467   106App    4.542709   149Ap     4.705994  
     150Ap     4.819670   107App    4.819701   151Ap     4.883009  
     108App    5.074815   109App    5.074902   152Ap     5.074944  
     153Ap     5.075107   154Ap     5.075256   110App    5.075266  
     111App    5.075950   155Ap     5.076062   112App    5.076205  
     156Ap     5.076232   157Ap     5.076298   113App    5.076337  
     114App    5.077054   115App    5.077583   158Ap     5.077641  
     159Ap     5.077977   116App    5.078095   160Ap     5.078167  
     117App    5.078590   118App    5.078623   161Ap     5.078663  
     162Ap     5.079996   119App    5.079997   163Ap     5.080667  
     164Ap     5.084627   120App    5.084661   165Ap     5.084704  
     121App    5.093966   166Ap     5.094131   122App    5.094165  
     167Ap     5.095622   123App    5.095953   168Ap     5.095977  
     169Ap     5.101247   170Ap     5.120164   124App    5.120283  
     171Ap     5.246530   125App    5.395719   172Ap     5.396702  
     126App    5.396824   173Ap     5.511983   127App    5.512273  
     174Ap     5.986863   175Ap     6.173755   128App    6.174430  
     176Ap    31.153169   177Ap    32.600386   178Ap    32.944596  
     129App   32.944917   179Ap    33.059438   180Ap   110.255576  
     181Ap   110.364190   130App  110.364293   182Ap   110.407073  

    Final Occupation by Irrep:
             Ap   App 
    DOCC [    26,   16 ]

  @DF-RKS Final Energy:  -642.84733835438294

   => Energetics <=

    Nuclear Repulsion Energy =            527.7252358253977036
    One-Electron Energy =               -2144.0653126957404311
    Two-Electron Energy =                1009.8061980252512058
    DFT Exchange-Correlation Energy =     -36.3129600992914021
    Empirical Dispersion Energy =          -0.0004994100000000
    VV10 Nonlocal Energy =                  0.0000000000000000
    Total Energy =                       -642.8473383543829414

Computation Completed


Properties will be evaluated at   0.000000,   0.000000,   0.000000 [a0]

Properties computed using the SCF density matrix

  Nuclear Dipole Moment: [e a0]
     X:    -8.9655      Y:    50.9365      Z:    -0.0000

  Electronic Dipole Moment: [e a0]
     X:     8.6468      Y:   -49.1163      Z:     0.0000

  Dipole Moment: [e a0]
     X:    -0.3187      Y:     1.8203      Z:    -0.0000     Total:     1.8480

  Dipole Moment: [D]
     X:    -0.8101      Y:     4.6267      Z:    -0.0000     Total:     4.6970


*** tstop() called on compute130.bc4.acrc.priv at Tue Nov  2 11:07:58 2021
Module time:
	user time   =     244.33 seconds =       4.07 minutes
	system time =      11.24 seconds =       0.19 minutes
	total time  =         21 seconds =       0.35 minutes
Total time:
	user time   =     244.33 seconds =       4.07 minutes
	system time =      11.24 seconds =       0.19 minutes
	total time  =         21 seconds =       0.35 minutes

    Psi4 stopped on: Tuesday, 02 November 2021 11:07AM
    Psi4 wall time for execution: 0:00:21.57

*** Psi4 exiting successfully. Buy a developer a beer!
