
    -----------------------------------------------------------------------
          Psi4: An Open-Source Ab Initio Electronic Structure Package
                               Psi4 1.4.1 release

                         Git: Rev {HEAD} cd00f19 


    D. G. A. Smith, L. A. Burns, A. C. Simmonett, R. M. Parrish,
    M. C. Schieber, R. Galvelis, P. Kraus, H. Kruse, R. Di Remigio,
    A. Alenaizan, A. M. James, S. Lehtola, J. P. Misiewicz, M. Scheurer,
    R. A. Shaw, J. B. Schriber, Y. Xie, Z. L. Glick, D. A. Sirianni,
    J. S. O'Brien, J. M. Waldrop, A. Kumar, E. G. Hohenstein,
    B. P. Pritchard, B. R. Brooks, H. F. Schaefer III, A. Yu. Sokolov,
    K. Patkowski, A. E. DePrince III, U. Bozkaya, R. A. King,
    F. A. Evangelista, J. M. Turney, T. D. Crawford, C. D. Sherrill,
    J. Chem. Phys. 152(18) 184108 (2020). https://doi.org/10.1063/5.0006002

                            Additional Code Authors
    E. T. Seidl, C. L. Janssen, E. F. Valeev, M. L. Leininger,
    J. F. Gonthier, R. M. Richard, H. R. McAlexander, M. Saitow, X. Wang,
    P. Verma, and M. H. Lechner

             Previous Authors, Complete List of Code Contributors,
                       and Citations for Specific Modules
    https://github.com/psi4/psi4/blob/master/codemeta.json
    https://github.com/psi4/psi4/graphs/contributors
    http://psicode.org/psi4manual/master/introduction.html#citing-psifour

    -----------------------------------------------------------------------


    Psi4 started on: Friday, 05 November 2021 04:15AM

    Process ID: 24915
    Host:       compute087.bc4.acrc.priv
    PSIDATADIR: /mnt/storage/home/zw18965/.conda/envs/p4env/share/psi4
    Memory:     500.0 MiB
    Threads:    28
    
  ==> Input File <==

--------------------------------------------------------------------------
memory 120 GB

molecule {
2 1
Au       0.000000    1.548281   -0.453246 
Au       1.340851   -0.774141   -0.453246 
Au      -1.340851   -0.774141   -0.453246 
Au       0.000000    0.000000    1.783664 
N        0.000000    0.000000   -3.226055 
H       -0.813891    0.469900   -3.635956 
H        0.813891    0.469900   -3.635956 
H       -0.000000   -0.939800   -3.635956 
 }

set basis Def2-TZVPPD

energy("MN15-D3BJ")
--------------------------------------------------------------------------

  Memory set to 111.759 GiB by Python driver.

Scratch directory: /tmp/

*** tstart() called on compute087.bc4.acrc.priv
*** at Fri Nov  5 04:15:13 2021

   => Loading Basis Set <=

    Name: DEF2-TZVPPD
    Role: ORBITAL
    Keyword: BASIS
    atoms 1-4 entry AU         line  2995 (ECP: line  4084) file /mnt/storage/home/zw18965/.conda/envs/p4env/share/psi4/basis/def2-tzvppd.gbs 
    atoms 5   entry N          line   181 file /mnt/storage/home/zw18965/.conda/envs/p4env/share/psi4/basis/def2-tzvppd.gbs 
    atoms 6-8 entry H          line    14 file /mnt/storage/home/zw18965/.conda/envs/p4env/share/psi4/basis/def2-tzvppd.gbs 

    !!!  WARNING: ECP capability is in beta. Please check occupations closely.  !!!

   => MN15-D3(BJ): Empirical Dispersion <=

    Grimme's -D3 (BJ-damping) Dispersion Correction
    Grimme S.; Ehrlich S.; Goerigk L. (2011), J. Comput. Chem., 32: 1456
    Parametrisation from:    L. Goerigk, A. Hansen, C. Bauer, S. Ehrlich, A. Najibi, S. Grimme, Phys. Chem. Chem. Phys. 19, 32184-32215, 2017

        s6 =       1.000000
        s8 =       2.097100
        a1 =       0.786200
        a2 =       7.592300


         ---------------------------------------------------------
                                   SCF
               by Justin Turney, Rob Parrish, Andy Simmonett
                          and Daniel G. A. Smith
                              RKS Reference
                       28 Threads, 114440 MiB Core
         ---------------------------------------------------------

  ==> Geometry <==

    Molecular point group: cs
    Full point group: Cs

    Geometry (in Angstrom), charge = 2, multiplicity = 1:

       Center              X                  Y                   Z               Mass       
    ------------   -----------------  -----------------  -----------------  -----------------
         AU          -1.548281244712     0.487202496432     0.000000000000   196.966568790000
         AU           0.774140755288     0.487202496432     1.340851000000   196.966568790000
         AU           0.774140755288     0.487202496432    -1.340851000000   196.966568790000
         AU          -0.000000244712    -1.749707503568     0.000000000000   196.966568790000
         N           -0.000000244712     3.260011496432     0.000000000000    14.003074004430
         H           -0.469900244712     3.669912496432    -0.813891000000     1.007825032230
         H           -0.469900244712     3.669912496432     0.813891000000     1.007825032230
         H            0.939799755288     3.669912496432     0.000000000000     1.007825032230

  Running in cs symmetry.

  Rotational constants: A =      0.01188  B =      0.01026  C =      0.01026 [cm^-1]
  Rotational constants: A =    356.11124  B =    307.70961  C =    307.70960 [MHz]
  Nuclear repulsion =  547.114038071774644

  Charge       = 2
  Multiplicity = 1
  Electrons    = 84
  Nalpha       = 42
  Nbeta        = 42

  ==> Algorithm <==

  SCF Algorithm Type is DF.
  DIIS enabled.
  MOM disabled.
  Fractional occupation disabled.
  Guess Type is SAD.
  Energy threshold   = 1.00e-06
  Density threshold  = 1.00e-06
  Integral threshold = 1.00e-12

  ==> Primary Basis <==

  Basis Set: DEF2-TZVPPD
    Blend: DEF2-TZVPPD
    Number of shells: 102
    Number of basis functions: 324
    Number of Cartesian functions: 393
    Spherical Harmonics?: true
    Max angular momentum: 4

  Core potential: DEF2-TZVPPD
    Number of shells: 16
    Number of ECP primitives: 56
    Number of ECP core electrons: 240
    Max angular momentum: 3

  ==> DFT Potential <==

   => Composite Functional: MN15-D3BJ <= 

   MN15 Hybrid Meta-GGA Exchange-Correlation Functional

    H. S. Yu, X. He, S. L. Li, and D. G. Truhlar, Chem. Sci. 7, 5032-5051, 2016


    Deriv               =              1
    GGA                 =           TRUE
    Meta                =           TRUE

    Exchange Hybrid     =           TRUE
    MP2 Hybrid          =          FALSE

   => Exchange Functionals <=

    1.0000   XC_HYB_MGGA_X_MN15

   => Exact (HF) Exchange <=

    0.4400               HF 

   => Correlation Functionals <=

    1.0000   XC_MGGA_C_MN15

   => LibXC Density Thresholds  <==

    XC_MGGA_C_MN15:  1.00E-15 
    XC_HYB_MGGA_X_MN15:  1.00E-15 

   => Molecular Quadrature <=

    Radial Scheme          =       TREUTLER
    Pruning Scheme         =           NONE
    Nuclear Scheme         =       TREUTLER

    BS radius alpha        =              1
    Pruning alpha          =              1
    Radial Points          =             75
    Spherical Points       =            302
    Total Points           =         171371
    Total Blocks           =           1392
    Max Points             =            256
    Max Functions          =            314
    Weights Tolerance      =       1.00E-15

   => Loading Basis Set <=

    Name: (DEF2-TZVPPD AUX)
    Role: JKFIT
    Keyword: DF_BASIS_SCF
    atoms 1-4 entry AU         line  8426 file /mnt/storage/home/zw18965/.conda/envs/p4env/share/psi4/basis/def2-universal-jkfit.gbs 
    atoms 5   entry N          line   258 file /mnt/storage/home/zw18965/.conda/envs/p4env/share/psi4/basis/def2-universal-jkfit.gbs 
    atoms 6-8 entry H          line    18 file /mnt/storage/home/zw18965/.conda/envs/p4env/share/psi4/basis/def2-universal-jkfit.gbs 

  ==> Integral Setup <==

  DFHelper Memory: AOs need 0.890 GiB; user supplied 81.213 GiB. Using in-core AOs.

  ==> MemDFJK: Density-Fitted J/K Matrices <==

    J tasked:                   Yes
    K tasked:                   Yes
    wK tasked:                   No
    OpenMP threads:              28
    Memory [MiB]:             83162
    Algorithm:                 Core
    Schwarz Cutoff:           1E-12
    Mask sparsity (%):       5.3974
    Fitting Condition:        1E-10

   => Auxiliary Basis Set <=

  Basis Set: (DEF2-TZVPPD AUX)
    Blend: DEF2-UNIVERSAL-JKFIT
    Number of shells: 247
    Number of basis functions: 1119
    Number of Cartesian functions: 1613
    Spherical Harmonics?: true
    Max angular momentum: 6

  Cached 100.0% of DFT collocation blocks in 2.606 [GiB].

  Minimum eigenvalue in the overlap matrix is 2.0604335840E-04.
  Reciprocal condition number of the overlap matrix is 2.4647332526E-05.
    Using symmetric orthogonalization.

  ==> Pre-Iterations <==

  SCF Guess: Superposition of Atomic Densities via on-the-fly atomic UHF (no occupation information).

   -------------------------
    Irrep   Nso     Nmo    
   -------------------------
     A'       189     189 
     A"       135     135 
   -------------------------
    Total     324     324
   -------------------------

  ==> Iterations <==

                           Total Energy        Delta E     RMS |[F,P]|

   @DF-RKS iter SAD:  -597.59379595577332   -5.97594e+02   0.00000e+00 
   @DF-RKS iter   1:  -597.67568212578556   -8.18862e-02   3.81330e-03 DIIS
   @DF-RKS iter   2:  -596.52267097031609    1.15301e+00   6.76602e-03 DIIS
   @DF-RKS iter   3:  -597.86786214940571   -1.34519e+00   1.91764e-03 DIIS
   @DF-RKS iter   4:  -597.96193222879208   -9.40701e-02   6.16156e-04 DIIS
   @DF-RKS iter   5:  -597.96990234299381   -7.97011e-03   2.26694e-04 DIIS
   @DF-RKS iter   6:  -597.97052462330271   -6.22280e-04   1.10859e-04 DIIS
   @DF-RKS iter   7:  -597.97076461129905   -2.39988e-04   3.24395e-05 DIIS
   @DF-RKS iter   8:  -597.97078800737916   -2.33961e-05   7.84689e-06 DIIS
   @DF-RKS iter   9:  -597.97078937628339   -1.36890e-06   3.23964e-06 DIIS
   @DF-RKS iter  10:  -597.97078969952383   -3.23240e-07   1.17633e-06 DIIS
   @DF-RKS iter  11:  -597.97078975275690   -5.32331e-08   2.23613e-07 DIIS
  Energy and wave function converged.


  ==> Post-Iterations <==

   Electrons on quadrature grid:
      Ntotal   =   84.0000226909 ; deviation = 2.269e-05 

    Orbital Energies [Eh]
    ---------------------

    Doubly Occupied:                                                      

       1Ap   -14.401943     2Ap    -4.479506     3Ap    -4.479158  
       1App   -4.479151     4Ap    -4.473125     5Ap    -2.691745  
       6Ap    -2.685885     2App   -2.685885     7Ap    -2.682849  
       3App   -2.681926     8Ap    -2.681915     4App   -2.679872  
       9Ap    -2.679301     5App   -2.679298    10Ap    -2.677106  
       6App   -2.674132    11Ap    -2.674131    12Ap    -1.205508  
      13Ap    -0.821254     7App   -0.808687    14Ap    -0.808685  
      15Ap    -0.776218     8App   -0.771747    16Ap    -0.771731  
       9App   -0.753464    17Ap    -0.753459    18Ap    -0.736766  
      10App   -0.730057    19Ap    -0.730053    20Ap    -0.718240  
      11App   -0.695811    21Ap    -0.695805    12App   -0.693826  
      22Ap    -0.692974    13App   -0.692962    23Ap    -0.692627  
      14App   -0.690348    24Ap    -0.690342    15App   -0.660471  
      16App   -0.659973    25Ap    -0.659970    26Ap    -0.627777  

    Virtual:                                                              

      17App   -0.449279    27Ap    -0.449276    28Ap    -0.438109  
      29Ap    -0.292593    18App   -0.290930    30Ap    -0.290928  
      31Ap    -0.270690    19App   -0.268981    32Ap    -0.268976  
      33Ap    -0.178234    20App   -0.138741    34Ap    -0.138737  
      21App   -0.133992    35Ap    -0.133986    22App   -0.128352  
      36Ap    -0.116621    23App   -0.109295    37Ap    -0.109294  
      38Ap    -0.070199    39Ap    -0.053404    24App   -0.052082  
      40Ap    -0.052080    41Ap    -0.047015    25App   -0.044675  
      42Ap    -0.044671    43Ap    -0.022726    26App   -0.022725  
      44Ap    -0.014293    27App   -0.008090    45Ap    -0.008087  
      28App    0.029606    46Ap     0.029621    47Ap     0.032210  
      48Ap     0.042869    29App    0.042869    30App    0.043683  
      49Ap     0.048456    50Ap     0.084606    31App    0.084610  
      51Ap     0.089105    32App    0.093540    52Ap     0.098245  
      33App    0.098246    34App    0.109096    53Ap     0.109096  
      54Ap     0.133940    55Ap     0.148883    35App    0.148884  
      56Ap     0.161013    36App    0.188668    37App    0.205738  
      57Ap     0.205752    38App    0.225473    58Ap     0.225481  
      59Ap     0.233259    39App    0.233259    60Ap     0.244000  
      40App    0.244085    61Ap     0.244105    62Ap     0.250795  
      63Ap     0.281991    64Ap     0.287247    41App    0.287250  
      42App    0.292884    65Ap     0.292912    43App    0.313874  
      66Ap     0.313883    44App    0.314658    67Ap     0.333819  
      68Ap     0.358844    45App    0.476870    69Ap     0.476875  
      70Ap     0.486892    71Ap     0.531300    72Ap     0.543599  
      46App    0.543603    73Ap     0.580447    47App    0.605489  
      74Ap     0.605499    48App    0.618670    75Ap     0.618690  
      76Ap     0.641399    77Ap     0.691547    78Ap     0.693009  
      49App    0.693052    50App    0.726671    79Ap     0.726687  
      51App    0.736885    80Ap     0.796379    81Ap     0.828248  
      52App    0.828262    53App    0.842234    82Ap     0.845578  
      54App    0.845612    83Ap     0.846743    84Ap     0.856676  
      55App    0.865142    56App    0.880130    85Ap     0.881871  
      57App    0.881873    58App    0.899813    86Ap     0.899832  
      59App    0.940604    87Ap     0.940633    88Ap     0.942718  
      60App    0.960330    89Ap     0.960345    61App    0.981027  
      90Ap     0.994163    62App    0.999092    91Ap     0.999098  
      63App    1.011157    92Ap     1.011164    64App    1.038369  
      93Ap     1.038400    94Ap     1.053331    65App    1.085634  
      95Ap     1.085657    96Ap     1.117261    66App    1.125591  
      97Ap     1.128957    67App    1.128968    98Ap     1.174459  
      68App    1.174469    69App    1.185010    99Ap     1.185066  
      70App    1.198823   100Ap     1.198847   101Ap     1.236631  
      71App    1.242096   102Ap     1.242110   103Ap     1.253126  
      72App    1.255882    73App    1.292335   104Ap     1.292350  
     105Ap     1.298503   106Ap     1.312296    74App    1.312355  
     107Ap     1.363748    75App    1.386333   108Ap     1.386429  
     109Ap     1.399180    76App    1.415809   110Ap     1.415883  
     111Ap     1.525331   112Ap     1.579955    77App    1.579963  
      78App    1.637007   113Ap     1.637028    79App    1.638139  
     114Ap     1.835167   115Ap     2.195564   116Ap     2.286639  
      80App    2.286647   117Ap     2.299693   118Ap     2.329907  
      81App    2.386682   119Ap     2.386713   120Ap     2.490102  
      82App    2.643718   121Ap     2.643751   122Ap     2.766210  
      83App    2.902604   123Ap     2.966567    84App    2.966581  
      85App    3.004336   124Ap     3.004342   125Ap     3.015681  
     126Ap     3.037958    86App    3.046664   127Ap     3.046672  
      87App    3.130341    88App    3.142938   128Ap     3.142960  
      89App    3.143862    90App    3.176025   129Ap     3.176030  
      91App    3.184603   130Ap     3.184609   131Ap     3.185045  
      92App    3.229175   132Ap     3.229245    93App    3.236596  
     133Ap     3.275026    94App    3.339945   134Ap     3.339974  
     135Ap     3.341522    95App    3.343654    96App    3.351398  
     136Ap     3.351407    97App    3.368941   137Ap     3.368972  
     138Ap     3.426986    98App    3.439497   139Ap     3.439522  
      99App    3.526827   100App    3.533931   140Ap     3.533949  
     141Ap     3.537578   101App    3.579357   142Ap     3.579361  
     102App    3.650006   143Ap     3.650013   144Ap     3.650646  
     103App    3.652259   145Ap     3.652285   146Ap     3.657280  
     147Ap     3.657708   104App    3.657714   105App    3.660756  
     148Ap     3.660760   106App    3.660926   107App    3.662143  
     149Ap     3.662161   150Ap     3.663803   151Ap     3.665237  
     152Ap     3.668742   108App    3.668759   109App    3.670007  
     110App    3.674105   153Ap     3.674720   111App    3.674754  
     154Ap     3.677232   112App    3.691236   155Ap     3.691246  
     156Ap     3.694888   113App    3.695404   157Ap     3.695442  
     114App    3.696316   158Ap     3.699309   115App    3.699319  
     116App    3.702330   159Ap     3.702354   160Ap     3.752913  
     161Ap     3.770230   117App    3.783665   162Ap     3.783704  
     163Ap     3.826349   118App    3.826363   119App    3.883211  
     164Ap     3.883226   120App    3.896940   121App    4.028719  
     122App    4.130322   165Ap     4.130364   166Ap     4.203248  
     167Ap     4.339169   123App    4.508146   168Ap     4.508149  
     124App    4.821975   169Ap     4.821999   170Ap     4.866327  
     171Ap     5.093552   125App    5.381044   126App    5.419812  
     172Ap     5.419852   173Ap     5.516846   127App    5.516903  
     174Ap     5.963059   175Ap     6.169319   128App    6.169320  
     176Ap    27.056547   129App   27.056549   177Ap    27.245245  
     130App   27.245247   178Ap    27.860732   131App   28.182019  
     179Ap    28.727406   132App   28.727439   180Ap    29.033605  
     181Ap    29.282470   133App   29.373023   182Ap    29.373066  
     183Ap    31.159547   184Ap    43.335643   185Ap    43.816679  
     186Ap    43.863783   134App   43.863790   187Ap   204.662285  
     188Ap   204.879224   189Ap   204.896266   135App  204.896272  

    Final Occupation by Irrep:
             Ap   App 
    DOCC [    26,   16 ]

  @DF-RKS Final Energy:  -597.97078975275690

   => Energetics <=

    Nuclear Repulsion Energy =            547.1140380717746439
    One-Electron Energy =               -2091.7997285995793391
    Two-Electron Energy =                 980.4958630361535370
    DFT Exchange-Correlation Energy =     -33.7804230611059708
    Empirical Dispersion Energy =          -0.0005392000000000
    VV10 Nonlocal Energy =                  0.0000000000000000
    Total Energy =                       -597.9707897527570140

Computation Completed


Properties will be evaluated at   0.000000,   0.000000,   0.000000 [a0]

Properties computed using the SCF density matrix

  Nuclear Dipole Moment: [e a0]
     X:    -0.0000      Y:    53.5849      Z:     0.0000

  Electronic Dipole Moment: [e a0]
     X:     0.0000      Y:   -51.6767      Z:     0.0000

  Dipole Moment: [e a0]
     X:     0.0000      Y:     1.9082      Z:     0.0000     Total:     1.9082

  Dipole Moment: [D]
     X:     0.0001      Y:     4.8501      Z:     0.0000     Total:     4.8501


*** tstop() called on compute087.bc4.acrc.priv at Fri Nov  5 04:15:36 2021
Module time:
	user time   =     290.83 seconds =       4.85 minutes
	system time =      13.03 seconds =       0.22 minutes
	total time  =         23 seconds =       0.38 minutes
Total time:
	user time   =     290.83 seconds =       4.85 minutes
	system time =      13.03 seconds =       0.22 minutes
	total time  =         23 seconds =       0.38 minutes

    Psi4 stopped on: Friday, 05 November 2021 04:15AM
    Psi4 wall time for execution: 0:00:23.58

*** Psi4 exiting successfully. Buy a developer a beer!
