
    -----------------------------------------------------------------------
          Psi4: An Open-Source Ab Initio Electronic Structure Package
                               Psi4 1.4.1 release

                         Git: Rev {HEAD} cd00f19 


    D. G. A. Smith, L. A. Burns, A. C. Simmonett, R. M. Parrish,
    M. C. Schieber, R. Galvelis, P. Kraus, H. Kruse, R. Di Remigio,
    A. Alenaizan, A. M. James, S. Lehtola, J. P. Misiewicz, M. Scheurer,
    R. A. Shaw, J. B. Schriber, Y. Xie, Z. L. Glick, D. A. Sirianni,
    J. S. O'Brien, J. M. Waldrop, A. Kumar, E. G. Hohenstein,
    B. P. Pritchard, B. R. Brooks, H. F. Schaefer III, A. Yu. Sokolov,
    K. Patkowski, A. E. DePrince III, U. Bozkaya, R. A. King,
    F. A. Evangelista, J. M. Turney, T. D. Crawford, C. D. Sherrill,
    J. Chem. Phys. 152(18) 184108 (2020). https://doi.org/10.1063/5.0006002

                            Additional Code Authors
    E. T. Seidl, C. L. Janssen, E. F. Valeev, M. L. Leininger,
    J. F. Gonthier, R. M. Richard, H. R. McAlexander, M. Saitow, X. Wang,
    P. Verma, and M. H. Lechner

             Previous Authors, Complete List of Code Contributors,
                       and Citations for Specific Modules
    https://github.com/psi4/psi4/blob/master/codemeta.json
    https://github.com/psi4/psi4/graphs/contributors
    http://psicode.org/psi4manual/master/introduction.html#citing-psifour

    -----------------------------------------------------------------------


    Psi4 started on: Friday, 05 November 2021 04:16AM

    Process ID: 25191
    Host:       compute087.bc4.acrc.priv
    PSIDATADIR: /mnt/storage/home/zw18965/.conda/envs/p4env/share/psi4
    Memory:     500.0 MiB
    Threads:    28
    
  ==> Input File <==

--------------------------------------------------------------------------
memory 120 GB

molecule {
2 1
Au      -0.000000   -0.000044    1.659420 
Au      -1.354966    0.782292   -0.553161 
Au       1.354966    0.782292   -0.553161 
Au       0.000000   -1.564540   -0.553099 
 }

set basis Def2-TZVPPD

energy("MN15-D3BJ")
--------------------------------------------------------------------------

  Memory set to 111.759 GiB by Python driver.

Scratch directory: /tmp/

*** tstart() called on compute087.bc4.acrc.priv
*** at Fri Nov  5 04:16:55 2021

   => Loading Basis Set <=

    Name: DEF2-TZVPPD
    Role: ORBITAL
    Keyword: BASIS
    atoms 1-4 entry AU         line  2995 (ECP: line  4084) file /mnt/storage/home/zw18965/.conda/envs/p4env/share/psi4/basis/def2-tzvppd.gbs 

    !!!  WARNING: ECP capability is in beta. Please check occupations closely.  !!!

   => MN15-D3(BJ): Empirical Dispersion <=

    Grimme's -D3 (BJ-damping) Dispersion Correction
    Grimme S.; Ehrlich S.; Goerigk L. (2011), J. Comput. Chem., 32: 1456
    Parametrisation from:    L. Goerigk, A. Hansen, C. Bauer, S. Ehrlich, A. Najibi, S. Grimme, Phys. Chem. Chem. Phys. 19, 32184-32215, 2017

        s6 =       1.000000
        s8 =       2.097100
        a1 =       0.786200
        a2 =       7.592300


         ---------------------------------------------------------
                                   SCF
               by Justin Turney, Rob Parrish, Andy Simmonett
                          and Daniel G. A. Smith
                              RKS Reference
                       28 Threads, 114440 MiB Core
         ---------------------------------------------------------

  ==> Geometry <==

    Molecular point group: cs
    Full point group: Cs

    Geometry (in Angstrom), charge = 2, multiplicity = 1:

       Center              X                  Y                   Z               Mass       
    ------------   -----------------  -----------------  -----------------  -----------------
         AU           0.000044000000    -1.659420250000     0.000000000000   196.966568790000
         AU          -0.782292000000     0.553160750000    -1.354966000000   196.966568790000
         AU          -0.782292000000     0.553160750000     1.354966000000   196.966568790000
         AU           1.564540000000     0.553098750000     0.000000000000   196.966568790000

  Running in cs symmetry.

  Rotational constants: A =      0.01165  B =      0.01165  C =      0.01165 [cm^-1]
  Rotational constants: A =    349.40803  B =    349.40777  C =    349.38766 [MHz]
  Nuclear repulsion =  422.969852207387817

  Charge       = 2
  Multiplicity = 1
  Electrons    = 74
  Nalpha       = 37
  Nbeta        = 37

  ==> Algorithm <==

  SCF Algorithm Type is DF.
  DIIS enabled.
  MOM disabled.
  Fractional occupation disabled.
  Guess Type is SAD.
  Energy threshold   = 1.00e-06
  Density threshold  = 1.00e-06
  Integral threshold = 1.00e-12

  ==> Primary Basis <==

  Basis Set: DEF2-TZVPPD
    Blend: DEF2-TZVPPD
    Number of shells: 68
    Number of basis functions: 236
    Number of Cartesian functions: 296
    Spherical Harmonics?: true
    Max angular momentum: 4

  Core potential: DEF2-TZVPPD
    Number of shells: 16
    Number of ECP primitives: 56
    Number of ECP core electrons: 240
    Max angular momentum: 3

  ==> DFT Potential <==

   => Composite Functional: MN15-D3BJ <= 

   MN15 Hybrid Meta-GGA Exchange-Correlation Functional

    H. S. Yu, X. He, S. L. Li, and D. G. Truhlar, Chem. Sci. 7, 5032-5051, 2016


    Deriv               =              1
    GGA                 =           TRUE
    Meta                =           TRUE

    Exchange Hybrid     =           TRUE
    MP2 Hybrid          =          FALSE

   => Exchange Functionals <=

    1.0000   XC_HYB_MGGA_X_MN15

   => Exact (HF) Exchange <=

    0.4400               HF 

   => Correlation Functionals <=

    1.0000   XC_MGGA_C_MN15

   => LibXC Density Thresholds  <==

    XC_MGGA_C_MN15:  1.00E-15 
    XC_HYB_MGGA_X_MN15:  1.00E-15 

   => Molecular Quadrature <=

    Radial Scheme          =       TREUTLER
    Pruning Scheme         =           NONE
    Nuclear Scheme         =       TREUTLER

    BS radius alpha        =              1
    Pruning alpha          =              1
    Radial Points          =             75
    Spherical Points       =            302
    Total Points           =          85273
    Total Blocks           =            764
    Max Points             =            256
    Max Functions          =            232
    Weights Tolerance      =       1.00E-15

   => Loading Basis Set <=

    Name: (DEF2-TZVPPD AUX)
    Role: JKFIT
    Keyword: DF_BASIS_SCF
    atoms 1-4 entry AU         line  8426 file /mnt/storage/home/zw18965/.conda/envs/p4env/share/psi4/basis/def2-universal-jkfit.gbs 

  ==> Integral Setup <==

  DFHelper Memory: AOs need 0.442 GiB; user supplied 82.751 GiB. Using in-core AOs.

  ==> MemDFJK: Density-Fitted J/K Matrices <==

    J tasked:                   Yes
    K tasked:                   Yes
    wK tasked:                   No
    OpenMP threads:              28
    Memory [MiB]:             84736
    Algorithm:                 Core
    Schwarz Cutoff:           1E-12
    Mask sparsity (%):       0.8115
    Fitting Condition:        1E-10

   => Auxiliary Basis Set <=

  Basis Set: (DEF2-TZVPPD AUX)
    Blend: DEF2-UNIVERSAL-JKFIT
    Number of shells: 204
    Number of basis functions: 988
    Number of Cartesian functions: 1460
    Spherical Harmonics?: true
    Max angular momentum: 6

  Cached 100.0% of DFT collocation blocks in 1.068 [GiB].

  Minimum eigenvalue in the overlap matrix is 9.1564856395E-04.
  Reciprocal condition number of the overlap matrix is 1.4069946070E-04.
    Using symmetric orthogonalization.

  ==> Pre-Iterations <==

  SCF Guess: Superposition of Atomic Densities via on-the-fly atomic UHF (no occupation information).

   -------------------------
    Irrep   Nso     Nmo    
   -------------------------
     A'       135     135 
     A"       101     101 
   -------------------------
    Total     236     236
   -------------------------

  ==> Iterations <==

                           Total Energy        Delta E     RMS |[F,P]|

   @DF-RKS iter SAD:  -541.38933130253645   -5.41389e+02   0.00000e+00 
   @DF-RKS iter   1:  -541.33609503805371    5.32363e-02   2.94718e-03 DIIS
   @DF-RKS iter   2:  -541.27539922656536    6.06958e-02   4.13976e-03 DIIS
   @DF-RKS iter   3:  -541.41172891528515   -1.36330e-01   2.07950e-04 DIIS
   @DF-RKS iter   4:  -541.41216884698451   -4.39932e-04   1.16923e-04 DIIS
   @DF-RKS iter   5:  -541.41231685740115   -1.48010e-04   1.38509e-05 DIIS
   @DF-RKS iter   6:  -541.41232309892655   -6.24153e-06   1.19527e-05 DIIS
   @DF-RKS iter   7:  -541.41232476778418   -1.66886e-06   3.98004e-06 DIIS
   @DF-RKS iter   8:  -541.41232507458039   -3.06796e-07   7.99578e-07 DIIS
  Energy and wave function converged.


  ==> Post-Iterations <==

   Electrons on quadrature grid:
      Ntotal   =   74.0000181739 ; deviation = 1.817e-05 

    Orbital Energies [Eh]
    ---------------------

    Doubly Occupied:                                                      

       1Ap    -4.505645     1App   -4.505274     2Ap    -4.505270  
       3Ap    -4.505265     4Ap    -2.718337     2App   -2.712020  
       5Ap    -2.712017     6Ap    -2.712015     7Ap    -2.708531  
       3App   -2.708530     8Ap    -2.706143     4App   -2.706139  
       9Ap    -2.706139     5App   -2.705251     6App   -2.705249  
      10Ap    -2.705249    11Ap    -0.846474    12Ap    -0.798904  
       7App   -0.798900    13Ap    -0.798891    14Ap    -0.780346  
       8App   -0.780339    15Ap    -0.758659     9App   -0.758658  
      16Ap    -0.758656    17Ap    -0.731479    18Ap    -0.722187  
      10App   -0.722184    19Ap    -0.722177    11App   -0.720413  
      20Ap    -0.720408    12App   -0.720406    21Ap    -0.718514  
      13App   -0.718504    14App   -0.687734    22Ap    -0.687726  
      15App   -0.687724  

    Virtual:                                                              

      23Ap    -0.471573    16App   -0.471571    24Ap    -0.471561  
      17App   -0.308915    25Ap    -0.308912    26Ap    -0.308908  
      27Ap    -0.308493    28Ap    -0.286975    18App   -0.286973  
      19App   -0.143534    20App   -0.143532    29Ap    -0.143526  
      30Ap    -0.143383    21App   -0.143381    31Ap    -0.143375  
      32Ap    -0.085122    33Ap    -0.066968    22App   -0.054981  
      34Ap    -0.054981    35Ap    -0.054978    23App   -0.050330  
      36Ap    -0.050329    37Ap    -0.010537    24App   -0.010530  
      38Ap    -0.010529    25App    0.019142    39Ap     0.019144  
      40Ap     0.019149    26App    0.029209    27App    0.029212  
      41Ap     0.029216    42Ap     0.063972    28App    0.063975  
      43Ap     0.063982    44Ap     0.111810    29App    0.111816  
      30App    0.125305    45Ap     0.125309    31App    0.125315  
      32App    0.202913    46Ap     0.202914    47Ap     0.202919  
      48Ap     0.210265    49Ap     0.218181    33App    0.218185  
      50Ap     0.269782    34App    0.269788    51Ap     0.269797  
      35App    0.282229    36App    0.282234    52Ap     0.282241  
      53Ap     0.475504    37App    0.550343    54Ap     0.550361  
      55Ap     0.550372    56Ap     0.558061    38App    0.558068  
      57Ap     0.644954    58Ap     0.658364    39App    0.658382  
      59Ap     0.658409    40App    0.705200    60Ap     0.705220  
      41App    0.705233    42App    0.780282    61Ap     0.780298  
      62Ap     0.780305    63Ap     0.813962    43App    0.813984  
      44App    0.832028    64Ap     0.840614    45App    0.840620  
      65Ap     0.840630    46App    0.849630    47App    0.849638  
      66Ap     0.849643    67Ap     0.931350    48App    0.931361  
      68Ap     0.931382    49App    0.946738    69Ap     0.946746  
      50App    0.946760    70Ap     1.008150    71Ap     1.019481  
      51App    1.019490    52App    1.035312    72Ap     1.035312  
      73Ap     1.035340    53App    1.098649    74Ap     1.098651  
      54App    1.098658    75Ap     1.140495    55App    1.140517  
      76Ap     1.140528    77Ap     1.159056    56App    1.159080  
      78Ap     1.203060    57App    1.203065    79Ap     1.203073  
      58App    1.216012    80Ap     1.216018    59App    1.216067  
      81Ap     1.266635    60App    1.266692    82Ap     1.269404  
      61App    1.380670    83Ap     1.380670    84Ap     1.380713  
      62App    1.586709    63App    1.586724    85Ap     1.586773  
      86Ap     1.726434    64App    2.284010    87Ap     2.284011  
      88Ap     2.284069    89Ap     2.984687    90Ap     3.003003  
      65App    3.003015    91Ap     3.003032    66App    3.101681  
      92Ap     3.101710    67App    3.101736    93Ap     3.135724  
      94Ap     3.152244    68App    3.152244    69App    3.162640  
      95Ap     3.162643    96Ap     3.162657    70App    3.206961  
      71App    3.310629    97Ap     3.310635    72App    3.310637  
      73App    3.314912    98Ap     3.314914    99Ap     3.314948  
     100Ap     3.319550    74App    3.319566   101Ap     3.398600  
      75App    3.398623   102Ap     3.398627    76App    3.501397  
     103Ap     3.501409    77App    3.501445   104Ap     3.622412  
      78App    3.622431   105Ap     3.629258    79App    3.629270  
     106Ap     3.629271   107Ap     3.630530    80App    3.632525  
     108Ap     3.632543    81App    3.632546   109Ap     3.632980  
     110Ap     3.632994    82App    3.632995   111Ap     3.640753  
      83App    3.640773   112Ap     3.641947   113Ap     3.641966  
      84App    3.641973   114Ap     3.643538    85App    3.643541  
      86App    3.643579   115Ap     3.644708    87App    3.645280  
      88App    3.664409   116Ap     3.664428    89App    3.664439  
     117Ap     3.664856    90App    3.664898   118Ap     3.668262  
      91App    3.668271   119Ap     3.668301   120Ap     3.740456  
      92App    3.740458   121Ap     3.740502    93App    3.837999  
      94App    3.838035   122Ap     3.838086   123Ap    26.799745  
      95App   26.799867   124Ap    26.894738    96App   26.894828  
     125Ap    26.894851    97App   28.025953    98App   28.026061  
     126Ap    28.026220   127Ap    28.142229    99App   28.916320  
     128Ap    28.916426   129Ap    28.916793   130Ap    43.190875  
     100App   43.785267   131Ap    43.785294   132Ap    43.785337  
     133Ap   204.583672   101App  204.847408   134Ap   204.847424  
     135Ap   204.847447  

    Final Occupation by Irrep:
             Ap   App 
    DOCC [    22,   15 ]

  @DF-RKS Final Energy:  -541.41232507458039

   => Energetics <=

    Nuclear Repulsion Energy =            422.9698522073878166
    One-Electron Energy =               -1768.7650135209792097
    Two-Electron Energy =                 833.5761071634035488
    DFT Exchange-Correlation Energy =     -29.1930007943924679
    Empirical Dispersion Energy =          -0.0002701300000000
    VV10 Nonlocal Energy =                  0.0000000000000000
    Total Energy =                       -541.4123250745803944

Computation Completed


Properties will be evaluated at   0.000000,   0.000000,   0.000000 [a0]

Properties computed using the SCF density matrix

  Nuclear Dipole Moment: [e a0]
     X:    -0.0000      Y:    -0.0000      Z:     0.0000

  Electronic Dipole Moment: [e a0]
     X:    -0.0000      Y:     0.0003      Z:     0.0000

  Dipole Moment: [e a0]
     X:    -0.0000      Y:     0.0003      Z:     0.0000     Total:     0.0003

  Dipole Moment: [D]
     X:    -0.0000      Y:     0.0007      Z:     0.0000     Total:     0.0007


*** tstop() called on compute087.bc4.acrc.priv at Fri Nov  5 04:17:14 2021
Module time:
	user time   =     159.57 seconds =       2.66 minutes
	system time =       5.33 seconds =       0.09 minutes
	total time  =         19 seconds =       0.32 minutes
Total time:
	user time   =     159.57 seconds =       2.66 minutes
	system time =       5.33 seconds =       0.09 minutes
	total time  =         19 seconds =       0.32 minutes

    Psi4 stopped on: Friday, 05 November 2021 04:17AM
    Psi4 wall time for execution: 0:00:18.81

*** Psi4 exiting successfully. Buy a developer a beer!
