
    -----------------------------------------------------------------------
          Psi4: An Open-Source Ab Initio Electronic Structure Package
                               Psi4 1.3.2 release

                         Git: Rev {HEAD} ecbda83 


    R. M. Parrish, L. A. Burns, D. G. A. Smith, A. C. Simmonett,
    A. E. DePrince III, E. G. Hohenstein, U. Bozkaya, A. Yu. Sokolov,
    R. Di Remigio, R. M. Richard, J. F. Gonthier, A. M. James,
    H. R. McAlexander, A. Kumar, M. Saitow, X. Wang, B. P. Pritchard,
    P. Verma, H. F. Schaefer III, K. Patkowski, R. A. King, E. F. Valeev,
    F. A. Evangelista, J. M. Turney, T. D. Crawford, and C. D. Sherrill,
    J. Chem. Theory Comput. 13(7) pp 3185--3197 (2017).
    (doi: 10.1021/acs.jctc.7b00174)


                         Additional Contributions by
    P. Kraus, H. Kruse, M. H. Lechner, M. C. Schieber, R. A. Shaw,
    A. Alenaizan, R. Galvelis, Z. L. Glick, S. Lehtola, and J. P. Misiewicz

    -----------------------------------------------------------------------


    Psi4 started on: Thursday, 28 October 2021 03:28PM

    Process ID: 81158
    Host:       bp1-compute00162.data.bp.acrc.priv
    PSIDATADIR: /work/zw18965/.conda/envs/p4env/share/psi4
    Memory:     500.0 MiB
    Threads:    24
    
  ==> Input File <==

--------------------------------------------------------------------------
memory 144 GB

molecule {
0 1
Cu       0.000000    0.000000    1.107490 
Cu       0.000000    0.000000   -1.107490 
 }

set basis Def2-TZVPPD

energy("MN15-D3BJ")
--------------------------------------------------------------------------

  Memory set to 134.110 GiB by Python driver.

*** tstart() called on bp1-compute00162.data.bp.acrc.priv
*** at Thu Oct 28 15:28:56 2021

   => Loading Basis Set <=

    Name: DEF2-TZVPPD
    Role: ORBITAL
    Keyword: BASIS
    atoms 1-2 entry CU         line  1290 file /work/zw18965/.conda/envs/p4env/share/psi4/basis/def2-tzvppd.gbs 


         ---------------------------------------------------------
                                   SCF
               by Justin Turney, Rob Parrish, Andy Simmonett
                          and Daniel G. A. Smith
                              RKS Reference
                       24 Threads, 137329 MiB Core
         ---------------------------------------------------------

  ==> Geometry <==

    Molecular point group: d2h
    Full point group: D_inf_h

    Geometry (in Angstrom), charge = 0, multiplicity = 1:

       Center              X                  Y                   Z               Mass       
    ------------   -----------------  -----------------  -----------------  -----------------
         CU           0.000000000000     0.000000000000     1.107490000000    62.929597720000
         CU           0.000000000000     0.000000000000    -1.107490000000    62.929597720000

  Running in d2h symmetry.

  Rotational constants: A = ************  B =      0.10920  C =      0.10920 [cm^-1]
  Rotational constants: A = ************  B =   3273.80359  C =   3273.80359 [MHz]
  Nuclear repulsion =  200.921919915064706

  Charge       = 0
  Multiplicity = 1
  Electrons    = 58
  Nalpha       = 29
  Nbeta        = 29

  ==> Algorithm <==

  SCF Algorithm Type is DF.
  DIIS enabled.
  MOM disabled.
  Fractional occupation disabled.
  Guess Type is SAD.
  Energy threshold   = 1.00e-06
  Density threshold  = 1.00e-06
  Integral threshold = 0.00e+00

  ==> Primary Basis <==

  Basis Set: DEF2-TZVPPD
    Blend: DEF2-TZVPPD
    Number of shells: 38
    Number of basis function: 134
    Number of Cartesian functions: 166
    Spherical Harmonics?: true
    Max angular momentum: 4

  ==> DFT Potential <==

   => Composite Functional: MN15-D3BJ <= 

   MN15 Hybrid Meta-GGA Exchange-Correlation Functional

    H. S. Yu, X. He, S. L. Li, and D. G. Truhlar, Chem. Sci. 7, 5032-5051, 2016


    Deriv               =              1
    GGA                 =           TRUE
    Meta                =           TRUE

    Exchange Hybrid     =           TRUE
    MP2 Hybrid          =          FALSE

   => Exchange Functionals <=

    1.0000   XC_HYB_MGGA_X_MN15

   => Exact (HF) Exchange <=

    0.4400               HF 

   => Correlation Functionals <=

    1.0000   XC_MGGA_C_MN15

   => Molecular Quadrature <=

    Radial Scheme          =       TREUTLER
    Pruning Scheme         =           FLAT
    Nuclear Scheme         =       TREUTLER

    BS radius alpha        =              1
    Pruning alpha          =              1
    Radial Points          =             75
    Spherical Points       =            302
    Total Points           =          45300
    Total Blocks           =            426
    Max Points             =            256
    Max Functions          =            129

   => MN15-D3(BJ): Empirical Dispersion <=

    Grimme's -D3 (BJ-damping) Dispersion Correction
    Grimme S.; Ehrlich S.; Goerigk L. (2011), J. Comput. Chem., 32: 1456
    Parametrisation from:    L. Goerigk, A. Hansen, C. Bauer, S. Ehrlich, A. Najibi, S. Grimme, Phys. Chem. Chem. Phys. 19, 32184-32215, 2017

        s6 =       1.000000
        s8 =       2.097100
        a1 =       0.786200
        a2 =       7.592300

   => Loading Basis Set <=

    Name: (DEF2-TZVPPD AUX)
    Role: JKFIT
    Keyword: DF_BASIS_SCF
    atoms 1-2 entry CU         line  2361 file /work/zw18965/.conda/envs/p4env/share/psi4/basis/def2-tzvpp-jkfit.gbs 

  ==> Pre-Iterations <==

   -------------------------------------------------------
    Irrep   Nso     Nmo     Nalpha   Nbeta   Ndocc  Nsocc
   -------------------------------------------------------
     Ag        27      27       0       0       0       0
     B1g        8       8       0       0       0       0
     B2g       16      16       0       0       0       0
     B3g       16      16       0       0       0       0
     Au         8       8       0       0       0       0
     B1u       27      27       0       0       0       0
     B2u       16      16       0       0       0       0
     B3u       16      16       0       0       0       0
   -------------------------------------------------------
    Total     134     134      29      29      29       0
   -------------------------------------------------------

  ==> Integral Setup <==

  DFHelper Memory: AOs need 0.078 GiB; user supplied 100.269 GiB. Using in-core AOs.

  ==> MemDFJK: Density-Fitted J/K Matrices <==

    J tasked:                   Yes
    K tasked:                   Yes
    wK tasked:                   No
    OpenMP threads:              24
    Memory [MiB]:            102675
    Algorithm:                 Core
    Schwarz Cutoff:           1E-12
    Mask sparsity (%):       4.8340
    Fitting Condition:        1E-10

   => Auxiliary Basis Set <=

  Basis Set: (DEF2-TZVPPD AUX)
    Blend: DEF2-TZVPP-JKFIT
    Number of shells: 116
    Number of basis function: 528
    Number of Cartesian functions: 754
    Spherical Harmonics?: true
    Max angular momentum: 6

  Cached 100.0% of DFT collocation blocks in 0.314 [GiB].

  Minimum eigenvalue in the overlap matrix is 7.7263331766E-04.
  Using Symmetric Orthogonalization.

  SCF Guess: Superposition of Atomic Densities via on-the-fly atomic UHF.

  ==> Iterations <==

                           Total Energy        Delta E     RMS |[F,P]|

   @DF-RKS iter SAD: -3276.51006371050835   -3.27651e+03   0.00000e+00 
    Occupation by irrep:
             Ag   B1g   B2g   B3g    Au   B1u   B2u   B3u 
    DOCC [     8,    1,    3,    3,    0,    7,    4,    3 ]

   @DF-RKS iter   1: -3275.58044627374875    9.29617e-01   1.19143e-01 DIIS
    Occupation by irrep:
             Ag   B1g   B2g   B3g    Au   B1u   B2u   B3u 
    DOCC [     8,    1,    3,    3,    1,    7,    3,    3 ]

   @DF-RKS iter   2: -3189.73747134512769    8.58430e+01   2.66144e-01 DIIS
   @DF-RKS iter   3: -3279.69610143968021   -8.99586e+01   5.63729e-02 DIIS
   @DF-RKS iter   4: -3279.03469455634649    6.61407e-01   6.74853e-02 DIIS
   @DF-RKS iter   5: -3281.53449567834150   -2.49980e+00   9.75353e-03 DIIS
   @DF-RKS iter   6: -3281.55942323964337   -2.49276e-02   5.13716e-03 DIIS
   @DF-RKS iter   7: -3281.56989727337668   -1.04740e-02   1.55271e-03 DIIS
   @DF-RKS iter   8: -3281.57103559077132   -1.13832e-03   1.27007e-04 DIIS
   @DF-RKS iter   9: -3281.57104408010764   -8.48934e-06   4.36427e-05 DIIS
   @DF-RKS iter  10: -3281.57104513361219   -1.05350e-06   8.48811e-06 DIIS
   @DF-RKS iter  11: -3281.57104526192688   -1.28315e-07   2.01193e-06 DIIS
   @DF-RKS iter  12: -3281.57104528280706   -2.08802e-08   9.40030e-07 DIIS
  Energy and wave function converged.


  ==> Post-Iterations <==

    Orbital Energies [Eh]
    ---------------------

    Doubly Occupied:                                                      

       1B1u -320.685489     1Ag  -320.685474     2B1u  -37.855350  
       2Ag   -37.855134     3B1u  -33.707289     3Ag   -33.707280  
       1B3g  -33.704543     1B2g  -33.704543     1B2u  -33.704533  
       1B3u  -33.704533     4Ag    -4.075901     4B1u   -4.075025  
       5Ag    -2.750523     2B3u   -2.744613     2B2u   -2.744613  
       2B2g   -2.744047     2B3g   -2.744047     5B1u   -2.744038  
       6Ag    -0.346628     3B3u   -0.334567     3B2u   -0.334567  
       7Ag    -0.317474     1B1g   -0.317470     6B1u   -0.309090  
       1Au    -0.309085     3B3g   -0.297192     3B2g   -0.297192  
       7B1u   -0.292703     8Ag    -0.236976  

    Virtual:                                                              

       8B1u   -0.061430     4B2u   -0.007255     4B3u   -0.007255  
       9Ag     0.035921     4B3g    0.075105     4B2g    0.075105  
       9B1u    0.084690    10Ag     0.140678    11Ag     0.159444  
       5B2u    0.159487     5B3u    0.159487    12Ag     0.195979  
       2B1g    0.195982     5B2g    0.204842     5B3g    0.204842  
      10B1u    0.228308    11B1u    0.266087     6B2u    0.268012  
       6B3u    0.268012    12B1u    0.283510     2Au     0.283512  
      13Ag     0.371416     6B3g    0.387564     6B2g    0.387564  
      13B1u    0.560887    14Ag     0.680552     7B2u    0.693836  
       7B3u    0.693836     7B3g    0.783510     7B2g    0.783510  
      14B1u    0.837592     8B2u    0.883787     8B3u    0.883787  
       3B1g    0.913163    15Ag     0.913183     3Au     0.993688  
      15B1u    0.993711    16Ag     1.022360     8B3g    1.132157  
       8B2g    1.132157    16B1u    1.342147     9B2u    2.975641  
       9B3u    2.975641    17Ag     3.021609    17B1u    3.029209  
       9B2g    3.059358     9B3g    3.059358    18Ag     3.120758  
      10B2u    3.390954    10B3u    3.390954    19Ag     3.407796  
       4B1g    3.416821    20Ag     3.416843    11B3u    3.430057  
      11B2u    3.430057    10B2g    3.430640    10B3g    3.430640  
       4Au     3.431063    18B1u    3.431081    11B3g    3.441520  
      11B2g    3.441520    19B1u    3.465616    20B1u    3.567688  
      21Ag     3.615831     5B1g    3.615863    21B1u    3.659944  
       5Au     3.659968    12B2u    3.681354    12B3u    3.681354  
      12B3g    3.761367    12B2g    3.761367    22Ag     3.941737  
      22B1u    4.076698    23Ag    12.717274    13B3u   12.717660  
      13B2u   12.717660    13B2g   12.718242    13B3g   12.718242  
      24Ag    12.718496    23B1u   12.718527     6B1g   12.718560  
       6Au    12.718591    24B1u   12.719145    14B2u   12.720124  
      14B3u   12.720124    14B3g   12.720124    14B2g   12.720124  
      25B1u   12.721703    25Ag    12.721704     7Au    12.721878  
       7B1g   12.721879    26Ag    12.868384    15B3u   12.874146  
      15B2u   12.874146     8B1g   12.877614    27Ag    12.877734  
      16B2u   12.879334    16B3u   12.879334    15B2g   12.879501  
      15B3g   12.879501     8Au    12.881113    26B1u   12.881232  
      16B2g   12.904573    16B3g   12.904573    27B1u   13.021001  

    Final Occupation by Irrep:
             Ag   B1g   B2g   B3g    Au   B1u   B2u   B3u 
    DOCC [     8,    1,    3,    3,    1,    7,    3,    3 ]

  @DF-RKS Final Energy: -3281.57104528280706

   => Energetics <=

    Nuclear Repulsion Energy =            200.9219199150647057
    One-Electron Energy =               -4976.8047951811940948
    Two-Electron Energy =                1571.5159566127460948
    DFT Exchange-Correlation Energy =     -77.2040951194239540
    Empirical Dispersion Energy =          -0.0000315100000000
    VV10 Nonlocal Energy =                  0.0000000000000000
    Total Energy =                      -3281.5710452828075177

Computation Completed


Properties will be evaluated at   0.000000,   0.000000,   0.000000 [a0]

Properties computed using the SCF density matrix

  Nuclear Dipole Moment: [e a0]
     X:     0.0000      Y:     0.0000      Z:    -0.0000

  Electronic Dipole Moment: [e a0]
     X:     0.0000      Y:     0.0000      Z:     0.0000

  Dipole Moment: [e a0]
     X:     0.0000      Y:     0.0000      Z:    -0.0000     Total:     0.0000

  Dipole Moment: [D]
     X:     0.0000      Y:     0.0000      Z:    -0.0000     Total:     0.0000


*** tstop() called on bp1-compute00162.data.bp.acrc.priv at Thu Oct 28 15:28:59 2021
Module time:
	user time   =      39.01 seconds =       0.65 minutes
	system time =       1.78 seconds =       0.03 minutes
	total time  =          3 seconds =       0.05 minutes
Total time:
	user time   =      39.01 seconds =       0.65 minutes
	system time =       1.78 seconds =       0.03 minutes
	total time  =          3 seconds =       0.05 minutes

    Psi4 stopped on: Thursday, 28 October 2021 03:28PM
    Psi4 wall time for execution: 0:00:02.11

*** Psi4 exiting successfully. Buy a developer a beer!
