
    -----------------------------------------------------------------------
          Psi4: An Open-Source Ab Initio Electronic Structure Package
                               Psi4 1.3.2 release

                         Git: Rev {HEAD} ecbda83 


    R. M. Parrish, L. A. Burns, D. G. A. Smith, A. C. Simmonett,
    A. E. DePrince III, E. G. Hohenstein, U. Bozkaya, A. Yu. Sokolov,
    R. Di Remigio, R. M. Richard, J. F. Gonthier, A. M. James,
    H. R. McAlexander, A. Kumar, M. Saitow, X. Wang, B. P. Pritchard,
    P. Verma, H. F. Schaefer III, K. Patkowski, R. A. King, E. F. Valeev,
    F. A. Evangelista, J. M. Turney, T. D. Crawford, and C. D. Sherrill,
    J. Chem. Theory Comput. 13(7) pp 3185--3197 (2017).
    (doi: 10.1021/acs.jctc.7b00174)


                         Additional Contributions by
    P. Kraus, H. Kruse, M. H. Lechner, M. C. Schieber, R. A. Shaw,
    A. Alenaizan, R. Galvelis, Z. L. Glick, S. Lehtola, and J. P. Misiewicz

    -----------------------------------------------------------------------


    Psi4 started on: Thursday, 28 October 2021 03:29PM

    Process ID: 200196
    Host:       bp1-compute00024.data.bp.acrc.priv
    PSIDATADIR: /work/zw18965/.conda/envs/p4env/share/psi4
    Memory:     500.0 MiB
    Threads:    24
    
  ==> Input File <==

--------------------------------------------------------------------------
memory 144 GB

molecule {
0 2
Cu       0.000000    1.346828   -0.000000 
Cu       1.166387   -0.673414   -0.000000 
Cu      -1.166387   -0.673414   -0.000000 
 }

set reference uks
set basis Def2-TZVPPD

energy("MN15-D3BJ")
--------------------------------------------------------------------------

  Memory set to 134.110 GiB by Python driver.

*** tstart() called on bp1-compute00024.data.bp.acrc.priv
*** at Thu Oct 28 15:29:10 2021

   => Loading Basis Set <=

    Name: DEF2-TZVPPD
    Role: ORBITAL
    Keyword: BASIS
    atoms 1-3 entry CU         line  1290 file /work/zw18965/.conda/envs/p4env/share/psi4/basis/def2-tzvppd.gbs 


         ---------------------------------------------------------
                                   SCF
               by Justin Turney, Rob Parrish, Andy Simmonett
                          and Daniel G. A. Smith
                              UKS Reference
                       24 Threads, 137329 MiB Core
         ---------------------------------------------------------

  ==> Geometry <==

    Molecular point group: c2v
    Full point group: C2v

    Geometry (in Angstrom), charge = 0, multiplicity = 2:

       Center              X                  Y                   Z               Mass       
    ------------   -----------------  -----------------  -----------------  -----------------
         CU           0.000000000000    -0.000000000000     1.346828000000    62.929597720000
         CU           1.166387000000     0.000000000000    -0.673414000000    62.929597720000
         CU          -1.166387000000    -0.000000000000    -0.673414000000    62.929597720000

  Running in c2v symmetry.

  Rotational constants: A =      0.09845  B =      0.09845  C =      0.04923 [cm^-1]
  Rotational constants: A =   2951.52800  B =   2951.52667  C =   1475.76367 [MHz]
  Nuclear repulsion =  572.328889239998603

  Charge       = 0
  Multiplicity = 2
  Electrons    = 87
  Nalpha       = 44
  Nbeta        = 43

  ==> Algorithm <==

  SCF Algorithm Type is DF.
  DIIS enabled.
  MOM disabled.
  Fractional occupation disabled.
  Guess Type is SAD.
  Energy threshold   = 1.00e-06
  Density threshold  = 1.00e-06
  Integral threshold = 0.00e+00

  ==> Primary Basis <==

  Basis Set: DEF2-TZVPPD
    Blend: DEF2-TZVPPD
    Number of shells: 57
    Number of basis function: 201
    Number of Cartesian functions: 249
    Spherical Harmonics?: true
    Max angular momentum: 4

  ==> DFT Potential <==

   => Composite Functional: MN15-D3BJ <= 

   MN15 Hybrid Meta-GGA Exchange-Correlation Functional

    H. S. Yu, X. He, S. L. Li, and D. G. Truhlar, Chem. Sci. 7, 5032-5051, 2016


    Deriv               =              1
    GGA                 =           TRUE
    Meta                =           TRUE

    Exchange Hybrid     =           TRUE
    MP2 Hybrid          =          FALSE

   => Exchange Functionals <=

    1.0000   XC_HYB_MGGA_X_MN15

   => Exact (HF) Exchange <=

    0.4400               HF 

   => Correlation Functionals <=

    1.0000   XC_MGGA_C_MN15

   => Molecular Quadrature <=

    Radial Scheme          =       TREUTLER
    Pruning Scheme         =           FLAT
    Nuclear Scheme         =       TREUTLER

    BS radius alpha        =              1
    Pruning alpha          =              1
    Radial Points          =             75
    Spherical Points       =            302
    Total Points           =          67950
    Total Blocks           =            595
    Max Points             =            254
    Max Functions          =            191

   => MN15-D3(BJ): Empirical Dispersion <=

    Grimme's -D3 (BJ-damping) Dispersion Correction
    Grimme S.; Ehrlich S.; Goerigk L. (2011), J. Comput. Chem., 32: 1456
    Parametrisation from:    L. Goerigk, A. Hansen, C. Bauer, S. Ehrlich, A. Najibi, S. Grimme, Phys. Chem. Chem. Phys. 19, 32184-32215, 2017

        s6 =       1.000000
        s8 =       2.097100
        a1 =       0.786200
        a2 =       7.592300

   => Loading Basis Set <=

    Name: (DEF2-TZVPPD AUX)
    Role: JKFIT
    Keyword: DF_BASIS_SCF
    atoms 1-3 entry CU         line  2361 file /work/zw18965/.conda/envs/p4env/share/psi4/basis/def2-tzvpp-jkfit.gbs 

  ==> Pre-Iterations <==

   -------------------------------------------------------
    Irrep   Nso     Nmo     Nalpha   Nbeta   Ndocc  Nsocc
   -------------------------------------------------------
     A1        70      70       0       0       0       0
     A2        32      32       0       0       0       0
     B1        59      59       0       0       0       0
     B2        40      40       0       0       0       0
   -------------------------------------------------------
    Total     201     201      44      43      43       1
   -------------------------------------------------------

  ==> Integral Setup <==

  DFHelper Memory: AOs need 0.246 GiB; user supplied 99.940 GiB. Using in-core AOs.

  ==> MemDFJK: Density-Fitted J/K Matrices <==

    J tasked:                   Yes
    K tasked:                   Yes
    wK tasked:                   No
    OpenMP threads:              24
    Memory [MiB]:            102338
    Algorithm:                 Core
    Schwarz Cutoff:           1E-12
    Mask sparsity (%):       6.8810
    Fitting Condition:        1E-10

   => Auxiliary Basis Set <=

  Basis Set: (DEF2-TZVPPD AUX)
    Blend: DEF2-TZVPP-JKFIT
    Number of shells: 174
    Number of basis function: 792
    Number of Cartesian functions: 1131
    Spherical Harmonics?: true
    Max angular momentum: 6

  Cached 100.0% of DFT collocation blocks in 0.643 [GiB].

  Minimum eigenvalue in the overlap matrix is 7.6310552917E-04.
  Using Symmetric Orthogonalization.

  SCF Guess: Superposition of Atomic Densities via on-the-fly atomic UHF.

  ==> Iterations <==

                           Total Energy        Delta E     RMS |[F,P]|

   @DF-UKS iter SAD: -4915.41396535406784   -4.91541e+03   0.00000e+00 
    Occupation by irrep:
             A1    A2    B1    B2 
    DOCC [    19,    3,   14,    7 ]
    SOCC [     1,    0,    0,    0 ]

   @DF-UKS iter   1: -4913.47779995822839    1.93617e+00   7.05999e-02 DIIS
    Occupation by irrep:
             A1    A2    B1    B2 
    DOCC [    18,    5,   13,    7 ]
    SOCC [     1,    0,    0,    0 ]

   @DF-UKS iter   2: -4774.31205025090185    1.39166e+02   1.61765e-01 DIIS
   @DF-UKS iter   3: -4919.77209456815217   -1.45460e+02   3.01364e-02 DIIS
   @DF-UKS iter   4: -4919.51480220583744    2.57292e-01   3.47194e-02 DIIS
   @DF-UKS iter   5: -4921.36417061158136   -1.84937e+00   2.20229e-02 DIIS
   @DF-UKS iter   6: -4922.32479682719350   -9.60626e-01   4.69136e-03 DIIS
   @DF-UKS iter   7: -4922.35304303921475   -2.82462e-02   2.17798e-03 DIIS
   @DF-UKS iter   8: -4922.36293256287718   -9.88952e-03   8.18867e-04 DIIS
   @DF-UKS iter   9: -4922.36456280705352   -1.63024e-03   2.31467e-04 DIIS
   @DF-UKS iter  10: -4922.36473176658728   -1.68960e-04   5.83484e-05 DIIS
   @DF-UKS iter  11: -4922.36475552447700   -2.37579e-05   1.84520e-05 DIIS
   @DF-UKS iter  12: -4922.36476275410314   -7.22963e-06   8.25043e-06 DIIS
   @DF-UKS iter  13: -4922.36476495599800   -2.20189e-06   3.03664e-06 DIIS
   @DF-UKS iter  14: -4922.36476516298899   -2.06991e-07   1.16756e-06 DIIS
   @DF-UKS iter  15: -4922.36476518709242   -2.41034e-08   3.77595e-07 DIIS
  Energy and wave function converged.


  ==> Post-Iterations <==

   @Spin Contamination Metric:   1.797124428E-02
   @S^2 Expected:                7.500000000E-01
   @S^2 Observed:                7.679712443E-01
   @S   Expected:                5.000000000E-01
   @S   Observed:                5.000000000E-01

    Orbital Energies [Eh]
    ---------------------

    Alpha Occupied:                                                       

       1B1  -320.708630     1A1  -320.708619     2A1  -320.693659  
       2B1   -37.879236     3A1   -37.879074     4A1   -37.866716  
       3B1   -33.730733     5A1   -33.730720     4B1   -33.728552  
       6A1   -33.728542     1A2   -33.727758     1B2   -33.727750  
       7A1   -33.717058     5B1   -33.716857     2B2   -33.714186  
       8A1    -4.099197     6B1    -4.098720     9A1    -4.085408  
      10A1    -2.772475     7B1    -2.769712    11A1    -2.768937  
       3B2    -2.767629     2A2    -2.767306     8B1    -2.767193  
      12A1    -2.756141     9B1    -2.754474     4B2    -2.750965  
      13A1    -0.378364    14A1    -0.361627     5B2    -0.359776  
      10B1    -0.355903    15A1    -0.346888     6B2    -0.345056  
       3A2    -0.340444    11B1    -0.327106     4A2    -0.323257  
      12B1    -0.322485    16A1    -0.316242     5A2    -0.314520  
      17A1    -0.312593     7B2    -0.311842    13B1    -0.300268  
      18A1    -0.288533    19A1    -0.165888  

    Alpha Virtual:                                                        

      14B1    -0.086190     8B2    -0.034537    20A1    -0.007958  
      15B1     0.011504    21A1     0.024302     9B2     0.050727  
       6A2     0.063427    22A1     0.070907    16B1     0.074346  
      17B1     0.110106    23A1     0.135012    10B2     0.137778  
      24A1     0.143327    25A1     0.154878    18B1     0.156220  
       7A2     0.190960    11B2     0.194367    26A1     0.212566  
      27A1     0.228853    19B1     0.233208     8A2     0.236089  
      12B2     0.241651    20B1     0.244071    28A1     0.254600  
      21B1     0.255560    13B2     0.270024    22B1     0.325705  
      29A1     0.326019     9A2     0.350920    30A1     0.359270  
      23B1     0.380015    10A2     0.382284    31A1     0.383295  
      14B2     0.385795    24B1     0.489103    25B1     0.524007  
      32A1     0.525447    15B2     0.662580    33A1     0.667326  
      34A1     0.716968    26B1     0.719947    11A2     0.773978  
      16B2     0.777001    35A1     0.814715    27B1     0.832041  
      36A1     0.838444    17B2     0.847469    18B2     0.871498  
      12A2     0.875515    37A1     0.959041    28B1     0.968193  
      29B1     0.977467    38A1     0.978585    13A2     1.053607  
      30B1     1.063588    39A1     1.068639    14A2     1.107674  
      19B2     1.112492    31B1     1.275904    40A1     1.277135  
      32B1     1.296453    20B2     2.940259    41A1     3.012406  
      33B1     3.018096    15A2     3.041674    21B2     3.049233  
      34B1     3.055679    42A1     3.056160    43A1     3.064357  
      44A1     3.089552    35B1     3.174889    45A1     3.355041  
      22B2     3.377901    23B2     3.386242    16A2     3.387342  
      36B1     3.400831    46A1     3.402393    37B1     3.405358  
      24B2     3.406931    17A2     3.406975    47A1     3.408433  
      38B1     3.408804    18A2     3.409763    48A1     3.411197  
      19A2     3.416637    25B2     3.416835    39B1     3.421505  
      26B2     3.423112    49A1     3.449105    40B1     3.450364  
      50A1     3.453726    41B1     3.484456    42B1     3.533646  
      51A1     3.539070    27B2     3.622839    52A1     3.626797  
      20A2     3.628438    28B2     3.658603    43B1     3.675758  
      53A1     3.684808    21A2     3.701773    22A2     3.748651  
      29B2     3.755306    54A1     3.880648    44B1     3.882534  
      55A1     3.900730    45B1     3.946327    46B1     4.191184  
      56A1     4.193728    57A1    12.694552    47B1    12.694777  
      30B2    12.695048    23A2    12.695061    48B1    12.695424  
      58A1    12.695500    24A2    12.695827    31B2    12.695947  
      59A1    12.696781    49B1    12.696809    25A2    12.697102  
      50B1    12.697164    32B2    12.697254    60A1    12.697380  
      26A2    12.698804    33B2    12.698805    51B1    12.698832  
      61A1    12.698833    62A1    12.709513    52B1    12.710262  
      34B2    12.711453    27A2    12.711737    53B1    12.713226  
      63A1    12.713517    35B2    12.713696    64A1    12.714923  
      28A2    12.714941    36B2    12.854515    65A1    12.855898  
      37B2    12.856062    54B1    12.856137    29A2    12.856317  
      30A2    12.856828    66A1    12.857210    67A1    12.858386  
      55B1    12.858709    38B2    12.862144    31A2    12.867289  
      56B1    12.868270    39B2    12.870732    68A1    12.872364  
      57B1    12.873561    32A2    12.879007    69A1    12.879652  
      40B2    12.881439    58B1    12.947848    70A1    12.955541  
      59B1    12.957969  

    Beta Occupied:                                                        

       1B1  -320.708516     1A1  -320.708505     2A1  -320.693316  
       2B1   -37.879103     3A1   -37.878941     4A1   -37.866756  
       3B1   -33.730861     5A1   -33.730851     4B1   -33.728624  
       6A1   -33.728609     1A2   -33.727595     1B2   -33.727587  
       7A1   -33.718470     5B1   -33.716503     2B2   -33.713992  
       8A1    -4.098926     6B1    -4.098449     9A1    -4.084112  
      10A1    -2.772371     7B1    -2.768705    11A1    -2.768423  
       3B2    -2.767725     8B1    -2.767642     2A2    -2.767407  
       9B1    -2.754640    12A1    -2.754631     4B2    -2.751175  
      13A1    -0.376655    14A1    -0.360640     5B2    -0.359562  
      10B1    -0.353304    15A1    -0.345423     6B2    -0.344583  
       3A2    -0.339729    11B1    -0.327112     4A2    -0.323743  
      12B1    -0.321886    16A1    -0.315523     5A2    -0.313605  
       7B2    -0.309507    17A1    -0.308732    13B1    -0.296814  
      18A1    -0.279239  

    Beta Virtual:                                                         

      14B1    -0.077049    19A1    -0.054527     8B2    -0.026655  
      20A1     0.024973    15B1     0.047164    21A1     0.053334  
       6A2     0.070414    16B1     0.078309     9B2     0.085707  
      22A1     0.088836    17B1     0.131015    23A1     0.136847  
      10B2     0.145515    24A1     0.148110    18B1     0.163992  
      25A1     0.168317     7A2     0.186885    11B2     0.195762  
      26A1     0.227063    19B1     0.237091    20B1     0.243499  
      12B2     0.247110    27A1     0.249878     8A2     0.251033  
      21B1     0.261304    28A1     0.274048    13B2     0.279909  
      22B1     0.337419    29A1     0.339331     9A2     0.358821  
      30A1     0.364697    10A2     0.387230    23B1     0.391712  
      31A1     0.396385    14B2     0.400721    24B1     0.494480  
      25B1     0.520408    32A1     0.525382    15B2     0.657368  
      33A1     0.665832    34A1     0.720500    26B1     0.720646  
      11A2     0.769982    16B2     0.780307    35A1     0.823163  
      27B1     0.830546    36A1     0.844401    17B2     0.850403  
      18B2     0.878815    12A2     0.880763    37A1     0.960591  
      28B1     0.963905    29B1     0.984379    38A1     0.985452  
      13A2     1.061378    30B1     1.070243    39A1     1.077088  
      14A2     1.107517    19B2     1.114663    31B1     1.274765  
      40A1     1.278767    32B1     1.303199    20B2     2.941998  
      41A1     3.017276    33B1     3.022762    15A2     3.042295  
      21B2     3.055032    34B1     3.057452    42A1     3.060344  
      43A1     3.069680    44A1     3.092293    35B1     3.180888  
      45A1     3.360206    22B2     3.378408    23B2     3.392476  
      16A2     3.393541    36B1     3.403034    46A1     3.404811  
      17A2     3.408235    37B1     3.408713    24B2     3.408993  
      18A2     3.410585    47A1     3.410792    38B1     3.411377  
      48A1     3.415574    19A2     3.420591    25B2     3.421543  
      39B1     3.426008    26B2     3.428259    40B1     3.454249  
      49A1     3.455119    50A1     3.459663    41B1     3.488202  
      42B1     3.535519    51A1     3.544308    27B2     3.626111  
      52A1     3.630801    20A2     3.632040    28B2     3.659575  
      43B1     3.681870    53A1     3.692936    21A2     3.708078  
      22A2     3.750146    29B2     3.762278    54A1     3.886349  
      44B1     3.887910    55A1     3.901079    45B1     3.955301  
      46B1     4.190580    56A1     4.196815    57A1    12.694505  
      47B1    12.694755    30B2    12.694852    23A2    12.694975  
      58A1    12.695153    48B1    12.695388    24A2    12.695544  
      31B2    12.695646    49B1    12.696435    59A1    12.696455  
      25A2    12.696975    50B1    12.697156    32B2    12.697236  
      60A1    12.697693    61A1    12.698397    51B1    12.698409  
      26A2    12.698431    33B2    12.698457    62A1    12.709642  
      52B1    12.710344    34B2    12.711091    27A2    12.711559  
      53B1    12.712811    63A1    12.713242    35B2    12.713471  
      28A2    12.714011    64A1    12.714081    36B2    12.854581  
      37B2    12.856115    65A1    12.856119    54B1    12.856404  
      29A2    12.856874    30A2    12.857081    66A1    12.857483  
      67A1    12.858677    55B1    12.859363    38B2    12.862857  
      31A2    12.867367    56B1    12.868571    39B2    12.871241  
      68A1    12.873169    57B1    12.873900    32A2    12.879818  
      69A1    12.880904    40B2    12.882402    58B1    12.948176  
      70A1    12.956285    59B1    12.959138  

    Final Occupation by Irrep:
             A1    A2    B1    B2 
    DOCC [    18,    5,   13,    7 ]
    SOCC [     1,    0,    0,    0 ]

  @DF-UKS Final Energy: -4922.36476518709242

   => Energetics <=

    Nuclear Repulsion Energy =            572.3288892399986025
    One-Electron Energy =               -8005.5154054955983156
    Two-Electron Energy =                2626.6425389468508911
    DFT Exchange-Correlation Energy =    -115.8206948983430493
    Empirical Dispersion Energy =          -0.0000929800000000
    VV10 Nonlocal Energy =                  0.0000000000000000
    Total Energy =                      -4922.3647651870924165

  UHF NO Occupations:
  HONO-2 :   13 B1 1.9984370
  HONO-1 :   18 A1 1.9935044
  HONO-0 :   19 A1 1.0000000
  LUNO+0 :   20 A1 0.0064956
  LUNO+1 :   14 B1 0.0015630
  LUNO+2 :   15 B1 0.0002194
  LUNO+3 :   21 A1 0.0001979


Computation Completed


Properties will be evaluated at   0.000000,   0.000000,   0.000000 [a0]

Properties computed using the SCF density matrix

  Nuclear Dipole Moment: [e a0]
     X:    -0.0000      Y:    -0.0000      Z:     0.0000

  Electronic Dipole Moment: [e a0]
     X:     0.0000      Y:     0.0000      Z:    -0.3150

  Dipole Moment: [e a0]
     X:    -0.0000      Y:    -0.0000      Z:    -0.3150     Total:     0.3150

  Dipole Moment: [D]
     X:    -0.0000      Y:    -0.0000      Z:    -0.8006     Total:     0.8006


*** tstop() called on bp1-compute00024.data.bp.acrc.priv at Thu Oct 28 15:29:32 2021
Module time:
	user time   =     489.97 seconds =       8.17 minutes
	system time =      14.95 seconds =       0.25 minutes
	total time  =         22 seconds =       0.37 minutes
Total time:
	user time   =     489.97 seconds =       8.17 minutes
	system time =      14.95 seconds =       0.25 minutes
	total time  =         22 seconds =       0.37 minutes

    Psi4 stopped on: Thursday, 28 October 2021 03:29PM
    Psi4 wall time for execution: 0:00:21.92

*** Psi4 exiting successfully. Buy a developer a beer!
