
    -----------------------------------------------------------------------
          Psi4: An Open-Source Ab Initio Electronic Structure Package
                               Psi4 1.3.2 release

                         Git: Rev {HEAD} ecbda83 


    R. M. Parrish, L. A. Burns, D. G. A. Smith, A. C. Simmonett,
    A. E. DePrince III, E. G. Hohenstein, U. Bozkaya, A. Yu. Sokolov,
    R. Di Remigio, R. M. Richard, J. F. Gonthier, A. M. James,
    H. R. McAlexander, A. Kumar, M. Saitow, X. Wang, B. P. Pritchard,
    P. Verma, H. F. Schaefer III, K. Patkowski, R. A. King, E. F. Valeev,
    F. A. Evangelista, J. M. Turney, T. D. Crawford, and C. D. Sherrill,
    J. Chem. Theory Comput. 13(7) pp 3185--3197 (2017).
    (doi: 10.1021/acs.jctc.7b00174)


                         Additional Contributions by
    P. Kraus, H. Kruse, M. H. Lechner, M. C. Schieber, R. A. Shaw,
    A. Alenaizan, R. Galvelis, Z. L. Glick, S. Lehtola, and J. P. Misiewicz

    -----------------------------------------------------------------------


    Psi4 started on: Thursday, 28 October 2021 03:29PM

    Process ID: 81504
    Host:       bp1-compute00162.data.bp.acrc.priv
    PSIDATADIR: /work/zw18965/.conda/envs/p4env/share/psi4
    Memory:     500.0 MiB
    Threads:    24
    
  ==> Input File <==

--------------------------------------------------------------------------
memory 144 GB

molecule {
1 1
Cu       0.000000    0.000000    0.000000 
Cu       0.000000    0.000000    2.337165 
Cu       0.000000    0.000000   -2.337165 
 }

set basis Def2-TZVPPD

energy("MN15-D3BJ")
--------------------------------------------------------------------------

  Memory set to 134.110 GiB by Python driver.

*** tstart() called on bp1-compute00162.data.bp.acrc.priv
*** at Thu Oct 28 15:29:08 2021

   => Loading Basis Set <=

    Name: DEF2-TZVPPD
    Role: ORBITAL
    Keyword: BASIS
    atoms 1-3 entry CU         line  1290 file /work/zw18965/.conda/envs/p4env/share/psi4/basis/def2-tzvppd.gbs 


         ---------------------------------------------------------
                                   SCF
               by Justin Turney, Rob Parrish, Andy Simmonett
                          and Daniel G. A. Smith
                              RKS Reference
                       24 Threads, 137329 MiB Core
         ---------------------------------------------------------

  ==> Geometry <==

    Molecular point group: d2h
    Full point group: D_inf_h

    Geometry (in Angstrom), charge = 1, multiplicity = 1:

       Center              X                  Y                   Z               Mass       
    ------------   -----------------  -----------------  -----------------  -----------------
         CU           0.000000000000     0.000000000000     0.000000000000    62.929597720000
         CU           0.000000000000     0.000000000000     2.337165000000    62.929597720000
         CU           0.000000000000     0.000000000000    -2.337165000000    62.929597720000

  Running in d2h symmetry.

  Rotational constants: A = ************  B =      0.02452  C =      0.02452 [cm^-1]
  Rotational constants: A = ************  B =    735.11198  C =    735.11198 [MHz]
  Nuclear repulsion =  476.044731729969840

  Charge       = 1
  Multiplicity = 1
  Electrons    = 86
  Nalpha       = 43
  Nbeta        = 43

  ==> Algorithm <==

  SCF Algorithm Type is DF.
  DIIS enabled.
  MOM disabled.
  Fractional occupation disabled.
  Guess Type is SAD.
  Energy threshold   = 1.00e-06
  Density threshold  = 1.00e-06
  Integral threshold = 0.00e+00

  ==> Primary Basis <==

  Basis Set: DEF2-TZVPPD
    Blend: DEF2-TZVPPD
    Number of shells: 57
    Number of basis function: 201
    Number of Cartesian functions: 249
    Spherical Harmonics?: true
    Max angular momentum: 4

  ==> DFT Potential <==

   => Composite Functional: MN15-D3BJ <= 

   MN15 Hybrid Meta-GGA Exchange-Correlation Functional

    H. S. Yu, X. He, S. L. Li, and D. G. Truhlar, Chem. Sci. 7, 5032-5051, 2016


    Deriv               =              1
    GGA                 =           TRUE
    Meta                =           TRUE

    Exchange Hybrid     =           TRUE
    MP2 Hybrid          =          FALSE

   => Exchange Functionals <=

    1.0000   XC_HYB_MGGA_X_MN15

   => Exact (HF) Exchange <=

    0.4400               HF 

   => Correlation Functionals <=

    1.0000   XC_MGGA_C_MN15

   => Molecular Quadrature <=

    Radial Scheme          =       TREUTLER
    Pruning Scheme         =           FLAT
    Nuclear Scheme         =       TREUTLER

    BS radius alpha        =              1
    Pruning alpha          =              1
    Radial Points          =             75
    Spherical Points       =            302
    Total Points           =          67950
    Total Blocks           =            621
    Max Points             =            254
    Max Functions          =            170

   => MN15-D3(BJ): Empirical Dispersion <=

    Grimme's -D3 (BJ-damping) Dispersion Correction
    Grimme S.; Ehrlich S.; Goerigk L. (2011), J. Comput. Chem., 32: 1456
    Parametrisation from:    L. Goerigk, A. Hansen, C. Bauer, S. Ehrlich, A. Najibi, S. Grimme, Phys. Chem. Chem. Phys. 19, 32184-32215, 2017

        s6 =       1.000000
        s8 =       2.097100
        a1 =       0.786200
        a2 =       7.592300

   => Loading Basis Set <=

    Name: (DEF2-TZVPPD AUX)
    Role: JKFIT
    Keyword: DF_BASIS_SCF
    atoms 1-3 entry CU         line  2361 file /work/zw18965/.conda/envs/p4env/share/psi4/basis/def2-tzvpp-jkfit.gbs 

  ==> Pre-Iterations <==

   -------------------------------------------------------
    Irrep   Nso     Nmo     Nalpha   Nbeta   Ndocc  Nsocc
   -------------------------------------------------------
     Ag        44      44       0       0       0       0
     B1g       14      14       0       0       0       0
     B2g       22      22       0       0       0       0
     B3g       22      22       0       0       0       0
     Au        10      10       0       0       0       0
     B1u       37      37       0       0       0       0
     B2u       26      26       0       0       0       0
     B3u       26      26       0       0       0       0
   -------------------------------------------------------
    Total     201     201      43      43      43       0
   -------------------------------------------------------

  ==> Integral Setup <==

  DFHelper Memory: AOs need 0.224 GiB; user supplied 99.978 GiB. Using in-core AOs.

  ==> MemDFJK: Density-Fitted J/K Matrices <==

    J tasked:                   Yes
    K tasked:                   Yes
    wK tasked:                   No
    OpenMP threads:              24
    Memory [MiB]:            102377
    Algorithm:                 Core
    Schwarz Cutoff:           1E-12
    Mask sparsity (%):      15.7471
    Fitting Condition:        1E-10

   => Auxiliary Basis Set <=

  Basis Set: (DEF2-TZVPPD AUX)
    Blend: DEF2-TZVPP-JKFIT
    Number of shells: 174
    Number of basis function: 792
    Number of Cartesian functions: 1131
    Spherical Harmonics?: true
    Max angular momentum: 6

  Cached 100.0% of DFT collocation blocks in 0.605 [GiB].

  Minimum eigenvalue in the overlap matrix is 3.5514189840E-04.
  Using Symmetric Orthogonalization.

  SCF Guess: Superposition of Atomic Densities via on-the-fly atomic UHF.

  ==> Iterations <==

                           Total Energy        Delta E     RMS |[F,P]|

   @DF-RKS iter SAD: -4914.85018619606126   -4.91485e+03   0.00000e+00 
    Occupation by irrep:
             Ag   B1g   B2g   B3g    Au   B1u   B2u   B3u 
    DOCC [    13,    1,    3,    3,    0,   10,    7,    6 ]

   @DF-RKS iter   1: -4913.66730694017861    1.18288e+00   9.54458e-02 DIIS
    Occupation by irrep:
             Ag   B1g   B2g   B3g    Au   B1u   B2u   B3u 
    DOCC [    13,    2,    4,    4,    1,    9,    5,    5 ]

   @DF-RKS iter   2: -4790.51398196198625    1.23153e+02   2.14923e-01 DIIS
    Occupation by irrep:
             Ag   B1g   B2g   B3g    Au   B1u   B2u   B3u 
    DOCC [    13,    1,    4,    4,    1,   10,    5,    5 ]

   @DF-RKS iter   3: -4919.73158778738798   -1.29218e+02   4.34674e-02 DIIS
    Occupation by irrep:
             Ag   B1g   B2g   B3g    Au   B1u   B2u   B3u 
    DOCC [    13,    2,    4,    4,    1,    9,    5,    5 ]

   @DF-RKS iter   4: -4912.54194571401058    7.18964e+00   7.66022e-02 DIIS
   @DF-RKS iter   5: -4921.09649586307023   -8.55455e+00   3.26698e-02 DIIS
   @DF-RKS iter   6: -4922.05137950067183   -9.54884e-01   6.90488e-03 DIIS
   @DF-RKS iter   7: -4922.08238177100429   -3.10023e-02   3.28959e-03 DIIS
   @DF-RKS iter   8: -4922.09406371275509   -1.16819e-02   1.35446e-03 DIIS
   @DF-RKS iter   9: -4922.09570909526519   -1.64538e-03   7.05297e-05 DIIS
   @DF-RKS iter  10: -4922.09571869508545   -9.59982e-06   1.45354e-05 DIIS
   @DF-RKS iter  11: -4922.09571984635022   -1.15126e-06   7.23888e-06 DIIS
   @DF-RKS iter  12: -4922.09572029529227   -4.48942e-07   2.16667e-06 DIIS
   @DF-RKS iter  13: -4922.09572033551194   -4.02197e-08   8.91246e-07 DIIS
  Energy and wave function converged.


  ==> Post-Iterations <==

    Orbital Energies [Eh]
    ---------------------

    Doubly Occupied:                                                      

       1B1u -320.906497     1Ag  -320.906491     2Ag  -320.867386  
       2B1u  -38.069604     3Ag   -38.069515     4Ag   -38.038898  
       5Ag   -33.922115     3B1u  -33.922111     1B3g  -33.920465  
       1B2g  -33.920465     1B2u  -33.920462     1B3u  -33.920462  
       4B1u  -33.891969     2B2u  -33.887009     2B3u  -33.887009  
       5B1u   -4.293310     6Ag    -4.293255     7Ag    -4.258088  
       6B1u   -2.966631     8Ag    -2.966414     3B3u   -2.964088  
       3B2u   -2.964088     2B2g   -2.964080     2B3g   -2.964080  
       7B1u   -2.931559     4B2u   -2.925081     4B3u   -2.925081  
       9Ag    -0.560871     3B2g   -0.545021     3B3g   -0.545021  
       8B1u   -0.538237     5B3u   -0.537017     5B2u   -0.537017  
      10Ag    -0.534652     1B1g   -0.534650     9B1u   -0.534158  
       1Au    -0.534155    11Ag    -0.492266     2B1g   -0.492264  
       4B2g   -0.488599     4B3g   -0.488599    12Ag    -0.486778  
      13Ag    -0.428284  

    Virtual:                                                              

      10B1u   -0.304858    14Ag    -0.191903     6B2u   -0.175796  
       6B3u   -0.175796    11B1u   -0.123819     5B3g   -0.113141  
       5B2g   -0.113141     7B2u   -0.032522     7B3u   -0.032522  
      12B1u   -0.021434    15Ag    -0.021036    16Ag    -0.009515  
       8B2u    0.021216     8B3u    0.021216     6B3g    0.038845  
       6B2g    0.038845    17Ag     0.041207     3B1g    0.041212  
      13B1u    0.041213    18Ag     0.084866     9B3u    0.087978  
       9B2u    0.087978    14B1u    0.092759     2Au     0.092761  
      19Ag     0.113773     7B3g    0.126477     7B2g    0.126477  
      15B1u    0.156545    20Ag     0.180956     4B1g    0.180957  
      16B1u    0.196515    10B2u    0.235529    10B3u    0.235529  
      21Ag     0.256854     8B3g    0.338633     8B2g    0.338634  
      22Ag     0.377727    17B1u    0.420360    18B1u    0.472577  
      11B2u    0.534203    11B3u    0.534203     9B3g    0.557400  
       9B2g    0.557400    12B2u    0.621577    12B3u    0.621577  
      23Ag     0.640314     5B1g    0.724272    24Ag     0.724311  
       3Au     0.759470    19B1u    0.759498    10B3g    0.761573  
      10B2g    0.761573    20B1u    0.773226    25Ag     0.802447  
      13B2u    0.812834    13B3u    0.812834     6B1g    0.831705  
      26Ag     0.831752    11B3g    1.000448    11B2g    1.000448  
      21B1u    1.024648    27Ag     1.307739    14B2u    2.759052  
      14B3u    2.759052    28Ag     2.824758    12B3g    2.845008  
      12B2g    2.845008    22B1u    2.856654    15B2u    2.883517  
      15B3u    2.883517    23B1u    2.888854    29Ag     2.995445  
      30Ag     3.164593    13B3g    3.188620    13B2g    3.188620  
      24B1u    3.189606    16B2u    3.195430    16B3u    3.195430  
       4Au     3.199135    25B1u    3.199188     7B1g    3.199914  
      31Ag     3.199965    17B3u    3.201984    17B2u    3.201984  
      14B2g    3.201985    14B3g    3.201985    18B2u    3.236961  
      18B3u    3.236961     5Au     3.245455    26B1u    3.245543  
      19B3u    3.254985    19B2u    3.254985    27B1u    3.263835  
      32Ag     3.354658     8B1g    3.402486    33Ag     3.402518  
       6Au     3.419928    28B1u    3.419954    15B3g    3.452438  
      15B2g    3.452438     9B1g    3.483912    34Ag     3.483965  
      29B1u    3.496042    20B2u    3.523457    20B3u    3.523457  
      16B3g    3.625739    16B2g    3.625739    35Ag     3.733768  
      30B1u    3.835860    36Ag     4.185068    21B2u   12.496229  
      21B3u   12.496229    17B3g   12.496855    17B2g   12.496855  
       7Au    12.496870    10B1g   12.496910    31B1u   12.496944  
      37Ag    12.496984    32B1u   12.497190    38Ag    12.497653  
      22B3u   12.497904    22B2u   12.497904    18B2g   12.497905  
      18B3g   12.497905    33B1u   12.498823    39Ag    12.498823  
      11B1g   12.498949     8Au    12.498949    19B3g   12.535242  
      19B2g   12.535242    12B1g   12.536500    40Ag    12.536639  
      41Ag    12.537729    20B2g   12.539506    20B3g   12.539506  
      42Ag    12.543180    13B1g   12.543355     9Au    12.660717  
      34B1u   12.660847    23B3u   12.661421    23B2u   12.661421  
      21B2g   12.661477    21B3g   12.661477    24B2u   12.661486  
      24B3u   12.661486    14B1g   12.661536    43Ag    12.661666  
      22B2g   12.672717    22B3g   12.672717    35B1u   12.674724  
      10Au    12.696690    36B1u   12.696883    25B3u   12.698968  
      25B2u   12.698968    26B3u   12.707389    26B2u   12.707389  
      44Ag    12.736378    37B1u   12.783948  

    Final Occupation by Irrep:
             Ag   B1g   B2g   B3g    Au   B1u   B2u   B3u 
    DOCC [    13,    2,    4,    4,    1,    9,    5,    5 ]

  @DF-RKS Final Energy: -4922.09572033551194

   => Energetics <=

    Nuclear Repulsion Energy =            476.0447317299698398
    One-Electron Energy =               -7796.5844290798395377
    Two-Electron Energy =                2514.1414611667023564
    DFT Exchange-Correlation Energy =    -115.6973907123436618
    Empirical Dispersion Energy =          -0.0000934400000000
    VV10 Nonlocal Energy =                  0.0000000000000000
    Total Energy =                      -4922.0957203355110323

Computation Completed


Properties will be evaluated at   0.000000,   0.000000,   0.000000 [a0]

Properties computed using the SCF density matrix

  Nuclear Dipole Moment: [e a0]
     X:     0.0000      Y:     0.0000      Z:    -0.0000

  Electronic Dipole Moment: [e a0]
     X:     0.0000      Y:     0.0000      Z:     0.0000

  Dipole Moment: [e a0]
     X:     0.0000      Y:     0.0000      Z:    -0.0000     Total:     0.0000

  Dipole Moment: [D]
     X:     0.0000      Y:     0.0000      Z:    -0.0000     Total:     0.0000


*** tstop() called on bp1-compute00162.data.bp.acrc.priv at Thu Oct 28 15:29:11 2021
Module time:
	user time   =      54.32 seconds =       0.91 minutes
	system time =       3.15 seconds =       0.05 minutes
	total time  =          3 seconds =       0.05 minutes
Total time:
	user time   =      54.32 seconds =       0.91 minutes
	system time =       3.15 seconds =       0.05 minutes
	total time  =          3 seconds =       0.05 minutes

    Psi4 stopped on: Thursday, 28 October 2021 03:29PM
    Psi4 wall time for execution: 0:00:03.03

*** Psi4 exiting successfully. Buy a developer a beer!
