
    -----------------------------------------------------------------------
          Psi4: An Open-Source Ab Initio Electronic Structure Package
                               Psi4 1.4.1 release

                         Git: Rev {HEAD} cd00f19 


    D. G. A. Smith, L. A. Burns, A. C. Simmonett, R. M. Parrish,
    M. C. Schieber, R. Galvelis, P. Kraus, H. Kruse, R. Di Remigio,
    A. Alenaizan, A. M. James, S. Lehtola, J. P. Misiewicz, M. Scheurer,
    R. A. Shaw, J. B. Schriber, Y. Xie, Z. L. Glick, D. A. Sirianni,
    J. S. O'Brien, J. M. Waldrop, A. Kumar, E. G. Hohenstein,
    B. P. Pritchard, B. R. Brooks, H. F. Schaefer III, A. Yu. Sokolov,
    K. Patkowski, A. E. DePrince III, U. Bozkaya, R. A. King,
    F. A. Evangelista, J. M. Turney, T. D. Crawford, C. D. Sherrill,
    J. Chem. Phys. 152(18) 184108 (2020). https://doi.org/10.1063/5.0006002

                            Additional Code Authors
    E. T. Seidl, C. L. Janssen, E. F. Valeev, M. L. Leininger,
    J. F. Gonthier, R. M. Richard, H. R. McAlexander, M. Saitow, X. Wang,
    P. Verma, and M. H. Lechner

             Previous Authors, Complete List of Code Contributors,
                       and Citations for Specific Modules
    https://github.com/psi4/psi4/blob/master/codemeta.json
    https://github.com/psi4/psi4/graphs/contributors
    http://psicode.org/psi4manual/master/introduction.html#citing-psifour

    -----------------------------------------------------------------------


    Psi4 started on: Tuesday, 02 November 2021 11:08AM

    Process ID: 26609
    Host:       compute404.bc4.acrc.priv
    PSIDATADIR: /mnt/storage/home/zw18965/.conda/envs/p4env/share/psi4
    Memory:     500.0 MiB
    Threads:    28
    
  ==> Input File <==

--------------------------------------------------------------------------
memory 144 GB

molecule {
2 1
Cu      -0.000001   -0.000007    1.488630 
Cu       0.000001   -1.403449   -0.496203 
Cu       1.215485    0.701727   -0.496214 
Cu      -1.215485    0.701729   -0.496213 
 }

set basis Def2-TZVPPD

energy("MN15-D3BJ")
--------------------------------------------------------------------------

  Memory set to 134.110 GiB by Python driver.

Scratch directory: /tmp/

*** tstart() called on compute404.bc4.acrc.priv
*** at Tue Nov  2 11:08:54 2021

   => Loading Basis Set <=

    Name: DEF2-TZVPPD
    Role: ORBITAL
    Keyword: BASIS
    atoms 1-4 entry CU         line  1290 file /mnt/storage/home/zw18965/.conda/envs/p4env/share/psi4/basis/def2-tzvppd.gbs 

   => MN15-D3(BJ): Empirical Dispersion <=

    Grimme's -D3 (BJ-damping) Dispersion Correction
    Grimme S.; Ehrlich S.; Goerigk L. (2011), J. Comput. Chem., 32: 1456
    Parametrisation from:    L. Goerigk, A. Hansen, C. Bauer, S. Ehrlich, A. Najibi, S. Grimme, Phys. Chem. Chem. Phys. 19, 32184-32215, 2017

        s6 =       1.000000
        s8 =       2.097100
        a1 =       0.786200
        a2 =       7.592300


         ---------------------------------------------------------
                                   SCF
               by Justin Turney, Rob Parrish, Andy Simmonett
                          and Daniel G. A. Smith
                              RKS Reference
                       28 Threads, 137329 MiB Core
         ---------------------------------------------------------

  ==> Geometry <==

    Molecular point group: c1
    Full point group: C1

    Geometry (in Angstrom), charge = 2, multiplicity = 1:

       Center              X                  Y                   Z               Mass       
    ------------   -----------------  -----------------  -----------------  -----------------
         CU          -0.000001000000    -0.000007000000     1.488630000000    62.929597720000
         CU           0.000001000000    -1.403449000000    -0.496203000000    62.929597720000
         CU           1.215485000000     0.701727000000    -0.496214000000    62.929597720000
         CU          -1.215485000000     0.701729000000    -0.496213000000    62.929597720000

  Running in c1 symmetry.

  Rotational constants: A =      0.04533  B =      0.04533  C =      0.04533 [cm^-1]
  Rotational constants: A =   1359.04280  B =   1359.01729  C =   1358.97410 [MHz]
  Nuclear repulsion = 1098.446239671754938

  Charge       = 2
  Multiplicity = 1
  Electrons    = 114
  Nalpha       = 57
  Nbeta        = 57

  ==> Algorithm <==

  SCF Algorithm Type is DF.
  DIIS enabled.
  MOM disabled.
  Fractional occupation disabled.
  Guess Type is SAD.
  Energy threshold   = 1.00e-06
  Density threshold  = 1.00e-06
  Integral threshold = 1.00e-12

  ==> Primary Basis <==

  Basis Set: DEF2-TZVPPD
    Blend: DEF2-TZVPPD
    Number of shells: 76
    Number of basis functions: 268
    Number of Cartesian functions: 332
    Spherical Harmonics?: true
    Max angular momentum: 4

  ==> DFT Potential <==

   => Composite Functional: MN15-D3BJ <= 

   MN15 Hybrid Meta-GGA Exchange-Correlation Functional

    H. S. Yu, X. He, S. L. Li, and D. G. Truhlar, Chem. Sci. 7, 5032-5051, 2016


    Deriv               =              1
    GGA                 =           TRUE
    Meta                =           TRUE

    Exchange Hybrid     =           TRUE
    MP2 Hybrid          =          FALSE

   => Exchange Functionals <=

    1.0000   XC_HYB_MGGA_X_MN15

   => Exact (HF) Exchange <=

    0.4400               HF 

   => Correlation Functionals <=

    1.0000   XC_MGGA_C_MN15

   => LibXC Density Thresholds  <==

    XC_MGGA_C_MN15:  1.00E-15 
    XC_HYB_MGGA_X_MN15:  1.00E-15 

   => Molecular Quadrature <=

    Radial Scheme          =       TREUTLER
    Pruning Scheme         =           NONE
    Nuclear Scheme         =       TREUTLER

    BS radius alpha        =              1
    Pruning alpha          =              1
    Radial Points          =             75
    Spherical Points       =            302
    Total Points           =          86913
    Total Blocks           =            769
    Max Points             =            256
    Max Functions          =            249
    Weights Tolerance      =       1.00E-15

   => Loading Basis Set <=

    Name: (DEF2-TZVPPD AUX)
    Role: JKFIT
    Keyword: DF_BASIS_SCF
    atoms 1-4 entry CU         line  2356 file /mnt/storage/home/zw18965/.conda/envs/p4env/share/psi4/basis/def2-universal-jkfit.gbs 

  ==> Integral Setup <==

  DFHelper Memory: AOs need 0.559 GiB; user supplied 99.613 GiB. Using in-core AOs.

  ==> MemDFJK: Density-Fitted J/K Matrices <==

    J tasked:                   Yes
    K tasked:                   Yes
    wK tasked:                   No
    OpenMP threads:              28
    Memory [MiB]:            102003
    Algorithm:                 Core
    Schwarz Cutoff:           1E-12
    Mask sparsity (%):       8.8800
    Fitting Condition:        1E-10

   => Auxiliary Basis Set <=

  Basis Set: (DEF2-TZVPPD AUX)
    Blend: DEF2-UNIVERSAL-JKFIT
    Number of shells: 232
    Number of basis functions: 1056
    Number of Cartesian functions: 1508
    Spherical Harmonics?: true
    Max angular momentum: 6

  Cached 100.0% of DFT collocation blocks in 0.970 [GiB].

  Minimum eigenvalue in the overlap matrix is 7.1201892812E-04.
  Reciprocal condition number of the overlap matrix is 9.2568595854E-05.
    Using symmetric orthogonalization.

  ==> Pre-Iterations <==

  SCF Guess: Superposition of Atomic Densities via on-the-fly atomic UHF (no occupation information).

   -------------------------
    Irrep   Nso     Nmo    
   -------------------------
     A        268     268 
   -------------------------
    Total     268     268
   -------------------------

  ==> Iterations <==

                           Total Energy        Delta E     RMS |[F,P]|

   @DF-RKS iter SAD: -6554.44895322507909   -6.55445e+03   0.00000e+00 
   @DF-RKS iter   1: -6551.75808323288493    2.69087e+00   3.11640e-02 DIIS
   @DF-RKS iter   2: -6383.19206275578472    1.68566e+02   7.48752e-02 DIIS
   @DF-RKS iter   3: -6560.66937882462389   -1.77477e+02   9.92870e-03 DIIS
   @DF-RKS iter   4: -6562.16486251689639   -1.49548e+00   5.93735e-03 DIIS
   @DF-RKS iter   5: -6562.50379681353297   -3.38934e-01   2.29423e-03 DIIS
   @DF-RKS iter   6: -6562.55083861557614   -4.70418e-02   7.81157e-04 DIIS
   @DF-RKS iter   7: -6562.55693655826963   -6.09794e-03   1.30683e-04 DIIS
   @DF-RKS iter   8: -6562.55711619323756   -1.79635e-04   2.54802e-05 DIIS
   @DF-RKS iter   9: -6562.55712848458097   -1.22913e-05   4.66713e-06 DIIS
   @DF-RKS iter  10: -6562.55712961167501   -1.12709e-06   1.67185e-06 DIIS
   @DF-RKS iter  11: -6562.55712974040853   -1.28734e-07   2.41101e-06 DIIS
   @DF-RKS iter  12: -6562.55712982246951   -8.20610e-08   8.33303e-07 DIIS
  Energy and wave function converged.


  ==> Post-Iterations <==

   Electrons on quadrature grid:
      Ntotal   =  113.9999889796 ; deviation = -1.102e-05 

    Orbital Energies [Eh]
    ---------------------

    Doubly Occupied:                                                      

       1A   -321.109731     2A   -321.109730     3A   -321.109728  
       4A   -321.109712     5A    -38.277542     6A    -38.277540  
       7A    -38.277538     8A    -38.277278     9A    -34.129659  
      10A    -34.129657    11A    -34.129654    12A    -34.129635  
      13A    -34.127047    14A    -34.127046    15A    -34.127045  
      16A    -34.127028    17A    -34.127027    18A    -34.127026  
      19A    -34.127024    20A    -34.127024    21A     -4.498572  
      22A     -4.497987    23A     -4.497985    24A     -4.497982  
      25A     -3.171641    26A     -3.169715    27A     -3.169715  
      28A     -3.169715    29A     -3.169101    30A     -3.169100  
      31A     -3.167655    32A     -3.167653    33A     -3.167653  
      34A     -3.167235    35A     -3.167234    36A     -3.167232  
      37A     -0.790209    38A     -0.766050    39A     -0.766048  
      40A     -0.766041    41A     -0.757308    42A     -0.757306  
      43A     -0.748434    44A     -0.748430    45A     -0.748427  
      46A     -0.727276    47A     -0.727275    48A     -0.727268  
      49A     -0.725076    50A     -0.725070    51A     -0.723551  
      52A     -0.723547    53A     -0.723544    54A     -0.706980  
      55A     -0.706977    56A     -0.706975    57A     -0.698159  

    Virtual:                                                              

      58A     -0.435034    59A     -0.435033    60A     -0.435030  
      61A     -0.308232    62A     -0.293284    63A     -0.293283  
      64A     -0.293279    65A     -0.289886    66A     -0.289882  
      67A     -0.157658    68A     -0.157657    69A     -0.157656  
      70A     -0.143291    71A     -0.143289    72A     -0.143288  
      73A     -0.124497    74A     -0.100462    75A     -0.100226  
      76A     -0.100224    77A     -0.098627    78A     -0.098627  
      79A     -0.098626    80A     -0.083313    81A     -0.083312  
      82A     -0.083310    83A     -0.036378    84A     -0.036376  
      85A     -0.036376    86A     -0.026858    87A     -0.026856  
      88A     -0.026853    89A      0.019787    90A      0.019790  
      91A      0.019791    92A      0.040100    93A      0.040103  
      94A      0.051300    95A      0.051302    96A      0.051303  
      97A      0.054273    98A      0.105588    99A      0.105589  
     100A      0.105591   101A      0.107454   102A      0.107457  
     103A      0.171370   104A      0.171374   105A      0.171382  
     106A      0.180616   107A      0.180619   108A      0.180621  
     109A      0.354438   110A      0.405550   111A      0.405570  
     112A      0.420018   113A      0.420030   114A      0.420042  
     115A      0.455838   116A      0.455843   117A      0.455854  
     118A      0.510224   119A      0.518316   120A      0.518317  
     121A      0.518319   122A      0.577626   123A      0.577634  
     124A      0.600800   125A      0.600802   126A      0.600818  
     127A      0.664310   128A      0.664323   129A      0.664335  
     130A      0.677821   131A      0.677826   132A      0.677834  
     133A      0.717680   134A      0.717697   135A      0.861562  
     136A      0.861571   137A      0.861579   138A      0.904190  
     139A      0.904201   140A      0.904214   141A      2.600078  
     142A      2.600116   143A      2.600123   144A      2.631142  
     145A      2.631192   146A      2.636798   147A      2.733012  
     148A      2.733030   149A      2.733035   150A      2.800214  
     151A      2.800230   152A      2.800249   153A      2.823273  
     154A      2.965594   155A      2.965604   156A      2.965606  
     157A      2.977386   158A      3.001482   159A      3.001506  
     160A      3.001765   161A      3.001774   162A      3.001811  
     163A      3.003086   164A      3.003087   165A      3.003092  
     166A      3.004672   167A      3.004674   168A      3.004706  
     169A      3.006941   170A      3.006958   171A      3.006973  
     172A      3.008589   173A      3.015032   174A      3.015045  
     175A      3.044157   176A      3.044173   177A      3.044190  
     178A      3.054894   179A      3.078027   180A      3.078041  
     181A      3.078042   182A      3.162990   183A      3.163012  
     184A      3.163035   185A      3.229226   186A      3.229236  
     187A      3.229259   188A      3.291482   189A      3.291528  
     190A      3.302327   191A      3.302360   192A      3.302376  
     193A      3.422772   194A      3.460189   195A      3.460208  
     196A      3.460221   197A      3.482290   198A      3.482319  
     199A      3.540112   200A      3.540133   201A      3.540146  
     202A      3.912682   203A      3.912700   204A      3.912745  
     205A     12.294682   206A     12.294750   207A     12.294764  
     208A     12.294802   209A     12.294835   210A     12.294844  
     211A     12.294926   212A     12.294940   213A     12.294966  
     214A     12.295091   215A     12.295127   216A     12.295231  
     217A     12.295290   218A     12.295330   219A     12.295371  
     220A     12.295381   221A     12.295395   222A     12.295530  
     223A     12.295540   224A     12.295585   225A     12.295766  
     226A     12.295826   227A     12.295889   228A     12.295930  
     229A     12.295971   230A     12.297092   231A     12.297149  
     232A     12.297167   233A     12.297179   234A     12.297189  
     235A     12.297226   236A     12.297250   237A     12.297263  
     238A     12.297411   239A     12.297470   240A     12.297484  
     241A     12.456479   242A     12.456486   243A     12.456504  
     244A     12.456510   245A     12.456519   246A     12.456545  
     247A     12.456823   248A     12.458661   249A     12.459118  
     250A     12.459122   251A     12.459125   252A     12.460462  
     253A     12.460468   254A     12.462373   255A     12.462399  
     256A     12.462414   257A     12.466110   258A     12.466135  
     259A     12.466168   260A     12.466490   261A     12.469463  
     262A     12.469476   263A     12.517280   264A     12.517297  
     265A     12.517309   266A     12.524161   267A     12.524164  
     268A     12.524184  

    Final Occupation by Irrep:
              A 
    DOCC [    57 ]

  @DF-RKS Final Energy: -6562.55712982246951

   => Energetics <=

    Nuclear Repulsion Energy =           1098.4462396717549382
    One-Electron Energy =              -11297.9372486903193931
    Two-Electron Energy =                3791.1481017178980437
    DFT Exchange-Correlation Energy =    -154.2140365818042653
    Empirical Dispersion Energy =          -0.0001859400000000
    VV10 Nonlocal Energy =                  0.0000000000000000
    Total Energy =                      -6562.5571298224704151

Computation Completed


Properties will be evaluated at   0.000000,   0.000000,   0.000000 [a0]

Properties computed using the SCF density matrix

  Nuclear Dipole Moment: [e a0]
     X:     0.0000      Y:    -0.0000      Z:     0.0000

  Electronic Dipole Moment: [e a0]
     X:     0.0000      Y:     0.0001      Z:    -0.0000

  Dipole Moment: [e a0]
     X:     0.0000      Y:     0.0001      Z:    -0.0000     Total:     0.0001

  Dipole Moment: [D]
     X:     0.0000      Y:     0.0003      Z:    -0.0001     Total:     0.0003


*** tstop() called on compute404.bc4.acrc.priv at Tue Nov  2 11:09:01 2021
Module time:
	user time   =     111.28 seconds =       1.85 minutes
	system time =       7.09 seconds =       0.12 minutes
	total time  =          7 seconds =       0.12 minutes
Total time:
	user time   =     111.28 seconds =       1.85 minutes
	system time =       7.09 seconds =       0.12 minutes
	total time  =          7 seconds =       0.12 minutes

    Psi4 stopped on: Tuesday, 02 November 2021 11:09AM
    Psi4 wall time for execution: 0:00:07.08

*** Psi4 exiting successfully. Buy a developer a beer!
