
    -----------------------------------------------------------------------
          Psi4: An Open-Source Ab Initio Electronic Structure Package
                               Psi4 1.4.1 release

                         Git: Rev {HEAD} cd00f19 


    D. G. A. Smith, L. A. Burns, A. C. Simmonett, R. M. Parrish,
    M. C. Schieber, R. Galvelis, P. Kraus, H. Kruse, R. Di Remigio,
    A. Alenaizan, A. M. James, S. Lehtola, J. P. Misiewicz, M. Scheurer,
    R. A. Shaw, J. B. Schriber, Y. Xie, Z. L. Glick, D. A. Sirianni,
    J. S. O'Brien, J. M. Waldrop, A. Kumar, E. G. Hohenstein,
    B. P. Pritchard, B. R. Brooks, H. F. Schaefer III, A. Yu. Sokolov,
    K. Patkowski, A. E. DePrince III, U. Bozkaya, R. A. King,
    F. A. Evangelista, J. M. Turney, T. D. Crawford, C. D. Sherrill,
    J. Chem. Phys. 152(18) 184108 (2020). https://doi.org/10.1063/5.0006002

                            Additional Code Authors
    E. T. Seidl, C. L. Janssen, E. F. Valeev, M. L. Leininger,
    J. F. Gonthier, R. M. Richard, H. R. McAlexander, M. Saitow, X. Wang,
    P. Verma, and M. H. Lechner

             Previous Authors, Complete List of Code Contributors,
                       and Citations for Specific Modules
    https://github.com/psi4/psi4/blob/master/codemeta.json
    https://github.com/psi4/psi4/graphs/contributors
    http://psicode.org/psi4manual/master/introduction.html#citing-psifour

    -----------------------------------------------------------------------


    Psi4 started on: Friday, 05 November 2021 11:04AM

    Process ID: 17899
    Host:       bc4login3.bc4.acrc.priv
    PSIDATADIR: /mnt/storage/home/zw18965/.conda/envs/p4env/share/psi4
    Memory:     500.0 MiB
    Threads:    12
    
  ==> Input File <==

--------------------------------------------------------------------------
memory 120 GB

molecule {
2 1
Cu       0.253817    1.375381    0.000000 
Cu       0.253817   -0.687598    1.191098 
Cu       0.253817   -0.687598   -1.191098 
Cu      -1.745352    0.000159    0.000000 
N        2.725949   -0.000959   -0.000000 
H        3.150217   -0.936878   -0.000000 
H        3.150637    0.466806   -0.810419 
H        3.150637    0.466806    0.810419 
 }

set basis Def2-TZVPPD

energy("SCF", write_orbitals="mos")
energy("MN15-D3BJ", restart_file="mos")
--------------------------------------------------------------------------

  Memory set to 111.759 GiB by Python driver.

Scratch directory: /tmp/

*** tstart() called on bc4login3.bc4.acrc.priv
*** at Fri Nov  5 11:04:27 2021

   => Loading Basis Set <=

    Name: DEF2-TZVPPD
    Role: ORBITAL
    Keyword: BASIS
    atoms 1-4 entry CU         line  1290 file /mnt/storage/home/zw18965/.conda/envs/p4env/share/psi4/basis/def2-tzvppd.gbs 
    atoms 5   entry N          line   181 file /mnt/storage/home/zw18965/.conda/envs/p4env/share/psi4/basis/def2-tzvppd.gbs 
    atoms 6-8 entry H          line    14 file /mnt/storage/home/zw18965/.conda/envs/p4env/share/psi4/basis/def2-tzvppd.gbs 


         ---------------------------------------------------------
                                   SCF
               by Justin Turney, Rob Parrish, Andy Simmonett
                          and Daniel G. A. Smith
                              RHF Reference
                       12 Threads, 114440 MiB Core
         ---------------------------------------------------------

  ==> Geometry <==

    Molecular point group: cs
    Full point group: Cs

    Geometry (in Angstrom), charge = 2, multiplicity = 1:

       Center              X                  Y                   Z               Mass       
    ------------   -----------------  -----------------  -----------------  -----------------
         CU           0.306727314614     1.375362665601     0.000000000000    62.929597720000
         CU           0.306727314614    -0.687616334399     1.191098000000    62.929597720000
         CU           0.306727314614    -0.687616334399    -1.191098000000    62.929597720000
         CU          -1.692441685386     0.000140665601     0.000000000000    62.929597720000
         N            2.778859314614    -0.000977334399     0.000000000000    14.003074004430
         H            3.203127314614    -0.936896334399     0.000000000000     1.007825032230
         H            3.203547314614     0.466787665601    -0.810419000000     1.007825032230
         H            3.203547314614     0.466787665601     0.810419000000     1.007825032230

  Running in cs symmetry.

  Rotational constants: A =      0.04686  B =      0.03260  C =      0.03260 [cm^-1]
  Rotational constants: A =   1404.79352  B =    977.43796  C =    977.41725 [MHz]
  Nuclear repulsion = 1311.373965716146131

  Charge       = 2
  Multiplicity = 1
  Electrons    = 124
  Nalpha       = 62
  Nbeta        = 62

  ==> Algorithm <==

  SCF Algorithm Type is DF.
  DIIS enabled.
  MOM disabled.
  Fractional occupation disabled.
  Guess Type is SAD.
  Energy threshold   = 1.00e-06
  Density threshold  = 1.00e-06
  Integral threshold = 1.00e-12

  ==> Primary Basis <==

  Basis Set: DEF2-TZVPPD
    Blend: DEF2-TZVPPD
    Number of shells: 110
    Number of basis functions: 356
    Number of Cartesian functions: 429
    Spherical Harmonics?: true
    Max angular momentum: 4

   => Loading Basis Set <=

    Name: (DEF2-TZVPPD AUX)
    Role: JKFIT
    Keyword: DF_BASIS_SCF
    atoms 1-4 entry CU         line  2356 file /mnt/storage/home/zw18965/.conda/envs/p4env/share/psi4/basis/def2-universal-jkfit.gbs 
    atoms 5   entry N          line   258 file /mnt/storage/home/zw18965/.conda/envs/p4env/share/psi4/basis/def2-universal-jkfit.gbs 
    atoms 6-8 entry H          line    18 file /mnt/storage/home/zw18965/.conda/envs/p4env/share/psi4/basis/def2-universal-jkfit.gbs 

  ==> Integral Setup <==

  DFHelper Memory: AOs need 1.051 GiB; user supplied 83.819 GiB. Using in-core AOs.

  ==> MemDFJK: Density-Fitted J/K Matrices <==

    J tasked:                   Yes
    K tasked:                   Yes
    wK tasked:                   No
    OpenMP threads:              12
    Memory [MiB]:             85830
    Algorithm:                 Core
    Schwarz Cutoff:           1E-12
    Mask sparsity (%):      11.4837
    Fitting Condition:        1E-10

   => Auxiliary Basis Set <=

  Basis Set: (DEF2-TZVPPD AUX)
    Blend: DEF2-UNIVERSAL-JKFIT
    Number of shells: 275
    Number of basis functions: 1187
    Number of Cartesian functions: 1661
    Spherical Harmonics?: true
    Max angular momentum: 6

  Minimum eigenvalue in the overlap matrix is 1.5828041556E-04.
  Reciprocal condition number of the overlap matrix is 1.6731804680E-05.
    Using symmetric orthogonalization.

  ==> Pre-Iterations <==

  SCF Guess: Superposition of Atomic Densities via on-the-fly atomic UHF (no occupation information).

   -------------------------
    Irrep   Nso     Nmo    
   -------------------------
     A'       207     207 
     A"       149     149 
   -------------------------
    Total     356     356
   -------------------------

  ==> Iterations <==

                           Total Energy        Delta E     RMS |[F,P]|

   @DF-RHF iter SAD: -6600.61002069999813   -6.60061e+03   0.00000e+00 
    Occupation by irrep:
             Ap   App 
    DOCC [    40,   22 ]

   @DF-RHF iter   1: -6601.97489936786315   -1.36488e+00   2.90921e-02 DIIS
    Occupation by irrep:
             Ap   App 
    DOCC [    39,   23 ]

   @DF-RHF iter   2: -6385.54355536012918    2.16431e+02   6.88727e-02 DIIS
   @DF-RHF iter   3: -6596.13608859841224   -2.10593e+02   1.84420e-02 DIIS
   @DF-RHF iter   4: -6544.26513091824927    5.18710e+01   3.23895e-02 DIIS
   @DF-RHF iter   5: -6608.06175199641166   -6.37966e+01   1.56856e-02 DIIS
   @DF-RHF iter   6: -6611.00143592442964   -2.93968e+00   4.95044e-03 DIIS
   @DF-RHF iter   7: -6611.42988909105679   -4.28453e-01   8.73027e-04 DIIS
   @DF-RHF iter   8: -6611.44389564272387   -1.40066e-02   4.76516e-04 DIIS
   @DF-RHF iter   9: -6611.44770473023345   -3.80909e-03   1.27921e-04 DIIS
   @DF-RHF iter  10: -6611.44823364192234   -5.28912e-04   9.17551e-05 DIIS
   @DF-RHF iter  11: -6611.44839182657688   -1.58185e-04   3.61739e-05 DIIS
   @DF-RHF iter  12: -6611.44842722718568   -3.54006e-05   1.05508e-05 DIIS
   @DF-RHF iter  13: -6611.44843296842100   -5.74124e-06   2.71583e-06 DIIS
   @DF-RHF iter  14: -6611.44843377929374   -8.10873e-07   1.04268e-06 DIIS
   @DF-RHF iter  15: -6611.44843386959838   -9.03046e-08   4.57137e-07 DIIS
  Energy and wave function converged.


  ==> Post-Iterations <==

    Orbital Energies [Eh]
    ---------------------

    Doubly Occupied:                                                      

       1Ap  -329.170990     1App -329.170985     2Ap  -329.170981  
       3Ap  -329.160127     4Ap   -41.196723     2App  -41.196717  
       5Ap   -41.196711     6Ap   -41.187055     3App  -35.996553  
       4App  -35.996541     7Ap   -35.996537     8Ap   -35.995824  
       5App  -35.995818     9Ap   -35.995811    10Ap   -35.995286  
       6App  -35.995281    11Ap   -35.995271    12Ap   -35.986175  
       7App  -35.986175    13Ap   -35.985431    14Ap   -15.883272  
      15Ap    -5.387860    16Ap    -5.387309     8App   -5.387305  
      17Ap    -5.376473    18Ap    -3.704625     9App   -3.702140  
      19Ap    -3.702139    20Ap    -3.700215    21Ap    -3.700056  
      10App   -3.700054    11App   -3.699522    22Ap    -3.699029  
      12App   -3.699026    23Ap    -3.689548    24Ap    -3.688218  
      13App   -3.688218    25Ap    -1.473039    14App   -0.953081  
      26Ap    -0.953077    27Ap    -0.913434    28Ap    -0.899015  
      15App   -0.890206    29Ap    -0.890200    16App   -0.883410  
      30Ap    -0.883409    31Ap    -0.877943    32Ap    -0.869633  
      17App   -0.869632    33Ap    -0.855518    18App   -0.855517  
      19App   -0.854990    34Ap    -0.849627    20App   -0.849627  
      35Ap    -0.845963    21App   -0.845963    36Ap    -0.843452  
      22App   -0.827723    23App   -0.823662    37Ap    -0.823662  
      38Ap    -0.797281    39Ap    -0.658793  

    Virtual:                                                              

      24App   -0.302824    40Ap    -0.302823    41Ap    -0.274907  
      42Ap    -0.227294    25App   -0.196501    43Ap    -0.196500  
      44Ap    -0.186062    26App   -0.186062    45Ap    -0.175663  
      46Ap    -0.138721    27App   -0.138720    47Ap    -0.135763  
      28App   -0.110334    48Ap    -0.109386    29App   -0.109380  
      49Ap    -0.101323    50Ap    -0.091036    51Ap    -0.083991  
      30App   -0.083986    31App   -0.063339    52Ap    -0.063337  
      32App   -0.056358    53Ap    -0.056351    54Ap    -0.052795  
      55Ap    -0.042270    56Ap    -0.007829    33App   -0.006837  
      57Ap    -0.006826    58Ap     0.008100    34App    0.008124  
      59Ap     0.020801    35App    0.020802    36App    0.023618  
      60Ap     0.028253    61Ap     0.030489    37App    0.030494  
      62Ap     0.066511    38App    0.069536    63Ap     0.069538  
      39App    0.072009    64Ap     0.099696    40App    0.099700  
      65Ap     0.106060    66Ap     0.115409    67Ap     0.127665  
      41App    0.127666    68Ap     0.132621    42App    0.136925  
      69Ap     0.136932    43App    0.159218    70Ap     0.159222  
      44App    0.177780    71Ap     0.181510    45App    0.182198  
      72Ap     0.182208    73Ap     0.217475    46App    0.217486  
      74Ap     0.245089    75Ap     0.254169    47App    0.254182  
      48App    0.264173    76Ap     0.291308    49App    0.291333  
      77Ap     0.297531    50App    0.302026    78Ap     0.302048  
      79Ap     0.355358    80Ap     0.355475    51App    0.355544  
      81Ap     0.426239    52App    0.565408    82Ap     0.565423  
      83Ap     0.581738    84Ap     0.591006    85Ap     0.598175  
      53App    0.598227    54App    0.610434    86Ap     0.610442  
      87Ap     0.639446    55App    0.663747    88Ap     0.663772  
      89Ap     0.692215    90Ap     0.709627    56App    0.709627  
      91Ap     0.714811    57App    0.720719    92Ap     0.720742  
      93Ap     0.750504    58App    0.779097    94Ap     0.803863  
      59App    0.803867    60App    0.824871    95Ap     0.824927  
      96Ap     0.845193    61App    0.886960    97Ap     0.899149  
      62App    0.899194    63App    0.925751    98Ap     0.925758  
      99Ap     0.945150    64App    0.968242   100Ap     0.968258  
      65App    0.977972    66App    1.060659   101Ap     1.060680  
     102Ap     1.103763   103Ap     1.127496    67App    1.127536  
      68App    1.148911   104Ap     1.148917    69App    1.159066  
      70App    1.184342   105Ap     1.184346   106Ap     1.211826  
     107Ap     1.231727    71App    1.231804   108Ap     1.409039  
     109Ap     1.555491    72App    1.555514   110Ap     1.634296  
      73App    1.773898   111Ap     1.773928   112Ap     2.450117  
     113Ap     2.612684   114Ap     2.636073    74App    2.636085  
     115Ap     2.828283   116Ap     2.993812    75App    2.993832  
     117Ap     3.040743   118Ap     3.147384    76App    3.147386  
     119Ap     3.178885   120Ap     3.207434    77App    3.207448  
      78App    3.224063   121Ap     3.229538    79App    3.229546  
     122Ap     3.253089    80App    3.305603   123Ap     3.305635  
      81App    3.315174   124Ap     3.315178    82App    3.317409  
     125Ap     3.340299   126Ap     3.362914    83App    3.362954  
     127Ap     3.419510    84App    3.446330   128Ap     3.446331  
     129Ap     3.455431   130Ap     3.465957    85App    3.465959  
      86App    3.467071    87App    3.474623    88App    3.477658  
     131Ap     3.477660   132Ap     3.480377    89App    3.480381  
      90App    3.483460    91App    3.483923   133Ap     3.483936  
     134Ap     3.486933   135Ap     3.488696    92App    3.488700  
     136Ap     3.491675    93App    3.502148   137Ap     3.506994  
      94App    3.506995    95App    3.530785   138Ap     3.530828  
     139Ap     3.554519   140Ap     3.591278    96App    3.591322  
     141Ap     3.605988   142Ap     3.616040    97App    3.634085  
      98App    3.639543   143Ap     3.639554   144Ap     3.794407  
     145Ap     3.818681    99App    3.818710   146Ap     3.869713  
     100App    3.881014   147Ap     3.881014   148Ap     3.894097  
     101App    3.894159   102App    3.943274   103App    3.947110  
     149Ap     3.947122   150Ap     3.990585   104App    4.004558  
     151Ap     4.004597   105App    4.033975   152Ap     4.033980  
     106App    4.111192   153Ap     4.111223   154Ap     4.114212  
     107App    4.125361   155Ap     4.140588   108App    4.140614  
     156Ap     4.146615   157Ap     4.158692   109App    4.158760  
     158Ap     4.277497   159Ap     4.279428   110App    4.279584  
     111App    4.358548   112App    4.533669   160Ap     4.533680  
     161Ap     4.559847   162Ap     4.609226   113App    4.609270  
     163Ap     4.619903   164Ap     4.797977   165Ap     5.027895  
     114App    5.027921   115App    5.251773   166Ap     5.251779  
     167Ap     5.312263   168Ap     5.581099   116App    5.861321  
     169Ap     5.955299   117App    5.955330   170Ap     6.104688  
     118App    6.104729   171Ap     6.546266   119App    6.809067  
     172Ap     6.809076   120App   13.404049   173Ap    13.404106  
     174Ap    13.404558   121App   13.404560   122App   13.404749  
     175Ap    13.404750   176Ap    13.404928   123App   13.404931  
     124App   13.404960   125App   13.405237   177Ap    13.405239  
     178Ap    13.405270   126App   13.405609   179Ap    13.405781  
     127App   13.405784   180Ap    13.405866   128App   13.405974  
     181Ap    13.405976   129App   13.406205   182Ap    13.406208  
     130App   13.406338   183Ap    13.406751   131App   13.406754  
     184Ap    13.407202   185Ap    13.407591   132App   13.407592  
     186Ap    13.408887   187Ap    13.417384   133App   13.417487  
     188Ap    13.417487   134App   13.417586   189Ap    13.417895  
     135App   13.417895   190Ap    13.418021   136App   13.418872  
     191Ap    13.418872   137App   13.657370   192Ap    13.658708  
     138App   13.659721   193Ap    13.659722   139App   13.660937  
     194Ap    13.660942   140App   13.662674   195Ap    13.664538  
     141App   13.664546   196Ap    13.667101   197Ap    13.667871  
     142App   13.667873   143App   13.669397   198Ap    13.669405  
     144App   13.671174   199Ap    13.671901   145App   13.673100  
     200Ap    13.673100   201Ap    13.678231   202Ap    13.679340  
     146App   13.679343   203Ap    13.689357   147App   13.732737  
     204Ap    13.732754   205Ap    13.737494   148App   13.737575  
     149App   13.748367   206Ap    13.748377   207Ap    33.792780  

    Final Occupation by Irrep:
             Ap   App 
    DOCC [    39,   23 ]

  @DF-RHF Final Energy: -6611.44843386959838

   => Energetics <=

    Nuclear Repulsion Energy =           1311.3739657161461309
    One-Electron Energy =              -11811.1380649498787534
    Two-Electron Energy =                3888.3156653641344747
    Total Energy =                      -6611.4484338695983752

Computation Completed


Properties will be evaluated at   0.000000,   0.000000,   0.000000 [a0]

Properties computed using the SCF density matrix

  Nuclear Dipole Moment: [e a0]
     X:    12.5982      Y:    -0.0044      Z:    -0.0000

  Electronic Dipole Moment: [e a0]
     X:   -11.2198      Y:     0.0040      Z:     0.0000

  Dipole Moment: [e a0]
     X:     1.3785      Y:    -0.0004      Z:    -0.0000     Total:     1.3785

  Dipole Moment: [D]
     X:     3.5037      Y:    -0.0010      Z:    -0.0000     Total:     3.5037


*** tstop() called on bc4login3.bc4.acrc.priv at Fri Nov  5 11:04:34 2021
Module time:
	user time   =      92.65 seconds =       1.54 minutes
	system time =       7.05 seconds =       0.12 minutes
	total time  =          7 seconds =       0.12 minutes
Total time:
	user time   =      92.65 seconds =       1.54 minutes
	system time =       7.05 seconds =       0.12 minutes
	total time  =          7 seconds =       0.12 minutes

Scratch directory: /tmp/
 Found user provided orbital data. Setting orbital guess to READ 
 Copying restart file <mos.npy> to </tmp/Cu04C2_NH3_F.default.17899.180.npy> for internal processing

*** tstart() called on bc4login3.bc4.acrc.priv
*** at Fri Nov  5 11:04:34 2021

   => Loading Basis Set <=

    Name: DEF2-TZVPPD
    Role: ORBITAL
    Keyword: BASIS
    atoms 1-4 entry CU         line  1290 file /mnt/storage/home/zw18965/.conda/envs/p4env/share/psi4/basis/def2-tzvppd.gbs 
    atoms 5   entry N          line   181 file /mnt/storage/home/zw18965/.conda/envs/p4env/share/psi4/basis/def2-tzvppd.gbs 
    atoms 6-8 entry H          line    14 file /mnt/storage/home/zw18965/.conda/envs/p4env/share/psi4/basis/def2-tzvppd.gbs 

   => MN15-D3(BJ): Empirical Dispersion <=

    Grimme's -D3 (BJ-damping) Dispersion Correction
    Grimme S.; Ehrlich S.; Goerigk L. (2011), J. Comput. Chem., 32: 1456
    Parametrisation from:    L. Goerigk, A. Hansen, C. Bauer, S. Ehrlich, A. Najibi, S. Grimme, Phys. Chem. Chem. Phys. 19, 32184-32215, 2017

        s6 =       1.000000
        s8 =       2.097100
        a1 =       0.786200
        a2 =       7.592300


         ---------------------------------------------------------
                                   SCF
               by Justin Turney, Rob Parrish, Andy Simmonett
                          and Daniel G. A. Smith
                              RKS Reference
                       12 Threads, 114440 MiB Core
         ---------------------------------------------------------

  ==> Geometry <==

    Molecular point group: cs
    Full point group: Cs

    Geometry (in Angstrom), charge = 2, multiplicity = 1:

       Center              X                  Y                   Z               Mass       
    ------------   -----------------  -----------------  -----------------  -----------------
         CU           0.306727314614     1.375362665601     0.000000000000    62.929597720000
         CU           0.306727314614    -0.687616334399     1.191098000000    62.929597720000
         CU           0.306727314614    -0.687616334399    -1.191098000000    62.929597720000
         CU          -1.692441685386     0.000140665601     0.000000000000    62.929597720000
         N            2.778859314614    -0.000977334399     0.000000000000    14.003074004430
         H            3.203127314614    -0.936896334399     0.000000000000     1.007825032230
         H            3.203547314614     0.466787665601    -0.810419000000     1.007825032230
         H            3.203547314614     0.466787665601     0.810419000000     1.007825032230

  Running in cs symmetry.

  Rotational constants: A =      0.04686  B =      0.03260  C =      0.03260 [cm^-1]
  Rotational constants: A =   1404.79352  B =    977.43796  C =    977.41725 [MHz]
  Nuclear repulsion = 1311.373965716146131

  Charge       = 2
  Multiplicity = 1
  Electrons    = 124
  Nalpha       = 62
  Nbeta        = 62

  ==> Algorithm <==

  SCF Algorithm Type is DF.
  DIIS enabled.
  MOM disabled.
  Fractional occupation disabled.
  Guess Type is READ.
  Energy threshold   = 1.00e-06
  Density threshold  = 1.00e-06
  Integral threshold = 1.00e-12

  ==> Primary Basis <==

  Basis Set: DEF2-TZVPPD
    Blend: DEF2-TZVPPD
    Number of shells: 110
    Number of basis functions: 356
    Number of Cartesian functions: 429
    Spherical Harmonics?: true
    Max angular momentum: 4

  ==> DFT Potential <==

   => Composite Functional: MN15-D3BJ <= 

   MN15 Hybrid Meta-GGA Exchange-Correlation Functional

    H. S. Yu, X. He, S. L. Li, and D. G. Truhlar, Chem. Sci. 7, 5032-5051, 2016


    Deriv               =              1
    GGA                 =           TRUE
    Meta                =           TRUE

    Exchange Hybrid     =           TRUE
    MP2 Hybrid          =          FALSE

   => Exchange Functionals <=

    1.0000   XC_HYB_MGGA_X_MN15

   => Exact (HF) Exchange <=

    0.4400               HF 

   => Correlation Functionals <=

    1.0000   XC_MGGA_C_MN15

   => LibXC Density Thresholds  <==

    XC_MGGA_C_MN15:  1.00E-15 
    XC_HYB_MGGA_X_MN15:  1.00E-15 

   => Molecular Quadrature <=

    Radial Scheme          =       TREUTLER
    Pruning Scheme         =           NONE
    Nuclear Scheme         =       TREUTLER

    BS radius alpha        =              1
    Pruning alpha          =              1
    Radial Points          =             75
    Spherical Points       =            302
    Total Points           =         172119
    Total Blocks           =           1390
    Max Points             =            256
    Max Functions          =            309
    Weights Tolerance      =       1.00E-15

   => Loading Basis Set <=

    Name: (DEF2-TZVPPD AUX)
    Role: JKFIT
    Keyword: DF_BASIS_SCF
    atoms 1-4 entry CU         line  2356 file /mnt/storage/home/zw18965/.conda/envs/p4env/share/psi4/basis/def2-universal-jkfit.gbs 
    atoms 5   entry N          line   258 file /mnt/storage/home/zw18965/.conda/envs/p4env/share/psi4/basis/def2-universal-jkfit.gbs 
    atoms 6-8 entry H          line    18 file /mnt/storage/home/zw18965/.conda/envs/p4env/share/psi4/basis/def2-universal-jkfit.gbs 

   => Loading Basis Set <=

    Name: DEF2-TZVPPD
    Role: ORBITAL
    Keyword: BASIS
    atoms 1-4 entry CU         line  1290 file /mnt/storage/home/zw18965/.conda/envs/p4env/share/psi4/basis/def2-tzvppd.gbs 
    atoms 5   entry N          line   181 file /mnt/storage/home/zw18965/.conda/envs/p4env/share/psi4/basis/def2-tzvppd.gbs 
    atoms 6-8 entry H          line    14 file /mnt/storage/home/zw18965/.conda/envs/p4env/share/psi4/basis/def2-tzvppd.gbs 

  Reading orbitals from file /tmp/Cu04C2_NH3_F.default.17899.180.npy, no projection.

  ==> Integral Setup <==

  DFHelper Memory: AOs need 1.051 GiB; user supplied 81.382 GiB. Using in-core AOs.

  ==> MemDFJK: Density-Fitted J/K Matrices <==

    J tasked:                   Yes
    K tasked:                   Yes
    wK tasked:                   No
    OpenMP threads:              12
    Memory [MiB]:             83335
    Algorithm:                 Core
    Schwarz Cutoff:           1E-12
    Mask sparsity (%):      11.4837
    Fitting Condition:        1E-10

   => Auxiliary Basis Set <=

  Basis Set: (DEF2-TZVPPD AUX)
    Blend: DEF2-UNIVERSAL-JKFIT
    Number of shells: 275
    Number of basis functions: 1187
    Number of Cartesian functions: 1661
    Spherical Harmonics?: true
    Max angular momentum: 6

  Cached 100.0% of DFT collocation blocks in 2.437 [GiB].

  Minimum eigenvalue in the overlap matrix is 1.5828041556E-04.
  Reciprocal condition number of the overlap matrix is 1.6731804680E-05.
    Using symmetric orthogonalization.

  ==> Pre-Iterations <==

  SCF Guess: Orbitals guess was supplied from a previous computation.

   -------------------------------------------------------
    Irrep   Nso     Nmo     Nalpha   Nbeta   Ndocc  Nsocc
   -------------------------------------------------------
     A'       207     207      39      39      39       0
     A"       149     149      23      23      23       0
   -------------------------------------------------------
    Total     356     356      62      62      62       0
   -------------------------------------------------------

  ==> Iterations <==

                           Total Energy        Delta E     RMS |[F,P]|

   @DF-RKS iter   0: -6618.95655173342311   -6.61896e+03   5.29866e-03 
   @DF-RKS iter   1: -6619.02026020592621   -6.37085e-02   3.28591e-03 DIIS
   @DF-RKS iter   2: -6618.58048400179541    4.39776e-01   7.79572e-03 DIIS
   @DF-RKS iter   3: -6619.12373938429209   -5.43255e-01   2.70218e-04 DIIS
   @DF-RKS iter   4: -6619.12451674429303   -7.77360e-04   8.21437e-05 DIIS
   @DF-RKS iter   5: -6619.12457429167080   -5.75474e-05   3.02808e-05 DIIS
   @DF-RKS iter   6: -6619.12458417677590   -9.88511e-06   6.70828e-06 DIIS
   @DF-RKS iter   7: -6619.12458521626104   -1.03949e-06   1.52356e-06 DIIS
   @DF-RKS iter   8: -6619.12458534545840   -1.29197e-07   5.48606e-07 DIIS
  Energy and wave function converged.


  ==> Post-Iterations <==

   Electrons on quadrature grid:
      Ntotal   =  123.9999950902 ; deviation = -4.910e-06 

    Orbital Energies [Eh]
    ---------------------

    Doubly Occupied:                                                      

       1Ap  -321.076598     1App -321.076595     2Ap  -321.076586  
       3Ap  -321.068629     4Ap   -38.244672     2App  -38.244667  
       5Ap   -38.244529     6Ap   -38.237541     7Ap   -34.096397  
       3App  -34.096391     8Ap   -34.096381     4App  -34.094862  
       5App  -34.094844     9Ap   -34.094841    10Ap   -34.093527  
       6App  -34.093521    11Ap   -34.093515    12Ap   -34.089444  
      13Ap   -34.086896     7App  -34.086896    14Ap   -14.433454  
      15Ap    -4.465846    16Ap    -4.465238     8App   -4.465234  
      17Ap    -4.457414    18Ap    -3.138921     9App   -3.138072  
      19Ap    -3.138070    10App   -3.136129    20Ap    -3.135025  
      11App   -3.135023    21Ap    -3.134856    22Ap    -3.133942  
      12App   -3.133937    23Ap    -3.128034    13App   -3.127016  
      24Ap    -3.127016    25Ap    -1.238158    14App   -0.838423  
      26Ap    -0.838418    27Ap    -0.759888    28Ap    -0.746102  
      29Ap    -0.732730    15App   -0.732729    16App   -0.723862  
      30Ap    -0.723860    31Ap    -0.722197    17App   -0.712000  
      32Ap    -0.711998    33Ap    -0.707928    18App   -0.693400  
      19App   -0.693048    34Ap    -0.693044    35Ap    -0.690567  
      20App   -0.690558    21App   -0.687738    36Ap    -0.687735  
      37Ap    -0.681751    22App   -0.673174    38Ap    -0.670723  
      23App   -0.670720    39Ap    -0.629881  

    Virtual:                                                              

      40Ap    -0.408866    24App   -0.408866    41Ap    -0.382020  
      42Ap    -0.291072    25App   -0.274996    43Ap    -0.274993  
      44Ap    -0.267713    26App   -0.267705    45Ap    -0.250001  
      46Ap    -0.187140    47Ap    -0.157621    27App   -0.157617  
      48Ap    -0.137028    28App   -0.137015    29App   -0.127536  
      49Ap    -0.127527    30App   -0.127259    50Ap    -0.126209  
      51Ap    -0.111516    31App   -0.092717    52Ap    -0.092711  
      32App   -0.089232    53Ap    -0.089230    54Ap    -0.083163  
      55Ap    -0.081591    33App   -0.056739    56Ap    -0.056732  
      57Ap    -0.052836    58Ap    -0.028808    34App   -0.028786  
      35App   -0.024303    59Ap    -0.021788    36App   -0.021786  
      60Ap    -0.011267    37App   -0.011259    61Ap    -0.002137  
      62Ap     0.022412    38App    0.042916    63Ap     0.042917  
      39App    0.048450    64Ap     0.057746    65Ap     0.064101  
      40App    0.064103    66Ap     0.066741    67Ap     0.081895  
      41App    0.081904    68Ap     0.083423    42App    0.096418  
      69Ap     0.096418    43App    0.120018    70Ap     0.120024  
      71Ap     0.124019    44App    0.124027    72Ap     0.144897  
      45App    0.160749    73Ap     0.169049    46App    0.169055  
      74Ap     0.184959    75Ap     0.195681    47App    0.195683  
      48App    0.204595    76Ap     0.210062    77Ap     0.217791  
      49App    0.217813    78Ap     0.234598    50App    0.234631  
      79Ap     0.261157    51App    0.261209    80Ap     0.283015  
      81Ap     0.297070    52App    0.442825    82Ap     0.442846  
      83Ap     0.464338    84Ap     0.467929    53App    0.467958  
      85Ap     0.474512    86Ap     0.484669    54App    0.484690  
      87Ap     0.505506    55App    0.523605    88Ap     0.523650  
      89Ap     0.545675    56App    0.559408    90Ap     0.559411  
      91Ap     0.580094    57App    0.580101    92Ap     0.581365  
      93Ap     0.593262    94Ap     0.631091    58App    0.631112  
      59App    0.646249    95Ap     0.668734    60App    0.675095  
      96Ap     0.675143    61App    0.703812    97Ap     0.723672  
      62App    0.723740    98Ap     0.736039    63App    0.736044  
      99Ap     0.777805    64App    0.777834   100Ap     0.779794  
      65App    0.830196    66App    0.883287   101Ap     0.883302  
     102Ap     0.893374    67App    0.941957   103Ap     0.949320  
      68App    0.949332    69App    0.954248   104Ap     0.954259  
     105Ap     0.977966   106Ap     1.009952    70App    1.009986  
     107Ap     1.038982    71App    1.039067   108Ap     1.247739  
     109Ap     1.352506    72App    1.352515   110Ap     1.421760  
     111Ap     1.549501    73App    1.549521   112Ap     2.124271  
     113Ap     2.257224    74App    2.308468   114Ap     2.308558  
     115Ap     2.459562    75App    2.617871   116Ap     2.617929  
      76App    2.658481   117Ap     2.658521   118Ap     2.674615  
     119Ap     2.709619   120Ap     2.723540    77App    2.723588  
     121Ap     2.741389   122Ap     2.753008    78App    2.753060  
      79App    2.821700   123Ap     2.844194    80App    2.844210  
     124Ap     2.869463    81App    2.881655    82App    2.928278  
     125Ap     2.928291   126Ap     2.969561   127Ap     2.983101  
      83App    2.983150    84App    3.003082   128Ap     3.003085  
     129Ap     3.011521    85App    3.035108   130Ap     3.035134  
      86App    3.036677    87App    3.041468   131Ap     3.041477  
      88App    3.041498   132Ap     3.044381    89App    3.044388  
     133Ap     3.045779    90App    3.047792   134Ap     3.050049  
     135Ap     3.050557    91App    3.050568   136Ap     3.053198  
      92App    3.053231    93App    3.062148   137Ap     3.062169  
      94App    3.097515   138Ap     3.097601    95App    3.097617  
     139Ap     3.105215    96App    3.129977   140Ap     3.132926  
      97App    3.132965   141Ap     3.150406   142Ap     3.154093  
      98App    3.154144   143Ap     3.158904   144Ap     3.216077  
     145Ap     3.242592    99App    3.242609   100App    3.293115  
     146Ap     3.293122   101App    3.340482   147Ap     3.346297  
     102App    3.346367   148Ap     3.358744   149Ap     3.388353  
     103App    3.388375   150Ap     3.492342   151Ap     3.494686  
     104App    3.494741   105App    3.529489   152Ap     3.529506  
     153Ap     3.540561   106App    3.572876   154Ap     3.572943  
     155Ap     3.576881   107App    3.578263   156Ap     3.582823  
     108App    3.582929   157Ap     3.676309   109App    3.676361  
     158Ap     3.823527   159Ap     3.846035   110App    3.846156  
     160Ap     3.987517   111App    4.017103   161Ap     4.046133  
     112App    4.046166   162Ap     4.131742   113App    4.131781  
     163Ap     4.199259   164Ap     4.319068   114App    4.488394  
     165Ap     4.488395   115App    4.779928   166Ap     4.779995  
     167Ap     4.825989   168Ap     5.057461   116App    5.308633  
     117App    5.412483   169Ap     5.412526   170Ap     5.506985  
     118App    5.507300   171Ap     5.914275   172Ap     6.161383  
     119App    6.161553   173Ap    12.326308   120App   12.326508  
     121App   12.326754   174Ap    12.326759   175Ap    12.327243  
     122App   12.327299   176Ap    12.327944   123App   12.327998  
     124App   12.328118   177Ap    12.328295   125App   12.328415  
     126App   12.328553   178Ap    12.328580   127App   12.328819  
     179Ap    12.328828   128App   12.329243   180Ap    12.329256  
     181Ap    12.329367   129App   12.329829   182Ap    12.329963  
     130App   12.330261   183Ap    12.330350   131App   12.330428  
     132App   12.330554   184Ap    12.330573   185Ap    12.330870  
     186Ap    12.331419   187Ap    12.336518   133App   12.336677  
     188Ap    12.336757   134App   12.336916   189Ap    12.337416  
     135App   12.337609   190Ap    12.337665   136App   12.338982  
     191Ap    12.338985   192Ap    12.489449   137App   12.489475  
     193Ap    12.491755   138App   12.491803   194Ap    12.493089  
     139App   12.493092   140App   12.494335   195Ap    12.495576  
     141App   12.495606   196Ap    12.497924   142App   12.497933  
     197Ap    12.498149   198Ap    12.500549   143App   12.500583  
     144App   12.501210   199Ap    12.502518   145App   12.503456  
     200Ap    12.503466   201Ap    12.506739   146App   12.508025  
     202Ap    12.508044   203Ap    12.520875   204Ap    12.558319  
     147App   12.558367   148App   12.563464   205Ap    12.564437  
     206Ap    12.573774   149App   12.573803   207Ap    31.156717  

    Final Occupation by Irrep:
             Ap   App 
    DOCC [    39,   23 ]

  @DF-RKS Final Energy: -6619.12458534545840

   => Energetics <=

    Nuclear Repulsion Energy =           1311.3739657161461309
    One-Electron Energy =              -11800.1556427100149449
    Two-Electron Energy =                4028.4656036244300594
    DFT Exchange-Correlation Energy =    -158.8081054160195720
    Empirical Dispersion Energy =          -0.0004065600000000
    VV10 Nonlocal Energy =                  0.0000000000000000
    Total Energy =                      -6619.1245853454574899

Computation Completed


Properties will be evaluated at   0.000000,   0.000000,   0.000000 [a0]

Properties computed using the SCF density matrix

  Nuclear Dipole Moment: [e a0]
     X:    12.5982      Y:    -0.0044      Z:    -0.0000

  Electronic Dipole Moment: [e a0]
     X:   -11.0330      Y:     0.0039      Z:     0.0000

  Dipole Moment: [e a0]
     X:     1.5653      Y:    -0.0005      Z:    -0.0000     Total:     1.5653

  Dipole Moment: [D]
     X:     3.9785      Y:    -0.0012      Z:    -0.0000     Total:     3.9785


*** tstop() called on bc4login3.bc4.acrc.priv at Fri Nov  5 11:04:45 2021
Module time:
	user time   =     151.03 seconds =       2.52 minutes
	system time =      11.26 seconds =       0.19 minutes
	total time  =         11 seconds =       0.18 minutes
Total time:
	user time   =     243.91 seconds =       4.07 minutes
	system time =      18.32 seconds =       0.31 minutes
	total time  =         18 seconds =       0.30 minutes

    Psi4 stopped on: Friday, 05 November 2021 11:04AM
    Psi4 wall time for execution: 0:00:17.50

*** Psi4 exiting successfully. Buy a developer a beer!
