
    -----------------------------------------------------------------------
          Psi4: An Open-Source Ab Initio Electronic Structure Package
                               Psi4 1.4.1 release

                         Git: Rev {HEAD} cd00f19 


    D. G. A. Smith, L. A. Burns, A. C. Simmonett, R. M. Parrish,
    M. C. Schieber, R. Galvelis, P. Kraus, H. Kruse, R. Di Remigio,
    A. Alenaizan, A. M. James, S. Lehtola, J. P. Misiewicz, M. Scheurer,
    R. A. Shaw, J. B. Schriber, Y. Xie, Z. L. Glick, D. A. Sirianni,
    J. S. O'Brien, J. M. Waldrop, A. Kumar, E. G. Hohenstein,
    B. P. Pritchard, B. R. Brooks, H. F. Schaefer III, A. Yu. Sokolov,
    K. Patkowski, A. E. DePrince III, U. Bozkaya, R. A. King,
    F. A. Evangelista, J. M. Turney, T. D. Crawford, C. D. Sherrill,
    J. Chem. Phys. 152(18) 184108 (2020). https://doi.org/10.1063/5.0006002

                            Additional Code Authors
    E. T. Seidl, C. L. Janssen, E. F. Valeev, M. L. Leininger,
    J. F. Gonthier, R. M. Richard, H. R. McAlexander, M. Saitow, X. Wang,
    P. Verma, and M. H. Lechner

             Previous Authors, Complete List of Code Contributors,
                       and Citations for Specific Modules
    https://github.com/psi4/psi4/blob/master/codemeta.json
    https://github.com/psi4/psi4/graphs/contributors
    http://psicode.org/psi4manual/master/introduction.html#citing-psifour

    -----------------------------------------------------------------------


    Psi4 started on: Tuesday, 02 November 2021 02:09PM

    Process ID: 16517
    Host:       bc4login1.bc4.acrc.priv
    PSIDATADIR: /mnt/storage/home/zw18965/.conda/envs/p4env/share/psi4
    Memory:     500.0 MiB
    Threads:    12
    
  ==> Input File <==

--------------------------------------------------------------------------
memory 144 GB

molecule {
0 1
N       -0.000000    0.125670    0.000000 
H       -0.933163   -0.293418    0.000000 
H        0.466582   -0.293138    0.808252 
H        0.466582   -0.293138   -0.808252 
 }

set basis Def2-TZVPPD

energy("MN15-D3BJ")
--------------------------------------------------------------------------

  Memory set to 134.110 GiB by Python driver.

Scratch directory: /tmp/

*** tstart() called on bc4login1.bc4.acrc.priv
*** at Tue Nov  2 14:09:26 2021

   => Loading Basis Set <=

    Name: DEF2-TZVPPD
    Role: ORBITAL
    Keyword: BASIS
    atoms 1   entry N          line   181 file /mnt/storage/home/zw18965/.conda/envs/p4env/share/psi4/basis/def2-tzvppd.gbs 
    atoms 2-4 entry H          line    14 file /mnt/storage/home/zw18965/.conda/envs/p4env/share/psi4/basis/def2-tzvppd.gbs 

   => MN15-D3(BJ): Empirical Dispersion <=

    Grimme's -D3 (BJ-damping) Dispersion Correction
    Grimme S.; Ehrlich S.; Goerigk L. (2011), J. Comput. Chem., 32: 1456
    Parametrisation from:    L. Goerigk, A. Hansen, C. Bauer, S. Ehrlich, A. Najibi, S. Grimme, Phys. Chem. Chem. Phys. 19, 32184-32215, 2017

        s6 =       1.000000
        s8 =       2.097100
        a1 =       0.786200
        a2 =       7.592300


         ---------------------------------------------------------
                                   SCF
               by Justin Turney, Rob Parrish, Andy Simmonett
                          and Daniel G. A. Smith
                              RKS Reference
                       12 Threads, 137329 MiB Core
         ---------------------------------------------------------

  ==> Geometry <==

    Molecular point group: cs
    Full point group: Cs

    Geometry (in Angstrom), charge = 0, multiplicity = 1:

       Center              X                  Y                   Z               Mass       
    ------------   -----------------  -----------------  -----------------  -----------------
         N           -0.000000059191     0.074386050971     0.000000000000    14.003074004430
         H           -0.933163059191    -0.344701949029     0.000000000000     1.007825032230
         H            0.466581940809    -0.344421949029     0.808252000000     1.007825032230
         H            0.466581940809    -0.344421949029    -0.808252000000     1.007825032230

  Running in cs symmetry.

  Rotational constants: A =      9.61780  B =      9.61585  C =      6.40201 [cm^-1]
  Rotational constants: A = 288334.35503  B = 288276.04109  C = 191927.39317 [MHz]
  Nuclear repulsion =   11.845742920749892

  Charge       = 0
  Multiplicity = 1
  Electrons    = 10
  Nalpha       = 5
  Nbeta        = 5

  ==> Algorithm <==

  SCF Algorithm Type is DF.
  DIIS enabled.
  MOM disabled.
  Fractional occupation disabled.
  Guess Type is SAD.
  Energy threshold   = 1.00e-06
  Density threshold  = 1.00e-06
  Integral threshold = 1.00e-12

  ==> Primary Basis <==

  Basis Set: DEF2-TZVPPD
    Blend: DEF2-TZVPPD
    Number of shells: 34
    Number of basis functions: 88
    Number of Cartesian functions: 97
    Spherical Harmonics?: true
    Max angular momentum: 3

  ==> DFT Potential <==

   => Composite Functional: MN15-D3BJ <= 

   MN15 Hybrid Meta-GGA Exchange-Correlation Functional

    H. S. Yu, X. He, S. L. Li, and D. G. Truhlar, Chem. Sci. 7, 5032-5051, 2016


    Deriv               =              1
    GGA                 =           TRUE
    Meta                =           TRUE

    Exchange Hybrid     =           TRUE
    MP2 Hybrid          =          FALSE

   => Exchange Functionals <=

    1.0000   XC_HYB_MGGA_X_MN15

   => Exact (HF) Exchange <=

    0.4400               HF 

   => Correlation Functionals <=

    1.0000   XC_MGGA_C_MN15

   => LibXC Density Thresholds  <==

    XC_MGGA_C_MN15:  1.00E-15 
    XC_HYB_MGGA_X_MN15:  1.00E-15 

   => Molecular Quadrature <=

    Radial Scheme          =       TREUTLER
    Pruning Scheme         =           NONE
    Nuclear Scheme         =       TREUTLER

    BS radius alpha        =              1
    Pruning alpha          =              1
    Radial Points          =             75
    Spherical Points       =            302
    Total Points           =          88342
    Total Blocks           =            714
    Max Points             =            255
    Max Functions          =             88
    Weights Tolerance      =       1.00E-15

   => Loading Basis Set <=

    Name: (DEF2-TZVPPD AUX)
    Role: JKFIT
    Keyword: DF_BASIS_SCF
    atoms 1   entry N          line   258 file /mnt/storage/home/zw18965/.conda/envs/p4env/share/psi4/basis/def2-universal-jkfit.gbs 
    atoms 2-4 entry H          line    18 file /mnt/storage/home/zw18965/.conda/envs/p4env/share/psi4/basis/def2-universal-jkfit.gbs 

  ==> Integral Setup <==

  DFHelper Memory: AOs need 0.010 GiB; user supplied 100.032 GiB. Using in-core AOs.

  ==> MemDFJK: Density-Fitted J/K Matrices <==

    J tasked:                   Yes
    K tasked:                   Yes
    wK tasked:                   No
    OpenMP threads:              12
    Memory [MiB]:            102432
    Algorithm:                 Core
    Schwarz Cutoff:           1E-12
    Mask sparsity (%):       0.0000
    Fitting Condition:        1E-10

   => Auxiliary Basis Set <=

  Basis Set: (DEF2-TZVPPD AUX)
    Blend: DEF2-UNIVERSAL-JKFIT
    Number of shells: 43
    Number of basis functions: 131
    Number of Cartesian functions: 153
    Spherical Harmonics?: true
    Max angular momentum: 4

  Cached 100.0% of DFT collocation blocks in 0.551 [GiB].

  Minimum eigenvalue in the overlap matrix is 3.4469453826E-04.
  Reciprocal condition number of the overlap matrix is 4.7324818716E-05.
    Using symmetric orthogonalization.

  ==> Pre-Iterations <==

  SCF Guess: Superposition of Atomic Densities via on-the-fly atomic UHF (no occupation information).

   -------------------------
    Irrep   Nso     Nmo    
   -------------------------
     A'        54      54 
     A"        34      34 
   -------------------------
    Total      88      88
   -------------------------

  ==> Iterations <==

                           Total Energy        Delta E     RMS |[F,P]|

   @DF-RKS iter SAD:   -56.07217955258211   -5.60722e+01   0.00000e+00 
   @DF-RKS iter   1:   -56.29649579821135   -2.24316e-01   1.14189e-02 DIIS
   @DF-RKS iter   2:   -56.16435798944858    1.32138e-01   1.38163e-02 DIIS
   @DF-RKS iter   3:   -56.51194564553498   -3.47588e-01   5.25698e-04 DIIS
   @DF-RKS iter   4:   -56.51258745613000   -6.41811e-04   6.71114e-05 DIIS
   @DF-RKS iter   5:   -56.51259588428320   -8.42815e-06   1.28846e-05 DIIS
   @DF-RKS iter   6:   -56.51259619045431   -3.06171e-07   1.63653e-06 DIIS
   @DF-RKS iter   7:   -56.51259620508367   -1.46294e-08   4.41425e-07 DIIS
  Energy and wave function converged.


  ==> Post-Iterations <==

   Electrons on quadrature grid:
      Ntotal   =    9.9999978746 ; deviation = -2.125e-06 

    Orbital Energies [Eh]
    ---------------------

    Doubly Occupied:                                                      

       1Ap   -14.079292     2Ap    -0.895149     1App   -0.496011  
       3Ap    -0.495962     4Ap    -0.322368  

    Virtual:                                                              

       5Ap     0.049509     2App    0.134609     6Ap     0.134610  
       7Ap     0.180317     8Ap     0.195130     3App    0.195142  
       9Ap     0.229843     4App    0.238701    10Ap     0.238708  
      11Ap     0.299004    12Ap     0.346396     5App    0.346410  
       6App    0.366525     7App    0.429135    13Ap     0.429141  
      14Ap     0.466097     8App    0.498751    15Ap     0.498761  
      16Ap     0.630977    17Ap     0.638940    18Ap     0.677372  
       9App    0.677418    10App    0.754678    19Ap     0.754710  
      20Ap     0.890492    11App    1.005629    21Ap     1.005674  
      12App    1.125100    22Ap     1.138730    13App    1.255887  
      23Ap     1.255938    24Ap     1.283917    14App    1.283959  
      25Ap     1.436399    26Ap     1.597635    15App    1.650687  
      27Ap     1.650714    16App    1.809008    28Ap     1.809029  
      29Ap     2.243783    17App    2.458998    30Ap     2.459040  
      31Ap     2.540991    32Ap     2.748464    33Ap     2.890387  
      18App    2.890402    34Ap     3.044515    19App    3.198401  
      35Ap     3.254494    20App    3.254509    21App    3.270708  
      36Ap     3.270789    22App    3.439778    23App    3.453248  
      37Ap     3.453288    38Ap     3.768361    24App    3.789030  
      39Ap     3.789061    25App    3.892896    40Ap     3.892936  
      41Ap     3.893630    26App    4.070227    42Ap     4.070278  
      27App    4.330519    43Ap     4.382131    28App    4.382210  
      44Ap     4.423311    45Ap     4.640029    46Ap     4.811072  
      29App    4.811132    47Ap     5.110451    30App    5.110484  
      48Ap     5.141766    49Ap     5.365239    31App    5.675613  
      50Ap     5.695485    32App    5.695724    51Ap     5.828218  
      33App    5.828306    52Ap     6.241264    34App    6.457663  
      53Ap     6.457751    54Ap    31.442244  

    Final Occupation by Irrep:
             Ap   App 
    DOCC [     4,    1 ]

  @DF-RKS Final Energy:   -56.51259620508367

   => Energetics <=

    Nuclear Repulsion Energy =             11.8457429207498919
    One-Electron Energy =                 -99.4978440216837470
    Two-Electron Energy =                  35.7170218372535899
    DFT Exchange-Correlation Energy =      -4.5774903814034014
    Empirical Dispersion Energy =          -0.0000265600000000
    VV10 Nonlocal Energy =                  0.0000000000000000
    Total Energy =                        -56.5125962050836748

Computation Completed


Properties will be evaluated at   0.000000,   0.000000,   0.000000 [a0]

Properties computed using the SCF density matrix

  Nuclear Dipole Moment: [e a0]
     X:     0.0000      Y:    -0.9691      Z:     0.0000

  Electronic Dipole Moment: [e a0]
     X:     0.0001      Y:     0.3213      Z:     0.0000

  Dipole Moment: [e a0]
     X:     0.0001      Y:    -0.6479      Z:     0.0000     Total:     0.6479

  Dipole Moment: [D]
     X:     0.0002      Y:    -1.6467      Z:     0.0000     Total:     1.6467


*** tstop() called on bc4login1.bc4.acrc.priv at Tue Nov  2 14:09:28 2021
Module time:
	user time   =      12.68 seconds =       0.21 minutes
	system time =       1.00 seconds =       0.02 minutes
	total time  =          2 seconds =       0.03 minutes
Total time:
	user time   =      12.68 seconds =       0.21 minutes
	system time =       1.00 seconds =       0.02 minutes
	total time  =          2 seconds =       0.03 minutes

    Psi4 stopped on: Tuesday, 02 November 2021 02:09PM
    Psi4 wall time for execution: 0:00:01.77

*** Psi4 exiting successfully. Buy a developer a beer!
