
                                 *****************
                                 * O   R   C   A *
                                 *****************

           --- An Ab Initio, DFT and Semiempirical electronic structure package ---

                  #######################################################
                  #                        -***-                        #
                  #          Department of theory and spectroscopy      #
                  #               Directorship: Frank Neese             #
                  #        Max Planck Institute fuer Kohlenforschung    #
                  #                Kaiser Wilhelm Platz 1               #
                  #                 D-45470 Muelheim/Ruhr               #
                  #                      Germany                        #
                  #                                                     #
                  #                  All rights reserved                #
                  #                        -***-                        #
                  #######################################################


                         Program Version 4.2.0 -  RELEASE  -


 With contributions from (in alphabetic order):
   Daniel Aravena         : Magnetic Suceptibility
   Michael Atanasov       : Ab Initio Ligand Field Theory (pilot matlab implementation)
   Alexander A. Auer      : GIAO ZORA, VPT2
   Ute Becker             : Parallelization
   Giovanni Bistoni       : ED, misc. LED, open-shell LED, HFLED
   Martin Brehm           : Molecular dynamics
   Dmytro Bykov           : SCF Hessian
   Vijay G. Chilkuri      : MRCI spin determinant printing, contributions to CSF-ICE
   Dipayan Datta          : RHF DLPNO-CCSD density
   Achintya Kumar Dutta   : EOM-CC, STEOM-CC
   Dmitry Ganyushin       : Spin-Orbit,Spin-Spin,Magnetic field MRCI
   Miquel Garcia          : C-PCM Hessian, Gaussian charge scheme
   Yang Guo               : DLPNO-NEVPT2, CIM, IAO-localization
   Andreas Hansen         : Spin unrestricted coupled pair/coupled cluster methods
   Benjamin Helmich-Paris : CASSCF linear response (MC-RPA)
   Lee Huntington         : MR-EOM, pCC
   Robert Izsak           : Overlap fitted RIJCOSX, COSX-SCS-MP3, EOM
   Christian Kollmar      : KDIIS, OOCD, Brueckner-CCSD(T), CCSD density
   Simone Kossmann        : Meta GGA functionals, TD-DFT gradient, OOMP2, MP2 Hessian
   Martin Krupicka        : AUTO-CI
   Lucas Lang             : DCDCAS
   Dagmar Lenk            : GEPOL surface, SMD
   Dimitrios Liakos       : Extrapolation schemes; Compound Job, initial MDCI parallelization
   Dimitrios Manganas     : Further ROCIS development; embedding schemes
   Dimitrios Pantazis     : SARC Basis sets
   Taras Petrenko         : DFT Hessian,TD-DFT gradient, ASA, ECA, R-Raman, ABS, FL, XAS/XES, NRVS
   Peter Pinski           : DLPNO-MP2, DLPNO-MP2 Gradient
   Christoph Reimann      : Effective Core Potentials
   Marius Retegan         : Local ZFS, SOC
   Christoph Riplinger    : Optimizer, TS searches, QM/MM, DLPNO-CCSD(T), (RO)-DLPNO pert. Triples
   Tobias Risthaus        : Range-separated hybrids, TD-DFT gradient, RPA, STAB
   Michael Roemelt        : Original ROCIS implementation
   Masaaki Saitow         : Open-shell DLPNO-CCSD energy and density
   Barbara Sandhoefer     : DKH picture change effects
   Avijit Sen             : IP-ROCIS
   Kantharuban Sivalingam : CASSCF convergence, NEVPT2, FIC-MRCI
   Bernardo de Souza      : ESD, SOC TD-DFT
   Georgi Stoychev        : AutoAux, RI-MP2 NMR
   Willem Van den Heuvel  : Paramagnetic NMR
   Boris Wezisla          : Elementary symmetry handling
   Frank Wennmohs         : Technical directorship


 We gratefully acknowledge several colleagues who have allowed us to
 interface, adapt or use parts of their codes:
   Stefan Grimme, W. Hujo, H. Kruse,             : VdW corrections, initial TS optimization,
                  C. Bannwarth                     DFT functionals, gCP, sTDA/sTD-DF
   Ed Valeev, F. Pavosevic, A. Kumar             : LibInt (2-el integral package), F12 methods
   Garnet Chan, S. Sharma, J. Yang, R. Olivares  : DMRG
   Ulf Ekstrom                                   : XCFun DFT Library
   Mihaly Kallay                                 : mrcc  (arbitrary order and MRCC methods)
   Andreas Klamt, Michael Diedenhofen            : otool_cosmo (COSMO solvation model)
   Jiri Pittner, Ondrej Demel                    : Mk-CCSD
   Frank Weinhold                                : gennbo (NPA and NBO analysis)
   Christopher J. Cramer and Donald G. Truhlar   : smd solvation model
   Lars Goerigk                                  : TD-DFT with DH, B97 family of functionals
   V. Asgeirsson, H. Jonsson                     : NEB implementation
   FAccTs GmbH                                   : IRC, NEB, NEB-TS, Multilevel, MM, QM/MM, CI optimization
   S Lehtola, MJT Oliveira, MAL Marques          : LibXC Library


 Your calculation uses the libint2 library for the computation of 2-el integrals
 For citations please refer to: http://libint.valeyev.net

 Your ORCA version has been built with support for libXC version: 4.2.3
 For citations please refer to: https://tddft.org/programs/libxc/

 This ORCA versions uses:
   CBLAS   interface :  Fast vector & matrix operations
   LAPACKE interface :  Fast linear algebra routines
   SCALAPACK package :  Parallel linear algebra routines


Your calculation utilizes the atom-pairwise dispersion correction
with the Becke-Johnson damping scheme (D3BJ)
Cite in your paper:
S.Grimme, S.Ehrlich, L.Goerigk, J Comput Chem, (2011), 32, 1456–1465 
S.Grimme, J.Antony, S.Ehrlich and H.Krieg, J.Chem.Phys., 132, (2010), 154104 
   

----- Orbital basis set information -----
Your calculation utilizes the basis: def2-TZVPPD
   F. Weigend and R. Ahlrichs, Phys. Chem. Chem. Phys. 7, 3297 (2005).
   D. Rappoport and F. Furche, J. Chem. Phys. 133 134105 (2010).

----- AuxC basis set information -----
Your calculation utilizes the auxiliary basis: def2-TZVPPD/C
   A. Hellweg, C. Hattig, S. Hofener and W. Klopper, Theor. Chem. Acc. 117, 587 (2007).

----- AuxJK basis set information -----
Your calculation utilizes the auxiliary basis: def2/JK
   H-Ba, Hf-Rn: F. Weigend, J. Comput. Chem. 29, 167 (2008).

cite the ECPs for Ag [Def2-ECP] as follows:
Ce-Yb(ecp-28): M. Dolg, H. Stoll, H.Preuss, J. Chem. Phys., 1989, 90, 1730-1734.
Y-Cd(ecp-28), Hf-Hg(ecp-46): D. Andrae,U. Haeussermann, M. Dolg, H. Stoll, H. Preuss, Theor. Chim. Acta, 1990, 77, 123-141.
In-Sb(ecp-28), Tl-Bi(ecp-46): B. Metz, H. Stoll, M. Dolg, J. Chem. Phys., 2000, 113, 2563-2569.
Te-Xe(ecp-28), Po-Rn(ecp-46): K. A. Peterson, D. Figgen, E. Goll, H. Stoll, M. Dolg, J. Chem. Phys., 2003, 119, 11113-11123.
Rb(ecp-28), Cs(ecp-46): T. Leininger, A. Nicklass, W. Kuechle, H. Stoll, M. Dolg, A. Bergner, Chem. Phys. Lett., 1996, 255, 274-280.
Sr(ecp-28), Ba(ecp-46): M. Kaupp, P. V. Schleyer, H. Stoll and H. Preuss, J. Chem. Phys., 1991, 94, 1360-1366.
La(ecp-46): M. Dolg, H. Stoll, A. Savin, H. Preuss, Theor. Chim. Acta, 1989, 75, 173-194.
Lu(ecp-28): X. Cao, M. Dolg, J. Chem. Phys., 2001, 115, 7348-7355.

ECP parameters for Ag [Def2-ECP] have been obtained from:
TURBOMOLE (7.0.2)

================================================================================
                                        WARNINGS
                       Please study these warnings very carefully!
================================================================================


WARNING: The frozen-core approximation for MP2-gradient calculations is turned on by default.

WARNING: Geometry Optimization
  ===> : Switching off AutoStart
         For restart on a previous wavefunction, please use MOREAD

WARNING: There are different parametrizations of Gershom Martin's DSD-DFs
         for use with and without D3(BJ)!
         You are using the D3(BJ) parametrized version,
         consistent with the 2013 article (S. Kozuch and J. M. L. Martin, JCC 2013, 34, 2327)

WARNING: The frozen-core approximation is turned on by default for 
         the MP2 part of double-hybrid DFT.

INFO   : the flag for use of LIBINT has been found!

================================================================================
                                       INPUT FILE
================================================================================
NAME = Ag01N0_H.in
|  1> #
|  2> # Ag01N0_H ri-DSD-BLYP/2013-D3BJ/Def2-TZVPPD
|  3> #
|  4> ! rijk ri-dsd-blyp/2013 d3bj def2-tzvppd def2/jk def2-tzvppd/c grid4 nofinalgrid opt xyzfile numfreq
|  5> 
|  6> *xyz 0 1
|  7> Ag       0.000000    0.000000    0.033547 
|  8> H        0.000000    0.000000   -1.576706 
|  9> *
| 10> 
| 11> %maxcore 5000
| 12> 
| 13> %pal
| 14> nprocs = 24
| 15> end
| 16> 
| 17> 
| 18>                          ****END OF INPUT****
================================================================================

                       *****************************
                       * Geometry Optimization Run *
                       *****************************

Geometry optimization settings:
Update method            Update   .... BFGS
Choice of coordinates    CoordSys .... Z-matrix Internals
Initial Hessian          InHess   .... Almoef's Model

Convergence Tolerances:
Energy Change            TolE     ....  5.0000e-06 Eh
Max. Gradient            TolMAXG  ....  3.0000e-04 Eh/bohr
RMS Gradient             TolRMSG  ....  1.0000e-04 Eh/bohr
Max. Displacement        TolMAXD  ....  4.0000e-03 bohr
RMS Displacement         TolRMSD  ....  2.0000e-03 bohr
Strict Convergence                ....  False
------------------------------------------------------------------------------
                        ORCA OPTIMIZATION COORDINATE SETUP
------------------------------------------------------------------------------

The optimization will be done in new redundant internal coordinates
Making redundant internal coordinates   ...  (new redundants) done
Evaluating the initial hessian          ...  (Almloef) done
Evaluating the coordinates              ...  done
Calculating the B-matrix                .... done
Calculating the G-matrix                .... done
Diagonalizing the G-matrix              .... done
The first mode is                       ....    0
The number of degrees of freedom        ....    1

    -----------------------------------------------------------------
                    Redundant Internal Coordinates


    -----------------------------------------------------------------
         Definition                    Initial Value    Approx d2E/dq
    -----------------------------------------------------------------
      1. B(H   1,Ag  0)                  1.6103         0.538912   
    -----------------------------------------------------------------

Number of atoms                         .... 2
Number of degrees of freedom            .... 1

         *************************************************************
         *                GEOMETRY OPTIMIZATION CYCLE   1            *
         *************************************************************
---------------------------------
CARTESIAN COORDINATES (ANGSTROEM)
---------------------------------
  Ag     0.000000    0.000000    0.033547
  H      0.000000    0.000000   -1.576706

----------------------------
CARTESIAN COORDINATES (A.U.)
----------------------------
  NO LB      ZA    FRAG     MASS         X           Y           Z
   0 Ag   19.0000*   0   107.870    0.000000    0.000000    0.063395
   1 H     1.0000    0     1.008    0.000000    0.000000   -2.979543
* core charge reduced due to ECP

--------------------------------
INTERNAL COORDINATES (ANGSTROEM)
--------------------------------
 Ag     0   0   0     0.000000000000     0.00000000     0.00000000
 H      1   0   0     1.610253000000     0.00000000     0.00000000

---------------------------
INTERNAL COORDINATES (A.U.)
---------------------------
 Ag     0   0   0     0.000000000000     0.00000000     0.00000000
 H      1   0   0     3.042937176325     0.00000000     0.00000000

---------------------
BASIS SET INFORMATION
---------------------
There are 2 groups of distinct atoms

 Group   1 Type Ag  : 7s7p6d2f1g contracted to 6s4p3d2f1g pattern {211111/4111/411/11/1}
 Group   2 Type H   : 5s3p1d contracted to 3s3p1d pattern {311/111/1}

Atom   0Ag   basis set group =>   1
Atom   1H    basis set group =>   2
---------------------------------
AUXILIARY/C BASIS SET INFORMATION
---------------------------------
There are 2 groups of distinct atoms

 Group   1 Type Ag  : 8s7p6d5f4g3h1i contracted to 8s7p6d5f4g3h1i pattern {11111111/1111111/111111/11111/1111/111/1}
 Group   2 Type H   : 5s4p3d1f contracted to 5s4p3d1f pattern {11111/1111/111/1}

Atom   0Ag   basis set group =>   1
Atom   1H    basis set group =>   2
----------------------------------
AUXILIARY/JK BASIS SET INFORMATION
----------------------------------
There are 2 groups of distinct atoms

 Group   1 Type Ag  : 13s12p10d9f6g3h2i contracted to 11s10p9d8f6g3h2i pattern {31111111111/3111111111/211111111/21111111/111111/111/11}
 Group   2 Type H   : 4s2p2d contracted to 2s2p2d pattern {31/11/11}

Atom   0Ag   basis set group =>   1
Atom   1H    basis set group =>   2
-------------------------
ECP PARAMETER INFORMATION
-------------------------

 Group 1, Type Ag ECP Def2-ECP (replacing 28 core electrons, lmax=3)

Atom   0Ag   ECP group =>   1



           ************************************************************
           *        Program running with 24 parallel MPI-processes    *
           *              working on a common directory               *
           ************************************************************
------------------------------------------------------------------------------
                           ORCA GTO INTEGRAL CALCULATION
                           -- RI-GTO INTEGRALS CHOSEN --
------------------------------------------------------------------------------

                         BASIS SET STATISTICS AND STARTUP INFO

Gaussian basis set:
 # of primitive gaussian shells          ...   32
 # of primitive gaussian functions       ...  100
 # of contracted shells                  ...   23
 # of contracted basis functions         ...   73
 Highest angular momentum                ...    4
 Maximum contraction depth               ...    4
Auxiliary gaussian basis set:
 # of primitive gaussian shells          ...   63
 # of primitive gaussian functions       ...  295
 # of contracted shells                  ...   55
 # of contracted aux-basis functions     ...  273
 Highest angular momentum                ...    6
 Maximum contraction depth               ...    3
Ratio of auxiliary to basis functions    ...  3.74
Integral package used                  ... LIBINT
 One Electron integrals                  
   ECP integrals                         ... done
 Ordering auxiliary basis shells         ... done
 Integral threshhold             Thresh  ...  2.500e-11
 Primitive cut-off               TCut    ...  2.500e-12
 Pre-screening matrix                    ... done
 Shell pair data                         ... 
 Ordering of the shell pairs             ... done (   0.000 sec) 276 of 276 pairs
 Determination of significant pairs      ... done (   0.000 sec)
 Creation of shell pair data             ... done (   0.000 sec)
 Storage of shell pair data              ... done (   0.037 sec)
 Shell pair data done in (   0.037 sec)
 Computing two index integrals           ... done
 Cholesky decomposition of the V-matrix  ... done


Timings:
 Total evaluation time                   ...   0.251 sec (  0.004 min)
 One electron matrix time                ...   0.055 sec (  0.001 min) = 22.0%
 Schwartz matrix evaluation time         ...   0.091 sec (  0.002 min) = 36.2%
 Two index repulsion integral time       ...   0.029 sec (  0.000 min) = 11.5%
 Cholesky decomposition of V             ...   0.002 sec (  0.000 min) =  0.7%
 Three index repulsion integral time     ...   0.000 sec (  0.000 min) =  0.0%



           ************************************************************
           *        Program running with 24 parallel MPI-processes    *
           *              working on a common directory               *
           ************************************************************
-------------------------------------------------------------------------------
                                 ORCA SCF
-------------------------------------------------------------------------------

------------
SCF SETTINGS
------------
Hamiltonian:
 Density Functional     Method          .... DFT(GTOs)
 Exchange Functional    Exchange        .... B88
   X-Alpha parameter    XAlpha          ....  0.666667
   Becke's b parameter  XBeta           ....  0.004200
 Correlation Functional Correlation     .... LYP
 LDA part of GGA corr.  LDAOpt          .... VWN-5
 Gradients option       PostSCFGGA      .... off
 Hybrid DFT is turned on
   Fraction HF Exchange ScalHFX         ....  0.710000
   Scaling of DF-GGA-X  ScalDFX         ....  0.290000
   Scaling of DF-GGA-C  ScalDFC         ....  0.540000
   Scaling of DF-LDA-C  ScalLDAC        ....  0.540000
   Perturbative correction              ....  1.000000
   Density functional embedding theory  .... OFF
 RI-approximation to the Coulomb term is turned on
   Number of auxiliary basis functions  .... 273
   RI-JK (J+K treated both via RI)      .... on


General Settings:
 Integral files         IntName         .... Ag01N0_H
 Hartree-Fock type      HFTyp           .... RHF
 Total Charge           Charge          ....    0
 Multiplicity           Mult            ....    1
 Number of Electrons    NEL             ....   20
 Basis Dimension        Dim             ....   73
 Nuclear Repulsion      ENuc            ....      6.2439672261 Eh

Convergence Acceleration:
 DIIS                   CNVDIIS         .... on
   Start iteration      DIISMaxIt       ....    12
   Startup error        DIISStart       ....  0.200000
   # of expansion vecs  DIISMaxEq       ....     5
   Bias factor          DIISBfac        ....   1.050
   Max. coefficient     DIISMaxC        ....  10.000
 Newton-Raphson         CNVNR           .... off
 SOSCF                  CNVSOSCF        .... off
 Level Shifting         CNVShift        .... on
   Level shift para.    LevelShift      ....    0.2500
   Turn off err/grad.   ShiftErr        ....    0.0010
 Zerner damping         CNVZerner       .... off
 Static damping         CNVDamp         .... on
   Fraction old density DampFac         ....    0.7000
   Max. Damping (<1)    DampMax         ....    0.9800
   Min. Damping (>=0)   DampMin         ....    0.0000
   Turn off err/grad.   DampErr         ....    0.1000
 Fernandez-Rico         CNVRico         .... off

SCF Procedure:
 Maximum # iterations   MaxIter         ....   125
 SCF integral mode      SCFMode         .... Direct
   Integral package                     .... LIBINT
 Reset frequency        DirectResetFreq ....    20
 Integral Threshold     Thresh          ....  2.500e-11 Eh
 Primitive CutOff       TCut            ....  2.500e-12 Eh

Convergence Tolerance:
 Convergence Check Mode ConvCheckMode   .... Total+1el-Energy
 Convergence forced     ConvForced      .... 0
 Energy Change          TolE            ....  1.000e-08 Eh
 1-El. energy change                    ....  1.000e-05 Eh
 DIIS Error             TolErr          ....  5.000e-07


Diagonalization of the overlap matrix:
Smallest eigenvalue                        ... 3.316e-03
Time for diagonalization                   ...    0.003 sec
Threshold for overlap eigenvalues          ... 1.000e-08
Number of eigenvalues below threshold      ... 0
Time for construction of square roots      ...    0.001 sec
Total time needed                          ...    0.004 sec

-------------------
DFT GRID GENERATION
-------------------

General Integration Accuracy     IntAcc      ...  4.670
Radial Grid Type                 RadialGrid  ... Gauss-Chebyshev
Angular Grid (max. acc.)         AngularGrid ... Lebedev-302
Angular grid pruning method      GridPruning ... 3 (G Style)
Weight generation scheme         WeightScheme... Becke
Basis function cutoff            BFCut       ...    1.0000e-11
Integration weight cutoff        WCut        ...    1.0000e-14
Grids for H and He will be reduced by one unit

# of grid points (after initial pruning)     ...  14052 (   0.0 sec)
# of grid points (after weights+screening)   ...  13996 (   0.0 sec)
nearest neighbour list constructed           ...    0.0 sec
Grid point re-assignment to atoms done       ...    0.0 sec
Grid point division into batches done        ...    0.1 sec
Reduced shell lists constructed in    0.1 sec

Total number of grid points                  ...    13996
Total number of batches                      ...      220
Average number of points per batch           ...       63
Average number of grid points per atom       ...     6998
Average number of shells per batch           ...     2.27 ( 9.88%)
Average number of basis functions per batch  ...     4.82 ( 6.60%)
Average number of large shells per batch     ...     2.09 (92.00%)
Average number of large basis fcns per batch ...     4.09 (84.91%)
Average number of aux-shells per batch       ...     2.27 ( 4.13%)
Average number of aux functions per batch    ...     4.82 ( 1.76%)
Maximum spatial batch extension              ...  40.43, 36.77, 24.60 au
Average spatial batch extension              ...   1.31,  1.23,  0.88 au

Time for grid setup =    0.141 sec

------------------------------
INITIAL GUESS: MODEL POTENTIAL
------------------------------
Loading Hartree-Fock densities                     ... done
  calling /sw/apps/orca/orca_4_2_0_linux_x86-64_openmpi314/orca Ag01N0_H_atom47.inp > Ag01N0_H_atom47.out in order to generate an atomic fitting density for atom 0 (Ag with ECP) on-the-fly... 
    atom 0 (Ag), assumed electronic state with S=2: 1s2 2s2 2p6 3s2 3p6 4s2 3d10 4p6 5s2 4d9           ... done
Calculating cut-offs                               ... done
Setting up the integral package                    ... done
Initializing the effective Hamiltonian             ... done
Starting the Coulomb interaction                   ... done (   0.0 sec)
Reading the grid                                   ... done
Mapping shells                                     ... done
Starting the XC term evaluation                    ... done (   0.0 sec)
  promolecular density results
     # of electrons  =     48.000708508
     EX              =   -144.353713005
     EC              =     -0.318377037
     EX+EC           =   -144.672090043
Transforming the Hamiltonian                       ... done (   0.0 sec)
Diagonalizing the Hamiltonian                      ... done (   0.0 sec)
Back transforming the eigenvectors                 ... done (   0.0 sec)
Now organizing SCF variables                       ... done
                      ------------------
                      INITIAL GUESS DONE (   1.3 sec)
                      ------------------
--------------
SCF ITERATIONS
--------------
ITER       Energy         Delta-E        Max-DP      RMS-DP      [F,P]     Damp
  0   -147.0206424374   0.000000000000 0.10500536  0.00279518  0.4831396 0.7000
  1   -146.9074649240   0.113177513424 0.07749811  0.00233679  0.3420482 0.7000
  2   -146.9444428751  -0.036977951079 0.04215579  0.00133873  0.2252596 0.7000
                               ***Turning on DIIS***
  3   -147.0194864926  -0.075043617519 0.02695909  0.00071684  0.1498633 0.7000
  4   -147.0724155490  -0.052929056386 0.02279150  0.00051905  0.1033522 0.7000
  5   -147.1030880069  -0.030672457889 0.09118022  0.00179383  0.0746519 0.0000
  6   -147.0903140114   0.012773995469 0.00963015  0.00041119  0.0240650 0.0000
  7   -147.0912696770  -0.000955665538 0.00325314  0.00014029  0.0068488 0.0000
  8   -147.0913770953  -0.000107418381 0.00215387  0.00008584  0.0039308 0.0000
  9   -147.0914103346  -0.000033239246 0.00266546  0.00006357  0.0006763 0.0000
 10   -147.0914140445  -0.000003709947 0.00031004  0.00001266  0.0001721 0.0000
 11   -147.0914142737  -0.000000229155 0.00009708  0.00000513  0.0000748 0.0000
 12   -147.0914143186  -0.000000044938 0.00007443  0.00000246  0.0000309 0.0000
 13   -147.0914143257  -0.000000007104 0.00005413  0.00000120  0.0000086 0.0000
 14   -147.0914143264  -0.000000000690 0.00001108  0.00000028  0.0000020 0.0000
                 **** Energy Check signals convergence ****

               *****************************************************
               *                     SUCCESS                       *
               *           SCF CONVERGED AFTER  15 CYCLES          *
               *****************************************************


----------------
TOTAL SCF ENERGY
----------------

Total Energy       :         -147.09141433 Eh           -4002.56087 eV

Components:
Nuclear Repulsion  :            6.24396723 Eh             169.90699 eV
Electronic Energy  :         -153.33538155 Eh           -4172.46786 eV
One Electron Energy:         -274.23353307 Eh           -7462.27381 eV
Two Electron Energy:          120.89815152 Eh            3289.80595 eV

Virial components:
Potential Energy   :         -204.05738941 Eh           -5552.68386 eV
Kinetic Energy     :           56.96597509 Eh            1550.12299 eV
Virial Ratio       :            3.58209245


DFT components:
N(Alpha)           :        9.999999117977 electrons
N(Beta)            :        9.999999117977 electrons
N(Total)           :       19.999998235954 electrons
E(X)               :       -3.985543604295 Eh       
E(C)               :       -0.398562296469 Eh       
E(XC)              :       -4.384105900763 Eh       
DFET-embed. en.    :        0.000000000000 Eh       

---------------
SCF CONVERGENCE
---------------

  Last Energy change         ...   -3.5499e-11  Tolerance :   1.0000e-08
  Last MAX-Density change    ...    8.4272e-07  Tolerance :   1.0000e-07
  Last RMS-Density change    ...    2.9167e-08  Tolerance :   5.0000e-09
  Last DIIS Error            ...    4.9975e-07  Tolerance :   5.0000e-07

             **** THE GBW FILE WAS UPDATED (Ag01N0_H.gbw) ****
             **** DENSITY FILE WAS UPDATED (Ag01N0_H.scfp) ****
             **** ENERGY FILE WAS UPDATED (Ag01N0_H.en.tmp) ****
             **** THE GBW FILE WAS UPDATED (Ag01N0_H.gbw) ****
             **** DENSITY FILE WAS UPDATED (Ag01N0_H.scfp) ****
----------------
ORBITAL ENERGIES
----------------

  NO   OCC          E(Eh)            E(eV) 
   0   2.0000      -4.133625      -112.4817 
   1   2.0000      -2.639301       -71.8190 
   2   2.0000      -2.633760       -71.6682 
   3   2.0000      -2.633760       -71.6682 
   4   2.0000      -0.494461       -13.4550 
   5   2.0000      -0.461379       -12.5548 
   6   2.0000      -0.461379       -12.5548 
   7   2.0000      -0.455940       -12.4068 
   8   2.0000      -0.455940       -12.4068 
   9   2.0000      -0.300710        -8.1827 
  10   0.0000      -0.022793        -0.6202 
  11   0.0000       0.038087         1.0364 
  12   0.0000       0.038087         1.0364 
  13   0.0000       0.111661         3.0385 
  14   0.0000       0.154653         4.2083 
  15   0.0000       0.232237         6.3195 
  16   0.0000       0.232237         6.3195 
  17   0.0000       0.238569         6.4918 
  18   0.0000       0.291213         7.9243 
  19   0.0000       0.291213         7.9243 
  20   0.0000       0.469456        12.7745 
  21   0.0000       0.498522        13.5655 
  22   0.0000       0.498522        13.5655 
  23   0.0000       0.534822        14.5532 
  24   0.0000       0.604710        16.4550 
  25   0.0000       0.604710        16.4550 
  26   0.0000       0.688502        18.7351 
  27   0.0000       0.991554        26.9816 
  28   0.0000       0.991554        26.9816 
  29   0.0000       1.202260        32.7152 
  30   0.0000       1.766452        48.0676 
  31   0.0000       1.766454        48.0677 
  32   0.0000       1.776620        48.3443 
  33   0.0000       1.776620        48.3443 
  34   0.0000       1.797226        48.9050 
  35   0.0000       1.797226        48.9050 
  36   0.0000       1.848044        50.2878 
  37   0.0000       1.848044        50.2878 
  38   0.0000       1.868185        50.8359 
  39   0.0000       2.056975        55.9731 
  40   0.0000       2.246909        61.1415 
  41   0.0000       2.259383        61.4809 
  42   0.0000       2.259385        61.4810 
  43   0.0000       2.321348        63.1671 
  44   0.0000       2.321348        63.1671 
  45   0.0000       2.461769        66.9881 
  46   0.0000       2.859884        77.8214 
  47   0.0000       3.432339        93.3987 
  48   0.0000       3.432373        93.3996 
  49   0.0000       3.677795       100.0779 
  50   0.0000       3.677795       100.0779 
  51   0.0000       4.094641       111.4209 
  52   0.0000       4.094641       111.4209 
  53   0.0000       4.167526       113.4041 
  54   0.0000       4.777138       129.9925 
  55   0.0000       5.199024       141.4726 
  56   0.0000       5.199024       141.4726 
  57   0.0000       5.210903       141.7959 
  58   0.0000       5.210904       141.7959 
  59   0.0000       5.375855       146.2845 
  60   0.0000       5.375855       146.2845 
  61   0.0000       5.563849       151.4000 
  62   0.0000       5.892229       160.3357 
  63   0.0000       5.892229       160.3357 
  64   0.0000       5.895206       160.4167 
  65   0.0000       5.895208       160.4168 
  66   0.0000       5.895221       160.4171 
  67   0.0000       5.895231       160.4174 
  68   0.0000       6.028074       164.0322 
  69   0.0000       6.028074       164.0322 
  70   0.0000       6.476224       176.2270 
  71   0.0000      33.839154       920.8102 
  72   0.0000     109.971069      2992.4649 

                    ********************************
                    * MULLIKEN POPULATION ANALYSIS *
                    ********************************

-----------------------
MULLIKEN ATOMIC CHARGES
-----------------------
   0 Ag:    0.125137
   1 H :   -0.125137
Sum of atomic charges:   -0.0000000

--------------------------------
MULLIKEN REDUCED ORBITAL CHARGES
--------------------------------
  0 Ags       :     2.846799  s :     2.846799
      pz      :     2.123457  p :     6.124412
      px      :     2.000478
      py      :     2.000478
      dz2     :     1.911912  d :     9.901604
      dxz     :     1.994997
      dyz     :     1.994997
      dx2y2   :     1.999849
      dxy     :     1.999849
      f0      :     0.001515  f :     0.002008
      f+1     :     0.000121
      f-1     :     0.000121
      f+2     :     0.000126
      f-2     :     0.000126
      f+3     :     0.000000
      f-3     :     0.000000
      g0      :     0.000034  g :     0.000040
      g+1     :     0.000002
      g-1     :     0.000002
      g+2     :     0.000000
      g-2     :     0.000000
      g+3     :     0.000000
      g-3     :     0.000000
      g+4     :     0.000000
      g-4     :     0.000000
  1 H s       :     1.117202  s :     1.117202
      pz      :    -0.001614  p :     0.006286
      px      :     0.003950
      py      :     0.003950
      dz2     :     0.000695  d :     0.001649
      dxz     :     0.000452
      dyz     :     0.000452
      dx2y2   :     0.000025
      dxy     :     0.000025


                     *******************************
                     * LOEWDIN POPULATION ANALYSIS *
                     *******************************

----------------------
LOEWDIN ATOMIC CHARGES
----------------------
   0 Ag:    0.325167
   1 H :   -0.325167

-------------------------------
LOEWDIN REDUCED ORBITAL CHARGES
-------------------------------
  0 Ags       :     2.691638  s :     2.691638
      pz      :     2.125611  p :     6.123352
      px      :     1.998870
      py      :     1.998870
      dz2     :     1.909568  d :     9.855834
      dxz     :     1.973476
      dyz     :     1.973476
      dx2y2   :     1.999657
      dxy     :     1.999657
      f0      :     0.003106  f :     0.003955
      f+1     :     0.000296
      f-1     :     0.000296
      f+2     :     0.000129
      f-2     :     0.000129
      f+3     :     0.000000
      f-3     :     0.000000
      g0      :     0.000053  g :     0.000054
      g+1     :     0.000000
      g-1     :     0.000000
      g+2     :     0.000000
      g-2     :     0.000000
      g+3     :     0.000000
      g-3     :     0.000000
      g+4     :     0.000000
      g-4     :     0.000000
  1 H s       :     1.157412  s :     1.157412
      pz      :     0.101887  p :     0.148016
      px      :     0.023065
      py      :     0.023065
      dz2     :     0.010725  d :     0.019739
      dxz     :     0.004293
      dyz     :     0.004293
      dx2y2   :     0.000214
      dxy     :     0.000214


                      *****************************
                      * MAYER POPULATION ANALYSIS *
                      *****************************

  NA   - Mulliken gross atomic population
  ZA   - Total nuclear charge
  QA   - Mulliken gross atomic charge
  VA   - Mayer's total valence
  BVA  - Mayer's bonded valence
  FA   - Mayer's free valence

  ATOM       NA         ZA         QA         VA         BVA        FA
  0 Ag    18.8749    19.0000     0.1251     1.0458     1.0458    -0.0000
  1 H      1.1251     1.0000    -0.1251     1.0458     1.0458    -0.0000

  Mayer bond orders larger than 0.100000
B(  0-Ag,  1-H ) :   1.0458 

-------
TIMINGS
-------

Total SCF time: 0 days 0 hours 0 min 3 sec 

Total time                  ....       3.132 sec
Sum of individual times     ....       3.040 sec  ( 97.0%)

Fock matrix formation       ....       1.713 sec  ( 54.7%)
  XC integration            ....       0.259 sec  ( 15.1% of F)
    Basis function eval.    ....       0.017 sec  (  6.4% of XC)
    Density eval.           ....       0.010 sec  (  3.7% of XC)
    XC-Functional eval.     ....       0.008 sec  (  2.9% of XC)
    XC-Potential eval.      ....       0.012 sec  (  4.8% of XC)
Diagonalization             ....       0.014 sec  (  0.4%)
Density matrix formation    ....       0.004 sec  (  0.1%)
Population analysis         ....       0.002 sec  (  0.1%)
Initial guess               ....       1.155 sec  ( 36.9%)
Orbital Transformation      ....       0.000 sec  (  0.0%)
Orbital Orthonormalization  ....       0.000 sec  (  0.0%)
DIIS solution               ....       0.010 sec  (  0.3%)
Grid generation             ....       0.141 sec  (  4.5%)


           ************************************************************
           *        Program running with 24 parallel MPI-processes    *
           *              working on a common directory               *
           ************************************************************

------------------------------------------------------------------------------
                                ORCA  MP2 
------------------------------------------------------------------------------

Freezing NCore=0 chemical core electrons

----------------------
RI-MP2 ENERGY+GRADIENT
----------------------
Dimension of the basis                    ...   73
Memory devoted to MP2                     ... 5000 MB   
Data format for buffers                   ... DOUBLE
Compression type for matrix containers    ... UNCOMPRESSED
Scaling for aa/bb pairs                   ...   4.000e-01
Scaling for ab pairs                      ...   4.700e-01
Overall scaling of the MP2 energy         ...   1.000e+00
Calculating two index integrals           ... done (    0.003 sec)
Cholesky decomposition of the V-matrix    ... done
Cholesky decomposition of V**-1           ... done (    0.002 sec)

-----------------
RI-TRANSFORMATION (AUX index driven)
-----------------

Dimension of the orbital-basis         ... 73
Dimension of the aux-basis             ... 215
Transformation of internal MOs         ...    0-   9
Transformation of internal/external MOs...    0-   9 to   10-  72
Number Format for Storage              ... Double (8 Byte)
Integral mode                          ... Direct

First Phase: integral generation and transformation of MO indices
  Aux angular momentum 0               ... done (    0.000 sec)
  Aux angular momentum 1               ... done (    0.000 sec)
  Aux angular momentum 2               ... done (    0.001 sec)
  Aux angular momentum 3               ... done (    0.001 sec)
  Aux angular momentum 4               ... done (    0.001 sec)
  Aux angular momentum 5               ... done (    0.002 sec)
  Aux angular momentum 6               ... done (    0.003 sec)
Closing buffer VIJ ( 0.00 GB; CompressionRatio= 0.97)
Closing buffer VIA ( 0.00 GB; CompressionRatio= 1.00)
  Phase 1 completed in     0.097 sec
Second Phase: sorting and transformation of aux index

IJ-Transformation
Memory available                       ... 4998 MB 
Max. # MO pairs treated in a batch     ... 1    
# of internal orbitals                 ... 10
# batches for internal orbitals        ... 1
Closing buffer IJV ( 0.00 GB; CompressionRatio= 0.99)
(ij|v) transformation done in     0.017 sec

IA-Transformation
Memory available                       ... 4998 MB 
Max. # MO pairs treated in a batch     ... 1    
# of internal orbitals                 ... 10
# batches for internal orbitals        ... 1
Closing buffer IAV ( 0.00 GB; CompressionRatio= 1.00)
(ia|v) transformation done in     0.015 sec

  Phase 2 completed in     0.041 sec
RI-Integral transformation completed in     0.140 sec
Opening buffers                              ... done

Starting loop over batches of integrals:

Operator 0  - window                       ... (  0-  9)x( 10- 72)
Operator 0  - Memory available             ...  5000 MB
Operator 0  - Memory needed per MO         ...   0.2 MB
Operator 0  - Number of orbitals per batch ... 1
Operator 0  - Number of batches            ... 1

OPERATOR  0   PASS   0:  MOs     0 ...    0 +    1 ...    1 +    2 ...    2 +    3 ...    3
                            +    4 ...    4 +    5 ...    5 +    6 ...    6 +    7 ...    7
                            +    8 ...    8 +    9 ...    9
  Reading integrals       ... ok
Closing buffer GIPV ( 0.00 GB; CompressionRatio= 1.00)
Time spent in pair loops =     0.038 sec

-----------------------------------------------
 RI-MP2 CORRELATION ENERGY:     -0.339486329 Eh
-----------------------------------------------


---------------------
MP2 DENSITY FORMATION
---------------------

Completing the external part of the density      ... done
Storing the unrelaxed density                    ... done

Calculating the xc-kernel                        ... done
Calculating G(D)                                 ... done
Completing the Lagrangian                        ... done
Solving the Z-vector equations                   ... 

------------------------------------------------------------------------------
                           ORCA CP-SCF CALCULATION
------------------------------------------------------------------------------

Input orbitals are from        ... Ag01N0_H.gbw
Input Perturbation             ... Ag01N0_H.pin.tmp
Wavefunction output            ... Ag01N0_H.pout.tmp
Perturbation mode              ... Real perturbation (singlet)
Solver                         ... POPLE
Max. number of iterations      ... 128
Convergence tolerance          ... 1.000e-08
Integral handling              ... Direct
Number of perturbations        ... 1
Number of operators            ... 1
Orbital ranges used for CP-SCF:
 Operator 0:  Orbitals   0...  9  to  10... 72
DFT calculation                         ... on
Exchange functional (SCF)               ... B88
Exchange functional (CP-SCF)            ... B88
   X-Alpha parameter    XAlpha (SCF)    ...  0.666667
   X-Alpha parameter    XAlpha (CP-SCF) ...  0.666667
   Becke's b parameter  XBeta (SCF)     ...  0.004200
   Becke's b parameter  XBeta (CP-SCF)  ...  0.004200
Correlation functional (SCF)            ... LYP
Correlation functional (CP-SCF)         ... LYP
 LDA part of GGA corr.  LDAOpt (SCF)    ... VWN-5
 LDA part of GGA corr.  LDAOpt (CP-SCF) ... VWN-5
Hybrid DFT                              ... on
   Exchange mixing (SCF)                ...  0.710
   Exchange mixing (CP-SCF)             ...  0.710
   GGA exch. scaling(SCF)               ...  0.290
   GGA exch. scaling (CP-SCF)           ...  0.290
   GGA corr. scaling (SCF)              ...  0.540
   GGA corr. scaling (CP-SCF)           ...  0.540
Variables per vector in CP-SCF ... 630
Number of vectors sought       ... 1
Recalculating density on grid  ... done
Calculating the xc-kernel      ... done
     CP-SCF ITERATION   0: 
     CP-SCF ITERATION   1:      0.000934085017
     CP-SCF ITERATION   2:      0.000163584271
     CP-SCF ITERATION   3:      0.000009556835
     CP-SCF ITERATION   4:      0.000000637945
     CP-SCF ITERATION   5:      0.000000033383
     CP-SCF ITERATION   6:      0.000000000406
done
Finalizing the relaxed density                   ... done
Transforming P to the AO basis                   ... done
Storing the relaxed density                      ... done

------------------------------------
ENERGY WEIGHTED DENSITY FINALIZATION
------------------------------------

Gathering the parts of the W-matrix              ... done
Forming the Z-density                            ... done
Transforming Z to the AO basis                   ... done
Calculating G(Z)                                 ... done
Finalizing the W-matrix                          ... done
Transforming W to the AO basis and storing       ... done
Entering the RIJONX and RIJCOSX sections
Starting the three-index derivative integrals:
Operator 0  - Memory available             ...  5000 MB
Operator 0  - Memory needed per MO         ...   0.2 MB
Operator 0  - Number of orbitals per batch ... 1
Operator 0  - Number of batches            ... 1

OPERATOR  0   PASS   0:  MOs     0 ...    0 +    1 ...    1 +    2 ...    2 +    3 ...    3
                            +    4 ...    4 +    5 ...    5 +    6 ...    6 +    7 ...    7
                            +    8 ...    8 +    9 ...    9

----------------------------------
MP2 DERIVATIVE INTEGRAL GENERATION
----------------------------------


Input Correlated Electron Density   ... Ag01N0_H.pmp2re
Input Energy Weighted Density       ... Ag01N0_H.wmp2.tmp
Input SCF Electron Density          ... Ag01N0_H.scfp

One-Electron Terms    ...
  ECP gradient                                           ... One-Electron Terms done
Prescreening matrices              ... done
Exchange-correlation gradient    ... done
Dispersion correction            ... done

                *********************************************
                * UNRELAXED MP2 DENSITY POPULATION ANALYSIS *
                *********************************************

------------------------------------------------------------------------------
                           ORCA POPULATION ANALYSIS
------------------------------------------------------------------------------
Input electron density              ... Ag01N0_H.pmp2ur
BaseName (.gbw .S,...)              ... Ag01N0_H

                    ********************************
                    * MULLIKEN POPULATION ANALYSIS *
                    ********************************

-----------------------
MULLIKEN ATOMIC CHARGES
-----------------------
   0 Ag:    0.123034
   1 H :   -0.123034
Sum of atomic charges:   -0.0000000

--------------------------------
MULLIKEN REDUCED ORBITAL CHARGES
--------------------------------
  0 Ags       :     2.843430  s :     2.843430
      pz      :     2.121654  p :     6.129060
      px      :     2.003703
      py      :     2.003703
      dz2     :     1.899679  d :     9.843778
      dxz     :     1.983558
      dyz     :     1.983558
      dx2y2   :     1.988492
      dxy     :     1.988492
      f0      :     0.009187  f :     0.056586
      f+1     :     0.007886
      f-1     :     0.007886
      f+2     :     0.007964
      f-2     :     0.007964
      f+3     :     0.007849
      f-3     :     0.007849
      g0      :     0.000492  g :     0.004113
      g+1     :     0.000460
      g-1     :     0.000460
      g+2     :     0.000455
      g-2     :     0.000455
      g+3     :     0.000451
      g-3     :     0.000451
      g+4     :     0.000445
      g-4     :     0.000445
  1 H s       :     1.109537  s :     1.109537
      pz      :    -0.001088  p :     0.011565
      px      :     0.006327
      py      :     0.006327
      dz2     :     0.000717  d :     0.001931
      dxz     :     0.000537
      dyz     :     0.000537
      dx2y2   :     0.000070
      dxy     :     0.000070


                     *******************************
                     * LOEWDIN POPULATION ANALYSIS *
                     *******************************

----------------------
LOEWDIN ATOMIC CHARGES
----------------------
   0 Ag:    0.324948
   1 H :   -0.324948

-------------------------------
LOEWDIN REDUCED ORBITAL CHARGES
-------------------------------
  0 Ags       :     2.687169  s :     2.687169
      pz      :     2.123810  p :     6.127274
      px      :     2.001732
      py      :     2.001732
      dz2     :     1.897465  d :     9.797821
      dxz     :     1.961881
      dyz     :     1.961881
      dx2y2   :     1.988297
      dxy     :     1.988297
      f0      :     0.010972  f :     0.058656
      f+1     :     0.008029
      f-1     :     0.008029
      f+2     :     0.007964
      f-2     :     0.007964
      f+3     :     0.007849
      f-3     :     0.007849
      g0      :     0.000516  g :     0.004133
      g+1     :     0.000458
      g-1     :     0.000458
      g+2     :     0.000454
      g-2     :     0.000454
      g+3     :     0.000451
      g-3     :     0.000451
      g+4     :     0.000445
      g-4     :     0.000445
  1 H s       :     1.147876  s :     1.147876
      pz      :     0.104908  p :     0.156778
      px      :     0.025935
      py      :     0.025935
      dz2     :     0.010892  d :     0.020294
      dxz     :     0.004436
      dyz     :     0.004436
      dx2y2   :     0.000265
      dxy     :     0.000265


                      *****************************
                      * MAYER POPULATION ANALYSIS *
                      *****************************

  NA   - Mulliken gross atomic population
  ZA   - Total nuclear charge
  QA   - Mulliken gross atomic charge
  VA   - Mayer's total valence
  BVA  - Mayer's bonded valence
  FA   - Mayer's free valence

  ATOM       NA         ZA         QA         VA         BVA        FA
  0 Ag    18.8770    19.0000     0.1230     1.5427     1.0049     0.5378
  1 H      1.1230     1.0000    -0.1230     1.0640     1.0049     0.0591

  Mayer bond orders larger than 0.100000
B(  0-Ag,  1-H ) :   1.0049 


                *******************************************
                * RELAXED MP2 DENSITY POPULATION ANALYSIS *
                *******************************************

------------------------------------------------------------------------------
                           ORCA POPULATION ANALYSIS
------------------------------------------------------------------------------
Input electron density              ... Ag01N0_H.pmp2re
BaseName (.gbw .S,...)              ... Ag01N0_H

                    ********************************
                    * MULLIKEN POPULATION ANALYSIS *
                    ********************************

-----------------------
MULLIKEN ATOMIC CHARGES
-----------------------
   0 Ag:    0.035495
   1 H :   -0.035495
Sum of atomic charges:   -0.0000000

--------------------------------
MULLIKEN REDUCED ORBITAL CHARGES
--------------------------------
  0 Ags       :     2.979212  s :     2.979212
      pz      :     2.097639  p :     6.104888
      px      :     2.003624
      py      :     2.003624
      dz2     :     1.880372  d :     9.819979
      dxz     :     1.981295
      dyz     :     1.981295
      dx2y2   :     1.988509
      dxy     :     1.988509
      f0      :     0.009053  f :     0.056306
      f+1     :     0.007840
      f-1     :     0.007840
      f+2     :     0.007937
      f-2     :     0.007937
      f+3     :     0.007849
      f-3     :     0.007849
      g0      :     0.000495  g :     0.004119
      g+1     :     0.000461
      g-1     :     0.000461
      g+2     :     0.000455
      g-2     :     0.000455
      g+3     :     0.000451
      g-3     :     0.000451
      g+4     :     0.000445
      g-4     :     0.000445
  1 H s       :     1.019648  s :     1.019648
      pz      :    -0.003719  p :     0.013485
      px      :     0.008602
      py      :     0.008602
      dz2     :     0.000908  d :     0.002362
      dxz     :     0.000648
      dyz     :     0.000648
      dx2y2   :     0.000079
      dxy     :     0.000079


                     *******************************
                     * LOEWDIN POPULATION ANALYSIS *
                     *******************************

----------------------
LOEWDIN ATOMIC CHARGES
----------------------
   0 Ag:    0.309374
   1 H :   -0.309374

-------------------------------
LOEWDIN REDUCED ORBITAL CHARGES
-------------------------------
  0 Ags       :     2.764759  s :     2.764759
      pz      :     2.084077  p :     6.087486
      px      :     2.001705
      py      :     2.001705
      dz2     :     1.880589  d :     9.776144
      dxz     :     1.959470
      dyz     :     1.959470
      dx2y2   :     1.988307
      dxy     :     1.988307
      f0      :     0.010611  f :     0.058107
      f+1     :     0.007961
      f-1     :     0.007961
      f+2     :     0.007937
      f-2     :     0.007937
      f+3     :     0.007849
      f-3     :     0.007849
      g0      :     0.000512  g :     0.004129
      g+1     :     0.000458
      g-1     :     0.000458
      g+2     :     0.000455
      g-2     :     0.000455
      g+3     :     0.000451
      g-3     :     0.000451
      g+4     :     0.000445
      g-4     :     0.000445
  1 H s       :     1.118733  s :     1.118733
      pz      :     0.113743  p :     0.170428
      px      :     0.028342
      py      :     0.028342
      dz2     :     0.010584  d :     0.020213
      dxz     :     0.004534
      dyz     :     0.004534
      dx2y2   :     0.000280
      dxy     :     0.000280


                      *****************************
                      * MAYER POPULATION ANALYSIS *
                      *****************************

  NA   - Mulliken gross atomic population
  ZA   - Total nuclear charge
  QA   - Mulliken gross atomic charge
  VA   - Mayer's total valence
  BVA  - Mayer's bonded valence
  FA   - Mayer's free valence

  ATOM       NA         ZA         QA         VA         BVA        FA
  0 Ag    18.9645    19.0000     0.0355     1.5467     1.0302     0.5165
  1 H      1.0355     1.0000    -0.0355     1.0793     1.0302     0.0490

  Mayer bond orders larger than 0.100000
B(  0-Ag,  1-H ) :   1.0302 


-------
TIMINGS
-------

Total time                :    3.190 sec
Integral trafo            :    0.154 sec (  4.8%)
I/O of integrals          :    0.000 sec (  0.0%)
K(i,j) Operators          :    0.000 sec (  0.0%)
T(i,j) pair energies      :    0.000 sec (  0.0%)
V-calculation             :    0.003 sec (  0.1%)
V**(-1/2)                 :    0.002 sec (  0.1%)
Gamma(ia|P)               :    0.000 sec (  0.0%)
Gamma-Trafo               :    0.001 sec (  0.0%)
D(virtual)                :    0.000 sec (  0.0%)
D(internal)               :    0.000 sec (  0.0%)
W(virtual)                :    0.000 sec (  0.0%)
W(internal)               :    0.001 sec (  0.0%)
L(virtual)                :    0.023 sec (  0.7%)
L(internal)               :    0.000 sec (  0.0%)
G(D)                      :    0.323 sec ( 10.1%)
G(Z)                      :    0.247 sec (  7.7%)
Z-Vector Solution         :    1.663 sec ( 52.1%)
Z-Vector Solution         :    1.663 sec ( 52.1%)
3-Index Derivative 
+ Separable RIJ part      :    0.049 sec (  1.6%)
2-Index Derivative 
+ Separable RIJ part      :    0.001 sec (  0.0%)
Separable Gradient (X)    :    0.625 sec ( 19.6%)


---------------------------------------
MP2 TOTAL ENERGY:     -147.430900656 Eh
---------------------------------------

-----------------------------------
NORM OF THE MP2 GRADIENT:  0.003253
-----------------------------------


-------------------------------------------------------------------------------
                          DFT DISPERSION CORRECTION                            
                                                                               
                              DFTD3 V3.1  Rev 1                                
                          USING Becke-Johnson damping                          
-------------------------------------------------------------------------------
The DSD-BLYP/2013 functional is recognized
Active option DFTDOPT                   ...         4   

molecular C6(AA) [au] = 331.597041 


            DFT-D V3
 parameters
 s6 scaling factor         :     0.5700 
 a1 scaling factor         :     0.0000 
 s8 scaling factor         :     0.0000 
 a2 scaling factor         :     5.4000 
 ad hoc parameters k1-k3   :    16.0000     1.3333    -4.0000 

 Edisp/kcal,au: -0.397922591758  -0.000634129947 
 E6   /kcal   :  -0.397922592 
 E8   /kcal   :  -0.000000000 
 % E8         :   0.000000000 

-------------------------   ----------------
Dispersion correction           -0.000634130
-------------------------   ----------------


-------------------------   --------------------
FINAL SINGLE POINT ENERGY      -147.431534785690
-------------------------   --------------------

------------------------------------------------------------------------------
                         ORCA GEOMETRY RELAXATION STEP
------------------------------------------------------------------------------

Reading the OPT-File                    .... done
Getting information on internals        .... done
Copying old internal coords+grads       .... done
Making the new internal coordinates     .... (new redundants).... done
Validating the new internal coordinates .... (new redundants).... done
Calculating the B-matrix                .... done
Calculating the G,G- and P matrices     .... done
Transforming gradient to internals      .... done
Projecting the internal gradient        .... done
Number of atoms                         ....   2
Number of internal coordinates          ....   1
Current Energy                          ....  -147.431534786 Eh
Current gradient norm                   ....     0.003252858 Eh/bohr
Maximum allowed component of the step   ....  0.300
Current trust radius                    ....  0.300
Evaluating the initial hessian          ....  (Almloef) done
Projecting the Hessian                  .... done
Forming the augmented Hessian           .... done
Diagonalizing the augmented Hessian     .... done
Last element of RFO vector              ....  0.999990892
Lowest eigenvalues of augmented Hessian:
 -0.000009817
Length of the computed step             ....  0.004267998
The final length of the internal step   ....  0.004267998
Converting the step to cartesian space:
 Initial RMS(Int)=    0.0042679978
Transforming coordinates:
 Iter   0:  RMS(Cart)=    0.0012320648 RMS(Int)=    0.0042679978
 Iter   1:  RMS(Cart)=    0.0000000000 RMS(Int)=    0.0000000000
done
Storing new coordinates                 .... done

                                .--------------------.
          ----------------------|Geometry convergence|-------------------------
          Item                value                   Tolerance       Converged
          ---------------------------------------------------------------------
          RMS gradient        0.0023001150            0.0001000000      NO
          MAX gradient        0.0023001150            0.0003000000      NO
          RMS step            0.0042679978            0.0020000000      NO
          MAX step            0.0042679978            0.0040000000      NO
          ........................................................
          Max(Bonds)      0.0023      Max(Angles)    0.00
          Max(Dihed)        0.00      Max(Improp)    0.00
          ---------------------------------------------------------------------

The optimization has not yet converged - more geometry cycles are needed


    ---------------------------------------------------------------------------
                         Redundant Internal Coordinates
                            (Angstroem and degrees)

        Definition                    Value    dE/dq     Step     New-Value
    ----------------------------------------------------------------------------
     1. B(H   1,Ag  0)                1.6103  0.002300 -0.0023    1.6080   
    ----------------------------------------------------------------------------

         *************************************************************
         *                GEOMETRY OPTIMIZATION CYCLE   2            *
         *************************************************************
---------------------------------
CARTESIAN COORDINATES (ANGSTROEM)
---------------------------------
  Ag     0.000000    0.000000    0.032418
  H      0.000000    0.000000   -1.575577

----------------------------
CARTESIAN COORDINATES (A.U.)
----------------------------
  NO LB      ZA    FRAG     MASS         X           Y           Z
   0 Ag   19.0000*   0   107.870    0.000000    0.000000    0.061261
   1 H     1.0000    0     1.008    0.000000    0.000000   -2.977409
* core charge reduced due to ECP

--------------------------------
INTERNAL COORDINATES (ANGSTROEM)
--------------------------------
 Ag     0   0   0     0.000000000000     0.00000000     0.00000000
 H      1   0   0     1.607994472828     0.00000000     0.00000000

---------------------------
INTERNAL COORDINATES (A.U.)
---------------------------
 Ag     0   0   0     0.000000000000     0.00000000     0.00000000
 H      1   0   0     3.038669178505     0.00000000     0.00000000



           ************************************************************
           *        Program running with 24 parallel MPI-processes    *
           *              working on a common directory               *
           ************************************************************
 One Electron integrals                  ... done
 Pre-screening matrix                    ... done


           ************************************************************
           *        Program running with 24 parallel MPI-processes    *
           *              working on a common directory               *
           ************************************************************

Diagonalization of the overlap matrix:
Smallest eigenvalue                        ... 3.287e-03
Time for diagonalization                   ...    0.003 sec
Threshold for overlap eigenvalues          ... 1.000e-08
Number of eigenvalues below threshold      ... 0
Time for construction of square roots      ...    0.001 sec
Total time needed                          ...    0.005 sec

-------------------
DFT GRID GENERATION
-------------------

General Integration Accuracy     IntAcc      ...  4.670
Radial Grid Type                 RadialGrid  ... Gauss-Chebyshev
Angular Grid (max. acc.)         AngularGrid ... Lebedev-302
Angular grid pruning method      GridPruning ... 3 (G Style)
Weight generation scheme         WeightScheme... Becke
Basis function cutoff            BFCut       ...    1.0000e-11
Integration weight cutoff        WCut        ...    1.0000e-14
Grids for H and He will be reduced by one unit

# of grid points (after initial pruning)     ...  14052 (   0.0 sec)
# of grid points (after weights+screening)   ...  13996 (   0.0 sec)
nearest neighbour list constructed           ...    0.0 sec
Grid point re-assignment to atoms done       ...    0.0 sec
Grid point division into batches done        ...    0.1 sec
Reduced shell lists constructed in    0.1 sec

Total number of grid points                  ...    13996
Total number of batches                      ...      219
Average number of points per batch           ...       63
Average number of grid points per atom       ...     6998
Average number of shells per batch           ...     2.27 ( 9.88%)
Average number of basis functions per batch  ...     4.82 ( 6.60%)
Average number of large shells per batch     ...     2.09 (92.00%)
Average number of large basis fcns per batch ...     4.09 (84.91%)
Average number of aux-shells per batch       ...     2.27 ( 4.13%)
Average number of aux functions per batch    ...     4.82 ( 1.76%)
Maximum spatial batch extension              ...  40.43, 36.77, 24.59 au
Average spatial batch extension              ...   1.33,  1.23,  0.90 au

Time for grid setup =    0.134 sec

--------------
SCF ITERATIONS
--------------
ITER       Energy         Delta-E        Max-DP      RMS-DP      [F,P]     Damp
  0   -147.0913633734   0.000000000000 0.00006594  0.00000265  0.0039288 0.7000
  1   -147.0913524478   0.000010925588 0.00009863  0.00000324  0.0027689 0.7000
                               ***Turning on DIIS***
  2   -147.0913495620   0.000002885803 0.00037555  0.00001026  0.0019401 0.0000
  3   -147.0913638919  -0.000014329889 0.00018654  0.00000449  0.0000944 0.0000
  4   -147.0913639123  -0.000000020463 0.00002708  0.00000101  0.0000576 0.0000
  5   -147.0913639184  -0.000000006094 0.00003281  0.00000101  0.0000149 0.0000
  6   -147.0913639201  -0.000000001666 0.00001642  0.00000059  0.0000074 0.0000
  7   -147.0913639206  -0.000000000480 0.00001134  0.00000031  0.0000043 0.0000
                 **** Energy Check signals convergence ****

               *****************************************************
               *                     SUCCESS                       *
               *           SCF CONVERGED AFTER   8 CYCLES          *
               *****************************************************

Total Energy       :         -147.09136392 Eh           -4002.55950 eV
  Last Energy change         ...   -9.1234e-11  Tolerance :   1.0000e-08
  Last MAX-Density change    ...    2.8016e-06  Tolerance :   1.0000e-07
             **** THE GBW FILE WAS UPDATED (Ag01N0_H.gbw) ****
             **** DENSITY FILE WAS UPDATED (Ag01N0_H.scfp) ****
             **** ENERGY FILE WAS UPDATED (Ag01N0_H.en.tmp) ****
             **** THE GBW FILE WAS UPDATED (Ag01N0_H.gbw) ****
             **** DENSITY FILE WAS UPDATED (Ag01N0_H.scfp) ****
Total SCF time: 0 days 0 hours 0 min 1 sec 


           ************************************************************
           *        Program running with 24 parallel MPI-processes    *
           *              working on a common directory               *
           ************************************************************

------------------------------------------------------------------------------
                                ORCA  MP2 
------------------------------------------------------------------------------

Freezing NCore=0 chemical core electrons

----------------------
RI-MP2 ENERGY+GRADIENT
----------------------
Dimension of the basis                    ...   73
Memory devoted to MP2                     ... 5000 MB   
Data format for buffers                   ... DOUBLE
Compression type for matrix containers    ... UNCOMPRESSED
Scaling for aa/bb pairs                   ...   4.000e-01
Scaling for ab pairs                      ...   4.700e-01
Overall scaling of the MP2 energy         ...   1.000e+00
Calculating two index integrals           ... done (    0.004 sec)
Cholesky decomposition of the V-matrix    ... done
Cholesky decomposition of V**-1           ... done (    0.002 sec)

-----------------
RI-TRANSFORMATION (AUX index driven)
-----------------

Dimension of the orbital-basis         ... 73
Dimension of the aux-basis             ... 215
Transformation of internal MOs         ...    0-   9
Transformation of internal/external MOs...    0-   9 to   10-  72
Number Format for Storage              ... Double (8 Byte)
Integral mode                          ... Direct

First Phase: integral generation and transformation of MO indices
  Aux angular momentum 0               ... done (    0.000 sec)
  Aux angular momentum 1               ... done (    0.000 sec)
  Aux angular momentum 2               ... done (    0.001 sec)
  Aux angular momentum 3               ... done (    0.001 sec)
  Aux angular momentum 4               ... done (    0.001 sec)
  Aux angular momentum 5               ... done (    0.002 sec)
  Aux angular momentum 6               ... done (    0.002 sec)
Closing buffer VIJ ( 0.00 GB; CompressionRatio= 0.97)
Closing buffer VIA ( 0.00 GB; CompressionRatio= 1.00)
  Phase 1 completed in     0.094 sec
Second Phase: sorting and transformation of aux index

IJ-Transformation
Memory available                       ... 4998 MB 
Max. # MO pairs treated in a batch     ... 1    
# of internal orbitals                 ... 10
# batches for internal orbitals        ... 1
Closing buffer IJV ( 0.00 GB; CompressionRatio= 0.99)
(ij|v) transformation done in     0.001 sec

IA-Transformation
Memory available                       ... 4998 MB 
Max. # MO pairs treated in a batch     ... 1    
# of internal orbitals                 ... 10
# batches for internal orbitals        ... 1
Closing buffer IAV ( 0.00 GB; CompressionRatio= 1.00)
(ia|v) transformation done in     0.002 sec

  Phase 2 completed in     0.008 sec
RI-Integral transformation completed in     0.104 sec
Opening buffers                              ... done

Starting loop over batches of integrals:

Operator 0  - window                       ... (  0-  9)x( 10- 72)
Operator 0  - Memory available             ...  5000 MB
Operator 0  - Memory needed per MO         ...   0.2 MB
Operator 0  - Number of orbitals per batch ... 1
Operator 0  - Number of batches            ... 1

OPERATOR  0   PASS   0:  MOs     0 ...    0 +    1 ...    1 +    2 ...    2 +    3 ...    3
                            +    4 ...    4 +    5 ...    5 +    6 ...    6 +    7 ...    7
                            +    8 ...    8 +    9 ...    9
  Reading integrals       ... ok
Closing buffer GIPV ( 0.00 GB; CompressionRatio= 1.00)
Time spent in pair loops =     0.026 sec

-----------------------------------------------
 RI-MP2 CORRELATION ENERGY:     -0.339545289 Eh
-----------------------------------------------


---------------------
MP2 DENSITY FORMATION
---------------------

Completing the external part of the density      ... done
Storing the unrelaxed density                    ... done

Calculating the xc-kernel                        ... done
Calculating G(D)                                 ... done
Completing the Lagrangian                        ... done
Solving the Z-vector equations                   ... 

------------------------------------------------------------------------------
                           ORCA CP-SCF CALCULATION
------------------------------------------------------------------------------

Input orbitals are from        ... Ag01N0_H.gbw
Input Perturbation             ... Ag01N0_H.pin.tmp
Wavefunction output            ... Ag01N0_H.pout.tmp
Perturbation mode              ... Real perturbation (singlet)
Solver                         ... POPLE
Max. number of iterations      ... 128
Convergence tolerance          ... 1.000e-08
Integral handling              ... Direct
Number of perturbations        ... 1
Number of operators            ... 1
Orbital ranges used for CP-SCF:
 Operator 0:  Orbitals   0...  9  to  10... 72
DFT calculation                         ... on
Exchange functional (SCF)               ... B88
Exchange functional (CP-SCF)            ... B88
   X-Alpha parameter    XAlpha (SCF)    ...  0.666667
   X-Alpha parameter    XAlpha (CP-SCF) ...  0.666667
   Becke's b parameter  XBeta (SCF)     ...  0.004200
   Becke's b parameter  XBeta (CP-SCF)  ...  0.004200
Correlation functional (SCF)            ... LYP
Correlation functional (CP-SCF)         ... LYP
 LDA part of GGA corr.  LDAOpt (SCF)    ... VWN-5
 LDA part of GGA corr.  LDAOpt (CP-SCF) ... VWN-5
Hybrid DFT                              ... on
   Exchange mixing (SCF)                ...  0.710
   Exchange mixing (CP-SCF)             ...  0.710
   GGA exch. scaling(SCF)               ...  0.290
   GGA exch. scaling (CP-SCF)           ...  0.290
   GGA corr. scaling (SCF)              ...  0.540
   GGA corr. scaling (CP-SCF)           ...  0.540
Variables per vector in CP-SCF ... 630
Number of vectors sought       ... 1
Recalculating density on grid  ... done
Calculating the xc-kernel      ... done
     CP-SCF ITERATION   0: 
     CP-SCF ITERATION   1:      0.000934834356
     CP-SCF ITERATION   2:      0.000163841589
     CP-SCF ITERATION   3:      0.000009559402
     CP-SCF ITERATION   4:      0.000000637392
     CP-SCF ITERATION   5:      0.000000033369
     CP-SCF ITERATION   6:      0.000000000406
done
Finalizing the relaxed density                   ... done
Transforming P to the AO basis                   ... done
Storing the relaxed density                      ... done

------------------------------------
ENERGY WEIGHTED DENSITY FINALIZATION
------------------------------------

Gathering the parts of the W-matrix              ... done
Forming the Z-density                            ... done
Transforming Z to the AO basis                   ... done
Calculating G(Z)                                 ... done
Finalizing the W-matrix                          ... done
Transforming W to the AO basis and storing       ... done
Entering the RIJONX and RIJCOSX sections
Starting the three-index derivative integrals:
Operator 0  - Memory available             ...  5000 MB
Operator 0  - Memory needed per MO         ...   0.2 MB
Operator 0  - Number of orbitals per batch ... 1
Operator 0  - Number of batches            ... 1

OPERATOR  0   PASS   0:  MOs     0 ...    0 +    1 ...    1 +    2 ...    2 +    3 ...    3
                            +    4 ...    4 +    5 ...    5 +    6 ...    6 +    7 ...    7
                            +    8 ...    8 +    9 ...    9

----------------------------------
MP2 DERIVATIVE INTEGRAL GENERATION
----------------------------------


Input Correlated Electron Density   ... Ag01N0_H.pmp2re
Input Energy Weighted Density       ... Ag01N0_H.wmp2.tmp
Input SCF Electron Density          ... Ag01N0_H.scfp

One-Electron Terms    ...
  ECP gradient                                           ... One-Electron Terms done
Prescreening matrices              ... done
Exchange-correlation gradient    ... done
Dispersion correction            ... done

-------
TIMINGS
-------

Total time                :    3.140 sec
Integral trafo            :    0.115 sec (  3.7%)
I/O of integrals          :    0.000 sec (  0.0%)
K(i,j) Operators          :    0.000 sec (  0.0%)
T(i,j) pair energies      :    0.000 sec (  0.0%)
V-calculation             :    0.004 sec (  0.1%)
V**(-1/2)                 :    0.002 sec (  0.1%)
Gamma(ia|P)               :    0.000 sec (  0.0%)
Gamma-Trafo               :    0.001 sec (  0.0%)
D(virtual)                :    0.000 sec (  0.0%)
D(internal)               :    0.000 sec (  0.0%)
W(virtual)                :    0.000 sec (  0.0%)
W(internal)               :    0.001 sec (  0.0%)
L(virtual)                :    0.016 sec (  0.5%)
L(internal)               :    0.000 sec (  0.0%)
G(D)                      :    0.307 sec (  9.8%)
G(Z)                      :    0.246 sec (  7.8%)
Z-Vector Solution         :    1.684 sec ( 53.6%)
Z-Vector Solution         :    1.684 sec ( 53.6%)
3-Index Derivative 
+ Separable RIJ part      :    0.048 sec (  1.5%)
2-Index Derivative 
+ Separable RIJ part      :    0.001 sec (  0.0%)
Separable Gradient (X)    :    0.626 sec ( 19.9%)


---------------------------------------
MP2 TOTAL ENERGY:     -147.430909209 Eh
---------------------------------------

-----------------------------------
NORM OF THE MP2 GRADIENT:  0.002516
-----------------------------------


-------------------------------------------------------------------------------
                          DFT DISPERSION CORRECTION                            
                                                                               
                              DFTD3 V3.1  Rev 1                                
                          USING Becke-Johnson damping                          
-------------------------------------------------------------------------------
-------------------------   ----------------
Dispersion correction           -0.000634229
-------------------------   ----------------


-------------------------   --------------------
FINAL SINGLE POINT ENERGY      -147.431543438856
-------------------------   --------------------

------------------------------------------------------------------------------
                         ORCA GEOMETRY RELAXATION STEP
------------------------------------------------------------------------------

Reading the OPT-File                    .... done
Getting information on internals        .... done
Copying old internal coords+grads       .... done
Making the new internal coordinates     .... (new redundants).... done
Validating the new internal coordinates .... (new redundants).... done
Calculating the B-matrix                .... done
Calculating the G,G- and P matrices     .... done
Transforming gradient to internals      .... done
Projecting the internal gradient        .... done
Number of atoms                         ....   2
Number of internal coordinates          ....   1
Current Energy                          ....  -147.431543439 Eh
Current gradient norm                   ....     0.002515660 Eh/bohr
Maximum allowed component of the step   ....  0.300
Current trust radius                    ....  0.300
Updating the Hessian (BFGS)             .... done
Forming the augmented Hessian           .... done
Diagonalizing the augmented Hessian     .... done
Last element of RFO vector              ....  0.999894002
Lowest eigenvalues of augmented Hessian:
 -0.000025902
Length of the computed step             ....  0.014561246
The final length of the internal step   ....  0.014561246
Converting the step to cartesian space:
 Initial RMS(Int)=    0.0145612458
Transforming coordinates:
 Iter   0:  RMS(Cart)=    0.0042034696 RMS(Int)=    0.0145612458
 Iter   1:  RMS(Cart)=    0.0000000000 RMS(Int)=    0.0000000000
done
Storing new coordinates                 .... done

                                .--------------------.
          ----------------------|Geometry convergence|-------------------------
          Item                value                   Tolerance       Converged
          ---------------------------------------------------------------------
          Energy change      -0.0000086532            0.0000050000      NO
          RMS gradient        0.0017788367            0.0001000000      NO
          MAX gradient        0.0017788367            0.0003000000      NO
          RMS step            0.0145612458            0.0020000000      NO
          MAX step            0.0145612458            0.0040000000      NO
          ........................................................
          Max(Bonds)      0.0077      Max(Angles)    0.00
          Max(Dihed)        0.00      Max(Improp)    0.00
          ---------------------------------------------------------------------

The optimization has not yet converged - more geometry cycles are needed


    ---------------------------------------------------------------------------
                         Redundant Internal Coordinates
                            (Angstroem and degrees)

        Definition                    Value    dE/dq     Step     New-Value
    ----------------------------------------------------------------------------
     1. B(H   1,Ag  0)                1.6080  0.001779 -0.0077    1.6003   
    ----------------------------------------------------------------------------

         *************************************************************
         *                GEOMETRY OPTIMIZATION CYCLE   3            *
         *************************************************************
---------------------------------
CARTESIAN COORDINATES (ANGSTROEM)
---------------------------------
  Ag     0.000000    0.000000    0.028565
  H      0.000000    0.000000   -1.571724

----------------------------
CARTESIAN COORDINATES (A.U.)
----------------------------
  NO LB      ZA    FRAG     MASS         X           Y           Z
   0 Ag   19.0000*   0   107.870    0.000000    0.000000    0.053980
   1 H     1.0000    0     1.008    0.000000    0.000000   -2.970128
* core charge reduced due to ECP

--------------------------------
INTERNAL COORDINATES (ANGSTROEM)
--------------------------------
 Ag     0   0   0     0.000000000000     0.00000000     0.00000000
 H      1   0   0     1.600288993423     0.00000000     0.00000000

---------------------------
INTERNAL COORDINATES (A.U.)
---------------------------
 Ag     0   0   0     0.000000000000     0.00000000     0.00000000
 H      1   0   0     3.024107932699     0.00000000     0.00000000



           ************************************************************
           *        Program running with 24 parallel MPI-processes    *
           *              working on a common directory               *
           ************************************************************
 One Electron integrals                  ... done
 Pre-screening matrix                    ... done


           ************************************************************
           *        Program running with 24 parallel MPI-processes    *
           *              working on a common directory               *
           ************************************************************

Diagonalization of the overlap matrix:
Smallest eigenvalue                        ... 3.190e-03
Time for diagonalization                   ...    0.002 sec
Threshold for overlap eigenvalues          ... 1.000e-08
Number of eigenvalues below threshold      ... 0
Time for construction of square roots      ...    0.001 sec
Total time needed                          ...    0.003 sec

-------------------
DFT GRID GENERATION
-------------------

General Integration Accuracy     IntAcc      ...  4.670
Radial Grid Type                 RadialGrid  ... Gauss-Chebyshev
Angular Grid (max. acc.)         AngularGrid ... Lebedev-302
Angular grid pruning method      GridPruning ... 3 (G Style)
Weight generation scheme         WeightScheme... Becke
Basis function cutoff            BFCut       ...    1.0000e-11
Integration weight cutoff        WCut        ...    1.0000e-14
Grids for H and He will be reduced by one unit

# of grid points (after initial pruning)     ...  14052 (   0.0 sec)
# of grid points (after weights+screening)   ...  13996 (   0.0 sec)
nearest neighbour list constructed           ...    0.0 sec
Grid point re-assignment to atoms done       ...    0.0 sec
Grid point division into batches done        ...    0.1 sec
Reduced shell lists constructed in    0.1 sec

Total number of grid points                  ...    13996
Total number of batches                      ...      220
Average number of points per batch           ...       63
Average number of grid points per atom       ...     6998
Average number of shells per batch           ...     2.27 ( 9.88%)
Average number of basis functions per batch  ...     4.82 ( 6.60%)
Average number of large shells per batch     ...     2.09 (92.00%)
Average number of large basis fcns per batch ...     4.09 (84.91%)
Average number of aux-shells per batch       ...     2.27 ( 4.13%)
Average number of aux functions per batch    ...     4.82 ( 1.76%)
[...]
      pz      :     2.096650  p :     6.103961
      px      :     2.003656
      py      :     2.003656
      dz2     :     1.877495  d :     9.816695
      dxz     :     1.981103
      dyz     :     1.981103
      dx2y2   :     1.988497
      dxy     :     1.988497
      f0      :     0.009081  f :     0.056356
      f+1     :     0.007840
      f-1     :     0.007840
      f+2     :     0.007943
      f-2     :     0.007943
      f+3     :     0.007854
      f-3     :     0.007854
      g0      :     0.000497  g :     0.004123
      g+1     :     0.000461
      g-1     :     0.000461
      g+2     :     0.000455
      g-2     :     0.000455
      g+3     :     0.000451
      g-3     :     0.000451
      g+4     :     0.000445
      g-4     :     0.000445
  1 H s       :     1.017796  s :     1.017796
      pz      :    -0.003580  p :     0.013962
      px      :     0.008771
      py      :     0.008771
      dz2     :     0.000940  d :     0.002458
      dxz     :     0.000677
      dyz     :     0.000677
      dx2y2   :     0.000082
      dxy     :     0.000082


                     *******************************
                     * LOEWDIN POPULATION ANALYSIS *
                     *******************************

----------------------
LOEWDIN ATOMIC CHARGES
----------------------
   0 Ag:    0.314095
   1 H :   -0.314095

-------------------------------
LOEWDIN REDUCED ORBITAL CHARGES
-------------------------------
  0 Ags       :     2.766658  s :     2.766658
      pz      :     2.082209  p :     6.085507
      px      :     2.001649
      py      :     2.001649
      dz2     :     1.877632  d :     9.771388
      dxz     :     1.958596
      dyz     :     1.958596
      dx2y2   :     1.988282
      dxy     :     1.988282
      f0      :     0.010692  f :     0.058219
      f+1     :     0.007967
      f-1     :     0.007967
      f+2     :     0.007943
      f-2     :     0.007943
      f+3     :     0.007854
      f-3     :     0.007854
      g0      :     0.000515  g :     0.004133
      g+1     :     0.000458
      g-1     :     0.000458
      g+2     :     0.000455
      g-2     :     0.000455
      g+3     :     0.000451
      g-3     :     0.000451
      g+4     :     0.000445
      g-4     :     0.000445
  1 H s       :     1.119034  s :     1.119034
      pz      :     0.115568  p :     0.173668
      px      :     0.029050
      py      :     0.029050
      dz2     :     0.011220  d :     0.021392
      dxz     :     0.004789
      dyz     :     0.004789
      dx2y2   :     0.000297
      dxy     :     0.000297


                      *****************************
                      * MAYER POPULATION ANALYSIS *
                      *****************************

  NA   - Mulliken gross atomic population
  ZA   - Total nuclear charge
  QA   - Mulliken gross atomic charge
  VA   - Mayer's total valence
  BVA  - Mayer's bonded valence
  FA   - Mayer's free valence

  ATOM       NA         ZA         QA         VA         BVA        FA
  0 Ag    18.9658    19.0000     0.0342     1.5496     1.0326     0.5171
  1 H      1.0342     1.0000    -0.0342     1.0815     1.0326     0.0489

  Mayer bond orders larger than 0.100000
B(  0-Ag,  1-H ) :   1.0326 


-------
TIMINGS
-------

Total time                :    3.225 sec
Integral trafo            :    0.148 sec (  4.6%)
I/O of integrals          :    0.000 sec (  0.0%)
K(i,j) Operators          :    0.000 sec (  0.0%)
T(i,j) pair energies      :    0.000 sec (  0.0%)
V-calculation             :    0.004 sec (  0.1%)
V**(-1/2)                 :    0.002 sec (  0.1%)
Gamma(ia|P)               :    0.000 sec (  0.0%)
Gamma-Trafo               :    0.001 sec (  0.0%)
D(virtual)                :    0.000 sec (  0.0%)
D(internal)               :    0.000 sec (  0.0%)
W(virtual)                :    0.000 sec (  0.0%)
W(internal)               :    0.001 sec (  0.0%)
L(virtual)                :    0.016 sec (  0.5%)
L(internal)               :    0.000 sec (  0.0%)
G(D)                      :    0.316 sec (  9.8%)
G(Z)                      :    0.249 sec (  7.7%)
Z-Vector Solution         :    1.721 sec ( 53.4%)
Z-Vector Solution         :    1.721 sec ( 53.4%)
3-Index Derivative 
+ Separable RIJ part      :    0.049 sec (  1.5%)
2-Index Derivative 
+ Separable RIJ part      :    0.001 sec (  0.0%)
Separable Gradient (X)    :    0.626 sec ( 19.4%)


---------------------------------------
MP2 TOTAL ENERGY:     -147.430921891 Eh
---------------------------------------

-----------------------------------
NORM OF THE MP2 GRADIENT:  0.000005
-----------------------------------


-------------------------------------------------------------------------------
                          DFT DISPERSION CORRECTION                            
                                                                               
                              DFTD3 V3.1  Rev 1                                
                          USING Becke-Johnson damping                          
-------------------------------------------------------------------------------
The DSD-BLYP/2013 functional is recognized
Active option DFTDOPT                   ...         4   

molecular C6(AA) [au] = 331.498168 


            DFT-D V3
 parameters
 s6 scaling factor         :     0.5700 
 a1 scaling factor         :     0.0000 
 s8 scaling factor         :     0.0000 
 a2 scaling factor         :     5.4000 
 ad hoc parameters k1-k3   :    16.0000     1.3333    -4.0000 

 Edisp/kcal,au: -0.398196760375  -0.000634566862 
 E6   /kcal   :  -0.398196760 
 E8   /kcal   :  -0.000000000 
 % E8         :   0.000000000 

-------------------------   ----------------
Dispersion correction           -0.000634567
-------------------------   ----------------


-------------------------   --------------------
FINAL SINGLE POINT ENERGY      -147.431556458111
-------------------------   --------------------

                                *** OPTIMIZATION RUN DONE ***

                            ***************************************
                            *     ORCA property calculations      *
                            ***************************************

                                    ---------------------
                                    Active property flags
                                    ---------------------
   (+) Dipole Moment


------------------------------------------------------------------------------
                       ORCA ELECTRIC PROPERTIES CALCULATION
------------------------------------------------------------------------------

Dipole Moment Calculation                       ... on
Quadrupole Moment Calculation                   ... off
Polarizability Calculation                      ... off
GBWName                                         ... Ag01N0_H.gbw
Electron density file                           ... Ag01N0_H.scfp
The origin for moment calculation is the CENTER OF MASS  = ( 0.000000,  0.000000  0.026131)

-------------
DIPOLE MOMENT
-------------
                                X             Y             Z
Electronic contribution:      0.00000       0.00000       3.89899
Nuclear contribution   :      0.00000       0.00000      -2.46441
                        -----------------------------------------
Total Dipole Moment    :      0.00000       0.00000       1.43458
                        -----------------------------------------
Magnitude (a.u.)       :      1.43458
Magnitude (Debye)      :      3.64642



--------------------
Rotational spectrum 
--------------------
 
Rotational constants in cm-1:     0.000000     6.590100     6.590100 
Rotational constants in MHz :     0.000000 197566.226254 197566.226254 

 Dipole components along the rotational axes: 
x,y,z [a.u.] :     1.434584     0.000000     0.000000 
x,y,z [Debye]:     3.646423     0.000000     0.000000 

 

                         *** MP2 UNRELAXED DENSITY ***

------------------------------------------------------------------------------
                       ORCA ELECTRIC PROPERTIES CALCULATION
------------------------------------------------------------------------------

Dipole Moment Calculation                       ... on
Quadrupole Moment Calculation                   ... off
Polarizability Calculation                      ... off
GBWName                                         ... Ag01N0_H.gbw
Electron density file                           ... Ag01N0_H.pmp2ur
The origin for moment calculation is the CENTER OF MASS  = ( 0.000000,  0.000000  0.026131)

-------------
DIPOLE MOMENT
-------------
                                X             Y             Z
Electronic contribution:      0.00000       0.00000       3.87841
Nuclear contribution   :      0.00000       0.00000      -2.46441
                        -----------------------------------------
Total Dipole Moment    :      0.00000       0.00000       1.41400
                        -----------------------------------------
Magnitude (a.u.)       :      1.41400
Magnitude (Debye)      :      3.59411



--------------------
Rotational spectrum 
--------------------
 
Rotational constants in cm-1:     0.000000     6.590100     6.590100 
Rotational constants in MHz :     0.000000 197566.226254 197566.226254 

 Dipole components along the rotational axes: 
x,y,z [a.u.] :     1.414003     0.000000     0.000000 
x,y,z [Debye]:     3.594111     0.000000     0.000000 

 

                           *** MP2 RELAXED DENSITY ***

------------------------------------------------------------------------------
                       ORCA ELECTRIC PROPERTIES CALCULATION
------------------------------------------------------------------------------

Dipole Moment Calculation                       ... on
Quadrupole Moment Calculation                   ... off
Polarizability Calculation                      ... off
GBWName                                         ... Ag01N0_H.gbw
Electron density file                           ... Ag01N0_H.pmp2re
The origin for moment calculation is the CENTER OF MASS  = ( 0.000000,  0.000000  0.026131)

-------------
DIPOLE MOMENT
-------------
                                X             Y             Z
Electronic contribution:      0.00000       0.00000       3.63393
Nuclear contribution   :      0.00000       0.00000      -2.46441
                        -----------------------------------------
Total Dipole Moment    :      0.00000       0.00000       1.16953
                        -----------------------------------------
Magnitude (a.u.)       :      1.16953
Magnitude (Debye)      :      2.97270



--------------------
Rotational spectrum 
--------------------
 
Rotational constants in cm-1:     0.000000     6.590100     6.590100 
Rotational constants in MHz :     0.000000 197566.226254 197566.226254 

 Dipole components along the rotational axes: 
x,y,z [a.u.] :     1.169526     0.000000     0.000000 
x,y,z [Debye]:     2.972698     0.000000     0.000000 

 

----------------------------------------------------------------------------
                           ORCA NUMERICAL FREQUENCIES
                              (24-process run)
----------------------------------------------------------------------------

Number of atoms                ... 2
Central differences            ... used
Number of displacements        ... 12
Numerical increment            ... 5.000e-03 bohr
IR-spectrum generation         ... on
Raman-spectrum generation      ... off
Surface Crossing Hessian       ... off

 WARNING: There are more processes than displacements to do
  ====> : Reducing number of processes to   6

The output will be reduced. Please look at the following files:
SCF program output             ... >Ag01N0_H.lastscf
Integral program output        ... >Ag01N0_H.lastint
Gradient program output        ... >Ag01N0_H.lastgrad
Dipole moment program output   ... >Ag01N0_H.lastmom
AutoCI program output          ... >Ag01N0_H.lastautoci


         <<< Energy and Gradient at the input geometry >>>

        <<< Energy and Gradient at displaced geometries >>>
             <<<Displacing   2/coordinate 1 (+)>>>
             <<<Displacing   1/coordinate 1 (+)>>>
             <<<Displacing   1/coordinate 3 (+)>>>
             <<<Displacing   1/coordinate 2 (+)>>>
             <<<Displacing   2/coordinate 2 (+)>>>
             <<<Displacing   2/coordinate 3 (+)>>>
             <<<Displacing   1/coordinate 2 (-)>>>
             <<<Displacing   1/coordinate 1 (-)>>>
             <<<Displacing   2/coordinate 1 (-)>>>
             <<<Displacing   2/coordinate 2 (-)>>>
             <<<Displacing   1/coordinate 3 (-)>>>
             <<<Displacing   2/coordinate 3 (-)>>>
Warning: T+R mode no 5 is zero 

-----------------------
VIBRATIONAL FREQUENCIES
-----------------------

Scaling factor for frequencies =  1.000000000 (already applied!)

   0:         0.00 cm**-1
   1:         0.00 cm**-1
   2:         0.00 cm**-1
   3:         0.00 cm**-1
   4:         0.00 cm**-1
   5:      1831.83 cm**-1


------------
NORMAL MODES
------------

These modes are the cartesian displacements weighted by the diagonal matrix
M(i,i)=1/sqrt(m[i]) where m[i] is the mass of the displaced atom
Thus, these vectors are normalized but *not* orthogonal

                  0          1          2          3          4          5    
      0       0.000000   0.000000   0.000000   0.000000   0.000000   0.000000
      1       0.000000   0.000000   0.000000   0.000000   0.000000   0.000000
      2       0.000000   0.000000   0.000000   0.000000   0.000000   0.009344
      3       0.000000   0.000000   0.000000   0.000000   0.000000   0.000000
      4       0.000000   0.000000   0.000000   0.000000   0.000000   0.000000
      5       0.000000   0.000000   0.000000   0.000000   0.000000  -0.999956


-----------
IR SPECTRUM  
-----------

 Mode    freq (cm**-1)   T**2         TX         TY         TZ
-------------------------------------------------------------------
   5:      1831.83   99.707800  (  0.000042  -0.000016   9.985379)

The first frequency considered to be a vibration is 5
The total number of vibrations considered is 1


--------------------------
THERMOCHEMISTRY AT 298.15K
--------------------------

Temperature         ... 298.15 K
Pressure            ... 1.00 atm
Total Mass          ... 108.88 AMU
The molecule is recognized as being linear

Throughout the following assumptions are being made:
  (1) The electronic state is orbitally nondegenerate
  (2) There are no thermally accessible electronically excited states
  (3) Hindered rotations indicated by low frequency modes are not
      treated as such but are treated as vibrations and this may
      cause some error
  (4) All equations used are the standard statistical mechanics
      equations for an ideal gas
  (5) All vibrations are strictly harmonic

freq.    1831.83  E(vib)   ...       0.00 

------------
INNER ENERGY
------------

The inner energy is: U= E(el) + E(ZPE) + E(vib) + E(rot) + E(trans)
    E(el)   - is the total energy from the electronic structure calculation
              = E(kin-el) + E(nuc-el) + E(el-el) + E(nuc-nuc)
    E(ZPE)  - the the zero temperature vibrational energy from the frequency calculation
    E(vib)  - the the finite temperature correction to E(ZPE) due to population
              of excited vibrational states
    E(rot)  - is the rotational thermal energy
    E(trans)- is the translational thermal energy

Summary of contributions to the inner energy U:
Electronic energy                ...   -147.43155629 Eh
Zero point energy                ...      0.00417321 Eh       2.62 kcal/mol
Thermal vibrational correction   ...      0.00000121 Eh       0.00 kcal/mol
Thermal rotational correction    ...      0.00094418 Eh       0.59 kcal/mol
Thermal translational correction ...      0.00141627 Eh       0.89 kcal/mol
-----------------------------------------------------------------------
Total thermal energy                   -147.42502142 Eh


Summary of corrections to the electronic energy:
(perhaps to be used in another calculation)
Total thermal correction                  0.00236166 Eh       1.48 kcal/mol
Non-thermal (ZPE) correction              0.00417321 Eh       2.62 kcal/mol
-----------------------------------------------------------------------
Total correction                          0.00653487 Eh       4.10 kcal/mol


--------
ENTHALPY
--------

The enthalpy is H = U + kB*T
                kB is Boltzmann's constant
Total free energy                 ...   -147.42502142 Eh 
Thermal Enthalpy correction       ...      0.00094421 Eh       0.59 kcal/mol
-----------------------------------------------------------------------
Total Enthalpy                    ...   -147.42407721 Eh


Note: Rotational entropy computed according to Herzberg 
Infrared and Raman Spectra, Chapter V,1, Van Nostrand Reinhold, 1945 
Point Group:  Cinfv, Symmetry Number:   1  
Rotational constants in cm-1:     0.000000     6.590100     6.590100 

Vibrational entropy computed according to the QRRHO of S. Grimme
Chem.Eur.J. 2012 18 9955


-------
ENTROPY
-------

The entropy contributions are T*S = T*(S(el)+S(vib)+S(rot)+S(trans))
     S(el)   - electronic entropy
     S(vib)  - vibrational entropy
     S(rot)  - rotational entropy
     S(trans)- translational entropy
The entropies will be listed as mutliplied by the temperature to get
units of energy

Electronic entropy                ...      0.00000000 Eh      0.00 kcal/mol
Vibrational entropy               ...      0.00000135 Eh      0.00 kcal/mol
Rotational entropy                ...      0.00419994 Eh      2.64 kcal/mol
Translational entropy             ...      0.01899171 Eh     11.92 kcal/mol
-----------------------------------------------------------------------
Final entropy term                ...      0.02319300 Eh     14.55 kcal/mol

In case the symmetry of your molecule has not been determined correctly
or in case you have a reason to use a different symmetry number we print 
out the resulting rotational entropy values for sn=1,12 :
 --------------------------------------------------------
|  sn= 1 | S(rot)=             -inf Eh      -inf kcal/mol|
|  sn= 2 | S(rot)=             -inf Eh      -inf kcal/mol|
|  sn= 3 | S(rot)=             -inf Eh      -inf kcal/mol|
|  sn= 4 | S(rot)=             -inf Eh      -inf kcal/mol|
|  sn= 5 | S(rot)=             -inf Eh      -inf kcal/mol|
|  sn= 6 | S(rot)=             -inf Eh      -inf kcal/mol|
|  sn= 7 | S(rot)=             -inf Eh      -inf kcal/mol|
|  sn= 8 | S(rot)=             -inf Eh      -inf kcal/mol|
|  sn= 9 | S(rot)=             -inf Eh      -inf kcal/mol|
|  sn=10 | S(rot)=             -inf Eh      -inf kcal/mol|
|  sn=11 | S(rot)=             -inf Eh      -inf kcal/mol|
|  sn=12 | S(rot)=             -inf Eh      -inf kcal/mol|
 --------------------------------------------------------


-------------------
GIBBS FREE ENERGY
-------------------

The Gibbs free energy is G = H - T*S

Total enthalpy                    ...   -147.42407721 Eh 
Total entropy correction          ...     -0.02319300 Eh    -14.55 kcal/mol
-----------------------------------------------------------------------
Final Gibbs free energy         ...   -147.44727021 Eh

For completeness - the Gibbs free energy minus the electronic energy
G-E(el)                           ...     -0.01571392 Eh     -9.86 kcal/mol


Total Time for Numerical Frequencies  :        24.070 sec

Timings for individual modules:

Sum of individual times         ...       30.777 sec (=   0.513 min)
GTO integral calculation        ...        3.164 sec (=   0.053 min)  10.3 %
SCF iterations                  ...        9.154 sec (=   0.153 min)  29.7 %
MP2 module                      ...       18.343 sec (=   0.306 min)  59.6 %
Geometry relaxation             ...        0.117 sec (=   0.002 min)   0.4 %
                             ****ORCA TERMINATED NORMALLY****
TOTAL RUN TIME: 0 days 0 hours 0 minutes 50 seconds 392 msec
