
                                 *****************
                                 * O   R   C   A *
                                 *****************

           --- An Ab Initio, DFT and Semiempirical electronic structure package ---

                  #######################################################
                  #                        -***-                        #
                  #          Department of theory and spectroscopy      #
                  #               Directorship: Frank Neese             #
                  #        Max Planck Institute fuer Kohlenforschung    #
                  #                Kaiser Wilhelm Platz 1               #
                  #                 D-45470 Muelheim/Ruhr               #
                  #                      Germany                        #
                  #                                                     #
                  #                  All rights reserved                #
                  #                        -***-                        #
                  #######################################################


                         Program Version 4.2.0 -  RELEASE  -


 With contributions from (in alphabetic order):
   Daniel Aravena         : Magnetic Suceptibility
   Michael Atanasov       : Ab Initio Ligand Field Theory (pilot matlab implementation)
   Alexander A. Auer      : GIAO ZORA, VPT2
   Ute Becker             : Parallelization
   Giovanni Bistoni       : ED, misc. LED, open-shell LED, HFLED
   Martin Brehm           : Molecular dynamics
   Dmytro Bykov           : SCF Hessian
   Vijay G. Chilkuri      : MRCI spin determinant printing, contributions to CSF-ICE
   Dipayan Datta          : RHF DLPNO-CCSD density
   Achintya Kumar Dutta   : EOM-CC, STEOM-CC
   Dmitry Ganyushin       : Spin-Orbit,Spin-Spin,Magnetic field MRCI
   Miquel Garcia          : C-PCM Hessian, Gaussian charge scheme
   Yang Guo               : DLPNO-NEVPT2, CIM, IAO-localization
   Andreas Hansen         : Spin unrestricted coupled pair/coupled cluster methods
   Benjamin Helmich-Paris : CASSCF linear response (MC-RPA)
   Lee Huntington         : MR-EOM, pCC
   Robert Izsak           : Overlap fitted RIJCOSX, COSX-SCS-MP3, EOM
   Christian Kollmar      : KDIIS, OOCD, Brueckner-CCSD(T), CCSD density
   Simone Kossmann        : Meta GGA functionals, TD-DFT gradient, OOMP2, MP2 Hessian
   Martin Krupicka        : AUTO-CI
   Lucas Lang             : DCDCAS
   Dagmar Lenk            : GEPOL surface, SMD
   Dimitrios Liakos       : Extrapolation schemes; Compound Job, initial MDCI parallelization
   Dimitrios Manganas     : Further ROCIS development; embedding schemes
   Dimitrios Pantazis     : SARC Basis sets
   Taras Petrenko         : DFT Hessian,TD-DFT gradient, ASA, ECA, R-Raman, ABS, FL, XAS/XES, NRVS
   Peter Pinski           : DLPNO-MP2, DLPNO-MP2 Gradient
   Christoph Reimann      : Effective Core Potentials
   Marius Retegan         : Local ZFS, SOC
   Christoph Riplinger    : Optimizer, TS searches, QM/MM, DLPNO-CCSD(T), (RO)-DLPNO pert. Triples
   Tobias Risthaus        : Range-separated hybrids, TD-DFT gradient, RPA, STAB
   Michael Roemelt        : Original ROCIS implementation
   Masaaki Saitow         : Open-shell DLPNO-CCSD energy and density
   Barbara Sandhoefer     : DKH picture change effects
   Avijit Sen             : IP-ROCIS
   Kantharuban Sivalingam : CASSCF convergence, NEVPT2, FIC-MRCI
   Bernardo de Souza      : ESD, SOC TD-DFT
   Georgi Stoychev        : AutoAux, RI-MP2 NMR
   Willem Van den Heuvel  : Paramagnetic NMR
   Boris Wezisla          : Elementary symmetry handling
   Frank Wennmohs         : Technical directorship


 We gratefully acknowledge several colleagues who have allowed us to
 interface, adapt or use parts of their codes:
   Stefan Grimme, W. Hujo, H. Kruse,             : VdW corrections, initial TS optimization,
                  C. Bannwarth                     DFT functionals, gCP, sTDA/sTD-DF
   Ed Valeev, F. Pavosevic, A. Kumar             : LibInt (2-el integral package), F12 methods
   Garnet Chan, S. Sharma, J. Yang, R. Olivares  : DMRG
   Ulf Ekstrom                                   : XCFun DFT Library
   Mihaly Kallay                                 : mrcc  (arbitrary order and MRCC methods)
   Andreas Klamt, Michael Diedenhofen            : otool_cosmo (COSMO solvation model)
   Jiri Pittner, Ondrej Demel                    : Mk-CCSD
   Frank Weinhold                                : gennbo (NPA and NBO analysis)
   Christopher J. Cramer and Donald G. Truhlar   : smd solvation model
   Lars Goerigk                                  : TD-DFT with DH, B97 family of functionals
   V. Asgeirsson, H. Jonsson                     : NEB implementation
   FAccTs GmbH                                   : IRC, NEB, NEB-TS, Multilevel, MM, QM/MM, CI optimization
   S Lehtola, MJT Oliveira, MAL Marques          : LibXC Library


 Your calculation uses the libint2 library for the computation of 2-el integrals
 For citations please refer to: http://libint.valeyev.net

 Your ORCA version has been built with support for libXC version: 4.2.3
 For citations please refer to: https://tddft.org/programs/libxc/

 This ORCA versions uses:
   CBLAS   interface :  Fast vector & matrix operations
   LAPACKE interface :  Fast linear algebra routines
   SCALAPACK package :  Parallel linear algebra routines


Your calculation utilizes the atom-pairwise dispersion correction
with the Becke-Johnson damping scheme (D3BJ)
Cite in your paper:
S.Grimme, S.Ehrlich, L.Goerigk, J Comput Chem, (2011), 32, 1456–1465 
S.Grimme, J.Antony, S.Ehrlich and H.Krieg, J.Chem.Phys., 132, (2010), 154104 
   

----- Orbital basis set information -----
Your calculation utilizes the basis: def2-TZVPPD
   F. Weigend and R. Ahlrichs, Phys. Chem. Chem. Phys. 7, 3297 (2005).
   D. Rappoport and F. Furche, J. Chem. Phys. 133 134105 (2010).

----- AuxC basis set information -----
Your calculation utilizes the auxiliary basis: def2-TZVPPD/C
   A. Hellweg, C. Hattig, S. Hofener and W. Klopper, Theor. Chem. Acc. 117, 587 (2007).

----- AuxJK basis set information -----
Your calculation utilizes the auxiliary basis: def2/JK
   H-Ba, Hf-Rn: F. Weigend, J. Comput. Chem. 29, 167 (2008).

cite the ECPs for Ag [Def2-ECP] as follows:
Ce-Yb(ecp-28): M. Dolg, H. Stoll, H.Preuss, J. Chem. Phys., 1989, 90, 1730-1734.
Y-Cd(ecp-28), Hf-Hg(ecp-46): D. Andrae,U. Haeussermann, M. Dolg, H. Stoll, H. Preuss, Theor. Chim. Acta, 1990, 77, 123-141.
In-Sb(ecp-28), Tl-Bi(ecp-46): B. Metz, H. Stoll, M. Dolg, J. Chem. Phys., 2000, 113, 2563-2569.
Te-Xe(ecp-28), Po-Rn(ecp-46): K. A. Peterson, D. Figgen, E. Goll, H. Stoll, M. Dolg, J. Chem. Phys., 2003, 119, 11113-11123.
Rb(ecp-28), Cs(ecp-46): T. Leininger, A. Nicklass, W. Kuechle, H. Stoll, M. Dolg, A. Bergner, Chem. Phys. Lett., 1996, 255, 274-280.
Sr(ecp-28), Ba(ecp-46): M. Kaupp, P. V. Schleyer, H. Stoll and H. Preuss, J. Chem. Phys., 1991, 94, 1360-1366.
La(ecp-46): M. Dolg, H. Stoll, A. Savin, H. Preuss, Theor. Chim. Acta, 1989, 75, 173-194.
Lu(ecp-28): X. Cao, M. Dolg, J. Chem. Phys., 2001, 115, 7348-7355.

ECP parameters for Ag [Def2-ECP] have been obtained from:
TURBOMOLE (7.0.2)

================================================================================
                                        WARNINGS
                       Please study these warnings very carefully!
================================================================================


WARNING: The frozen-core approximation for MP2-gradient calculations is turned on by default.

WARNING: Geometry Optimization
  ===> : Switching off AutoStart
         For restart on a previous wavefunction, please use MOREAD

WARNING: There are different parametrizations of Gershom Martin's DSD-DFs
         for use with and without D3(BJ)!
         You are using the D3(BJ) parametrized version,
         consistent with the 2013 article (S. Kozuch and J. M. L. Martin, JCC 2013, 34, 2327)

WARNING: The frozen-core approximation is turned on by default for 
         the MP2 part of double-hybrid DFT.

INFO   : the flag for use of LIBINT has been found!

================================================================================
                                       INPUT FILE
================================================================================
NAME = Ag01N0_F.in
|  1> #
|  2> # Ag01N0_F ri-DSD-BLYP/2013-D3BJ/Def2-TZVPPD
|  3> #
|  4> ! rijk ri-dsd-blyp/2013 d3bj def2-tzvppd def2/jk def2-tzvppd/c grid4 nofinalgrid opt xyzfile numfreq
|  5> 
|  6> *xyz 0 1
|  7> Ag       0.000000    0.000000    0.317712 
|  8> F        0.000000    0.000000   -1.659163 
|  9> *
| 10> 
| 11> %maxcore 5000
| 12> 
| 13> %pal
| 14> nprocs = 24
| 15> end
| 16> 
| 17> 
| 18>                          ****END OF INPUT****
================================================================================

                       *****************************
                       * Geometry Optimization Run *
                       *****************************

Geometry optimization settings:
Update method            Update   .... BFGS
Choice of coordinates    CoordSys .... Z-matrix Internals
Initial Hessian          InHess   .... Almoef's Model

Convergence Tolerances:
Energy Change            TolE     ....  5.0000e-06 Eh
Max. Gradient            TolMAXG  ....  3.0000e-04 Eh/bohr
RMS Gradient             TolRMSG  ....  1.0000e-04 Eh/bohr
Max. Displacement        TolMAXD  ....  4.0000e-03 bohr
RMS Displacement         TolRMSD  ....  2.0000e-03 bohr
Strict Convergence                ....  False
------------------------------------------------------------------------------
                        ORCA OPTIMIZATION COORDINATE SETUP
------------------------------------------------------------------------------

The optimization will be done in new redundant internal coordinates
Making redundant internal coordinates   ...  (new redundants) done
Evaluating the initial hessian          ...  (Almloef) done
Evaluating the coordinates              ...  done
Calculating the B-matrix                .... done
Calculating the G-matrix                .... done
Diagonalizing the G-matrix              .... done
The first mode is                       ....    0
The number of degrees of freedom        ....    1

    -----------------------------------------------------------------
                    Redundant Internal Coordinates


    -----------------------------------------------------------------
         Definition                    Initial Value    Approx d2E/dq
    -----------------------------------------------------------------
      1. B(F   1,Ag  0)                  1.9769         0.609214   
    -----------------------------------------------------------------

Number of atoms                         .... 2
Number of degrees of freedom            .... 1

         *************************************************************
         *                GEOMETRY OPTIMIZATION CYCLE   1            *
         *************************************************************
---------------------------------
CARTESIAN COORDINATES (ANGSTROEM)
---------------------------------
  Ag     0.000000    0.000000    0.317712
  F      0.000000    0.000000   -1.659163

----------------------------
CARTESIAN COORDINATES (A.U.)
----------------------------
  NO LB      ZA    FRAG     MASS         X           Y           Z
   0 Ag   19.0000*   0   107.870    0.000000    0.000000    0.600389
   1 F     9.0000    0    18.998    0.000000    0.000000   -3.135364
* core charge reduced due to ECP

--------------------------------
INTERNAL COORDINATES (ANGSTROEM)
--------------------------------
 Ag     0   0   0     0.000000000000     0.00000000     0.00000000
 F      1   0   0     1.976875000000     0.00000000     0.00000000

---------------------------
INTERNAL COORDINATES (A.U.)
---------------------------
 Ag     0   0   0     0.000000000000     0.00000000     0.00000000
 F      1   0   0     3.735752350996     0.00000000     0.00000000

---------------------
BASIS SET INFORMATION
---------------------
There are 2 groups of distinct atoms

 Group   1 Type Ag  : 7s7p6d2f1g contracted to 6s4p3d2f1g pattern {211111/4111/411/11/1}
 Group   2 Type F   : 12s7p3d1f contracted to 6s4p3d1f pattern {621111/4111/111/1}

Atom   0Ag   basis set group =>   1
Atom   1F    basis set group =>   2
---------------------------------
AUXILIARY/C BASIS SET INFORMATION
---------------------------------
There are 2 groups of distinct atoms

 Group   1 Type Ag  : 8s7p6d5f4g3h1i contracted to 8s7p6d5f4g3h1i pattern {11111111/1111111/111111/11111/1111/111/1}
 Group   2 Type F   : 9s7p6d4f1g contracted to 9s7p5d4f1g pattern {111111111/1111111/21111/1111/1}

Atom   0Ag   basis set group =>   1
Atom   1F    basis set group =>   2
----------------------------------
AUXILIARY/JK BASIS SET INFORMATION
----------------------------------
There are 2 groups of distinct atoms

 Group   1 Type Ag  : 13s12p10d9f6g3h2i contracted to 11s10p9d8f6g3h2i pattern {31111111111/3111111111/211111111/21111111/111111/111/11}
 Group   2 Type F   : 14s10p6d2f1g contracted to 10s8p4d2f1g pattern {5111111111/31111111/3111/11/1}

Atom   0Ag   basis set group =>   1
Atom   1F    basis set group =>   2
-------------------------
ECP PARAMETER INFORMATION
-------------------------

 Group 1, Type Ag ECP Def2-ECP (replacing 28 core electrons, lmax=3)

Atom   0Ag   ECP group =>   1



           ************************************************************
           *        Program running with 24 parallel MPI-processes    *
           *              working on a common directory               *
           ************************************************************
------------------------------------------------------------------------------
                           ORCA GTO INTEGRAL CALCULATION
                           -- RI-GTO INTEGRALS CHOSEN --
------------------------------------------------------------------------------

                         BASIS SET STATISTICS AND STARTUP INFO

Gaussian basis set:
 # of primitive gaussian shells          ...   46
 # of primitive gaussian functions       ...  136
 # of contracted shells                  ...   30
 # of contracted basis functions         ...   96
 Highest angular momentum                ...    4
 Maximum contraction depth               ...    6
Auxiliary gaussian basis set:
 # of primitive gaussian shells          ...   88
 # of primitive gaussian functions       ...  372
 # of contracted shells                  ...   74
 # of contracted aux-basis functions     ...  332
 Highest angular momentum                ...    6
 Maximum contraction depth               ...    5
Ratio of auxiliary to basis functions    ...  3.46
Integral package used                  ... LIBINT
 One Electron integrals                  
   ECP integrals                         ... done
 Ordering auxiliary basis shells         ... done
 Integral threshhold             Thresh  ...  2.500e-11
 Primitive cut-off               TCut    ...  2.500e-12
 Pre-screening matrix                    ... done
 Shell pair data                         ... 
 Ordering of the shell pairs             ... done (   0.000 sec) 459 of 465 pairs
 Determination of significant pairs      ... done (   0.000 sec)
 Creation of shell pair data             ... done (   0.000 sec)
 Storage of shell pair data              ... done (   0.018 sec)
 Shell pair data done in (   0.019 sec)
 Computing two index integrals           ... done
 Cholesky decomposition of the V-matrix  ... done


Timings:
 Total evaluation time                   ...   0.305 sec (  0.005 min)
 One electron matrix time                ...   0.087 sec (  0.001 min) = 28.6%
 Schwartz matrix evaluation time         ...   0.131 sec (  0.002 min) = 43.0%
 Two index repulsion integral time       ...   0.035 sec (  0.001 min) = 11.5%
 Cholesky decomposition of V             ...   0.002 sec (  0.000 min) =  0.7%
 Three index repulsion integral time     ...   0.000 sec (  0.000 min) =  0.0%



           ************************************************************
           *        Program running with 24 parallel MPI-processes    *
           *              working on a common directory               *
           ************************************************************
-------------------------------------------------------------------------------
                                 ORCA SCF
-------------------------------------------------------------------------------

------------
SCF SETTINGS
------------
Hamiltonian:
 Density Functional     Method          .... DFT(GTOs)
 Exchange Functional    Exchange        .... B88
   X-Alpha parameter    XAlpha          ....  0.666667
   Becke's b parameter  XBeta           ....  0.004200
 Correlation Functional Correlation     .... LYP
 LDA part of GGA corr.  LDAOpt          .... VWN-5
 Gradients option       PostSCFGGA      .... off
 Hybrid DFT is turned on
   Fraction HF Exchange ScalHFX         ....  0.710000
   Scaling of DF-GGA-X  ScalDFX         ....  0.290000
   Scaling of DF-GGA-C  ScalDFC         ....  0.540000
   Scaling of DF-LDA-C  ScalLDAC        ....  0.540000
   Perturbative correction              ....  1.000000
   Density functional embedding theory  .... OFF
 RI-approximation to the Coulomb term is turned on
   Number of auxiliary basis functions  .... 332
   RI-JK (J+K treated both via RI)      .... on


General Settings:
 Integral files         IntName         .... Ag01N0_F
 Hartree-Fock type      HFTyp           .... RHF
 Total Charge           Charge          ....    0
 Multiplicity           Mult            ....    1
 Number of Electrons    NEL             ....   28
 Basis Dimension        Dim             ....   96
 Nuclear Repulsion      ENuc            ....     45.7739121691 Eh

Convergence Acceleration:
 DIIS                   CNVDIIS         .... on
   Start iteration      DIISMaxIt       ....    12
   Startup error        DIISStart       ....  0.200000
   # of expansion vecs  DIISMaxEq       ....     5
   Bias factor          DIISBfac        ....   1.050
   Max. coefficient     DIISMaxC        ....  10.000
 Newton-Raphson         CNVNR           .... off
 SOSCF                  CNVSOSCF        .... off
 Level Shifting         CNVShift        .... on
   Level shift para.    LevelShift      ....    0.2500
   Turn off err/grad.   ShiftErr        ....    0.0010
 Zerner damping         CNVZerner       .... off
 Static damping         CNVDamp         .... on
   Fraction old density DampFac         ....    0.7000
   Max. Damping (<1)    DampMax         ....    0.9800
   Min. Damping (>=0)   DampMin         ....    0.0000
   Turn off err/grad.   DampErr         ....    0.1000
 Fernandez-Rico         CNVRico         .... off

SCF Procedure:
 Maximum # iterations   MaxIter         ....   125
 SCF integral mode      SCFMode         .... Direct
   Integral package                     .... LIBINT
 Reset frequency        DirectResetFreq ....    20
 Integral Threshold     Thresh          ....  2.500e-11 Eh
 Primitive CutOff       TCut            ....  2.500e-12 Eh

Convergence Tolerance:
 Convergence Check Mode ConvCheckMode   .... Total+1el-Energy
 Convergence forced     ConvForced      .... 0
 Energy Change          TolE            ....  1.000e-08 Eh
 1-El. energy change                    ....  1.000e-05 Eh
 DIIS Error             TolErr          ....  5.000e-07


Diagonalization of the overlap matrix:
Smallest eigenvalue                        ... 3.392e-03
Time for diagonalization                   ...    0.003 sec
Threshold for overlap eigenvalues          ... 1.000e-08
Number of eigenvalues below threshold      ... 0
Time for construction of square roots      ...    0.001 sec
Total time needed                          ...    0.004 sec

-------------------
DFT GRID GENERATION
-------------------

General Integration Accuracy     IntAcc      ...  4.670
Radial Grid Type                 RadialGrid  ... Gauss-Chebyshev
Angular Grid (max. acc.)         AngularGrid ... Lebedev-302
Angular grid pruning method      GridPruning ... 3 (G Style)
Weight generation scheme         WeightScheme... Becke
Basis function cutoff            BFCut       ...    1.0000e-11
Integration weight cutoff        WCut        ...    1.0000e-14
Grids for H and He will be reduced by one unit

# of grid points (after initial pruning)     ...  16930 (   0.0 sec)
# of grid points (after weights+screening)   ...  16875 (   0.0 sec)
nearest neighbour list constructed           ...    0.0 sec
Grid point re-assignment to atoms done       ...    0.0 sec
Grid point division into batches done        ...    0.1 sec
Reduced shell lists constructed in    0.1 sec

Total number of grid points                  ...    16875
Total number of batches                      ...      265
Average number of points per batch           ...       63
Average number of grid points per atom       ...     8438
Average number of shells per batch           ...     3.31 (11.03%)
Average number of basis functions per batch  ...     7.62 ( 7.93%)
Average number of large shells per batch     ...     2.08 (62.79%)
Average number of large basis fcns per batch ...     4.38 (57.58%)
Average number of aux-shells per batch       ...     3.31 ( 4.47%)
Average number of aux functions per batch    ...     7.62 ( 2.29%)
Maximum spatial batch extension              ...  36.77, 40.43, 23.83 au
Average spatial batch extension              ...   1.19,  1.22,  0.86 au

Time for grid setup =    0.182 sec

------------------------------
INITIAL GUESS: MODEL POTENTIAL
------------------------------
Loading Hartree-Fock densities                     ... done
  calling /sw/apps/orca/orca_4_2_0_linux_x86-64_openmpi314/orca Ag01N0_F_atom47.inp > Ag01N0_F_atom47.out in order to generate an atomic fitting density for atom 0 (Ag with ECP) on-the-fly... 
    atom 0 (Ag), assumed electronic state with S=2: 1s2 2s2 2p6 3s2 3p6 4s2 3d10 4p6 5s2 4d9           ... done
Calculating cut-offs                               ... done
Setting up the integral package                    ... done
Initializing the effective Hamiltonian             ... done
Starting the Coulomb interaction                   ... done (   0.0 sec)
Reading the grid                                   ... done
Mapping shells                                     ... done
Starting the XC term evaluation                    ... done (   0.0 sec)
  promolecular density results
     # of electrons  =     56.001290403
     EX              =   -154.063202421
     EC              =     -0.358420717
     EX+EC           =   -154.421623137
Transforming the Hamiltonian                       ... done (   0.0 sec)
Diagonalizing the Hamiltonian                      ... done (   0.0 sec)
Back transforming the eigenvectors                 ... done (   0.0 sec)
Now organizing SCF variables                       ... done
                      ------------------
                      INITIAL GUESS DONE (   1.4 sec)
                      ------------------
--------------
SCF ITERATIONS
--------------
ITER       Energy         Delta-E        Max-DP      RMS-DP      [F,P]     Damp
  0   -246.0870996874   0.000000000000 0.08165611  0.00201230  0.5052576 0.7000
  1   -245.8743117188   0.212787968627 0.05780943  0.00168221  0.3582370 0.7000
  2   -245.9195945866  -0.045282867819 0.02877812  0.00082661  0.2353354 0.7000
                               ***Turning on DIIS***
  3   -246.0619832815  -0.142388694924 0.01417352  0.00029332  0.1555347 0.7000
  4   -246.1800965735  -0.118113291982 0.00966915  0.00030560  0.1064021 0.7000
  5   -246.2278712601  -0.047774686604 0.03058874  0.00109332  0.0749652 0.0000
  6   -246.2059104849   0.021960775199 0.00701149  0.00025042  0.0602884 0.0000
  7   -246.2079235924  -0.002013107499 0.00328688  0.00013723  0.0308240 0.0000
  8   -246.2085028468  -0.000579254432 0.00313745  0.00013674  0.0191182 0.0000
  9   -246.2088216918  -0.000318844979 0.00130825  0.00005830  0.0059003 0.0000
 10   -246.2088615059  -0.000039814045 0.00047952  0.00002042  0.0011854 0.0000
 11   -246.2088650277  -0.000003521865 0.00027141  0.00001197  0.0003397 0.0000
 12   -246.2088655399  -0.000000512140 0.00012226  0.00000401  0.0001352 0.0000
 13   -246.2088655975  -0.000000057593 0.00008239  0.00000167  0.0000457 0.0000
 14   -246.2088656073  -0.000000009803 0.00004449  0.00000083  0.0000164 0.0000
                 **** Energy Check signals convergence ****

               *****************************************************
               *                     SUCCESS                       *
               *           SCF CONVERGED AFTER  15 CYCLES          *
               *****************************************************


----------------
TOTAL SCF ENERGY
----------------

Total Energy       :         -246.20886561 Eh           -6699.68384 eV

Components:
Nuclear Repulsion  :           45.77391217 Eh            1245.57147 eV
Electronic Energy  :         -291.98277778 Eh           -7945.25531 eV
One Electron Energy:         -493.47562310 Eh          -13428.15438 eV
Two Electron Energy:          201.49284532 Eh            5482.89907 eV

Virial components:
Potential Energy   :         -402.37601094 Eh          -10949.20790 eV
Kinetic Energy     :          156.16714533 Eh            4249.52407 eV
Virial Ratio       :            2.57657275


DFT components:
N(Alpha)           :       14.000010907104 electrons
N(Beta)            :       14.000010907104 electrons
N(Total)           :       28.000021814208 electrons
E(X)               :       -6.851076793775 Eh       
E(C)               :       -0.572976737491 Eh       
E(XC)              :       -7.424053531266 Eh       
DFET-embed. en.    :        0.000000000000 Eh       

---------------
SCF CONVERGENCE
---------------

  Last Energy change         ...   -1.8134e-09  Tolerance :   1.0000e-08
  Last MAX-Density change    ...    3.2051e-05  Tolerance :   1.0000e-07
  Last RMS-Density change    ...    5.6398e-07  Tolerance :   5.0000e-09
  Last DIIS Error            ...    9.2182e-06  Tolerance :   5.0000e-07

             **** THE GBW FILE WAS UPDATED (Ag01N0_F.gbw) ****
             **** DENSITY FILE WAS UPDATED (Ag01N0_F.scfp) ****
             **** ENERGY FILE WAS UPDATED (Ag01N0_F.en.tmp) ****
             **** THE GBW FILE WAS UPDATED (Ag01N0_F.gbw) ****
             **** DENSITY FILE WAS UPDATED (Ag01N0_F.scfp) ****
----------------
ORBITAL ENERGIES
----------------

  NO   OCC          E(Eh)            E(eV) 
   0   2.0000     -25.563582      -695.6204 
   1   2.0000      -4.151344      -112.9638 
   2   2.0000      -2.656350       -72.2830 
   3   2.0000      -2.656350       -72.2830 
   4   2.0000      -2.655652       -72.2640 
   5   2.0000      -1.257926       -34.2299 
   6   2.0000      -0.518712       -14.1149 
   7   2.0000      -0.497723       -13.5437 
   8   2.0000      -0.497723       -13.5437 
   9   2.0000      -0.482165       -13.1204 
  10   2.0000      -0.482165       -13.1204 
  11   2.0000      -0.401666       -10.9299 
  12   2.0000      -0.401666       -10.9299 
  13   2.0000      -0.380475       -10.3532 
  14   0.0000      -0.056389        -1.5344 
  15   0.0000       0.037504         1.0205 
  16   0.0000       0.037504         1.0205 
  17   0.0000       0.074615         2.0304 
  18   0.0000       0.139306         3.7907 
  19   0.0000       0.193075         5.2538 
  20   0.0000       0.198753         5.4083 
  21   0.0000       0.198753         5.4083 
  22   0.0000       0.261993         7.1292 
  23   0.0000       0.261993         7.1292 
  24   0.0000       0.316495         8.6123 
  25   0.0000       0.420753        11.4493 
  26   0.0000       0.468609        12.7515 
  27   0.0000       0.468609        12.7515 
  28   0.0000       0.559877        15.2350 
  29   0.0000       0.559877        15.2350 
  30   0.0000       0.603741        16.4286 
  31   0.0000       0.655254        17.8304 
  32   0.0000       0.655257        17.8305 
  33   0.0000       0.781093        21.2546 
  34   0.0000       0.781093        21.2546 
  35   0.0000       0.786400        21.3990 
  36   0.0000       0.949589        25.8396 
  37   0.0000       0.949589        25.8396 
  38   0.0000       1.217359        33.1260 
  39   0.0000       1.293774        35.2054 
  40   0.0000       1.744839        47.4795 
  41   0.0000       1.744839        47.4795 
  42   0.0000       1.762320        47.9552 
  43   0.0000       1.762320        47.9552 
  44   0.0000       1.770123        48.1675 
  45   0.0000       1.770123        48.1675 
  46   0.0000       1.848041        50.2878 
  47   0.0000       1.861103        50.6432 
  48   0.0000       1.861103        50.6432 
  49   0.0000       1.950323        53.0710 
  50   0.0000       2.203805        59.9686 
  51   0.0000       2.238697        60.9180 
  52   0.0000       2.238697        60.9180 
  53   0.0000       2.245807        61.1115 
  54   0.0000       2.245807        61.1115 
  55   0.0000       2.287700        62.2515 
  56   0.0000       2.553839        69.4935 
  57   0.0000       2.553857        69.4940 
  58   0.0000       2.636904        71.7538 
  59   0.0000       2.636904        71.7538 
  60   0.0000       3.031326        82.4866 
  61   0.0000       3.734315       101.6159 
  62   0.0000       3.734315       101.6159 
  63   0.0000       4.051553       110.2484 
  64   0.0000       4.446926       121.0070 
  65   0.0000       5.175277       140.8264 
  66   0.0000       5.175277       140.8264 
  67   0.0000       5.186409       141.1294 
  68   0.0000       5.186412       141.1294 
  69   0.0000       5.251477       142.8999 
  70   0.0000       5.251477       142.8999 
  71   0.0000       5.437329       147.9572 
  72   0.0000       5.866453       159.6343 
  73   0.0000       5.866465       159.6346 
  74   0.0000       5.866638       159.6393 
  75   0.0000       5.866638       159.6393 
  76   0.0000       5.867569       159.6647 
  77   0.0000       5.867571       159.6647 
  78   0.0000       5.871629       159.7752 
  79   0.0000       5.871629       159.7752 
  80   0.0000       5.939672       161.6267 
  81   0.0000       7.339015       199.7048 
  82   0.0000       7.339205       199.7099 
  83   0.0000       7.350859       200.0270 
  84   0.0000       7.350859       200.0270 
  85   0.0000       7.367349       200.4758 
  86   0.0000       7.367349       200.4758 
  87   0.0000       7.485561       203.6925 
  88   0.0000       8.969667       244.0770 
  89   0.0000       8.969706       244.0781 
  90   0.0000       9.006153       245.0699 
  91   0.0000       9.006153       245.0699 
  92   0.0000       9.204640       250.4710 
  93   0.0000      33.667279       916.1332 
  94   0.0000      58.203528      1583.7985 
  95   0.0000     109.906428      2990.7059 

                    ********************************
                    * MULLIKEN POPULATION ANALYSIS *
                    ********************************

-----------------------
MULLIKEN ATOMIC CHARGES
-----------------------
   0 Ag:    0.804885
   1 F :   -0.804885
Sum of atomic charges:   -0.0000000

--------------------------------
MULLIKEN REDUCED ORBITAL CHARGES
--------------------------------
  0 Ags       :     2.171155  s :     2.171155
      pz      :     2.030735  p :     6.062769
      px      :     2.016017
      py      :     2.016017
      dz2     :     1.949294  d :     9.954245
      dxz     :     2.002039
      dyz     :     2.002039
      dx2y2   :     2.000437
      dxy     :     2.000437
      f0      :     0.003627  f :     0.006853
      f+1     :     0.001495
      f-1     :     0.001495
      f+2     :     0.000118
      f-2     :     0.000118
      f+3     :     0.000000
      f-3     :     0.000000
      g0      :     0.000054  g :     0.000093
      g+1     :     0.000020
      g-1     :     0.000020
      g+2     :     0.000000
      g-2     :     0.000000
      g+3     :     0.000000
      g-3     :     0.000000
      g+4     :     0.000000
      g-4     :     0.000000
  1 F s       :     3.994632  s :     3.994632
      pz      :     1.848465  p :     5.813381
      px      :     1.982458
      py      :     1.982458
      dz2     :     0.002003  d :    -0.003211
      dxz     :    -0.002050
      dyz     :    -0.002050
      dx2y2   :    -0.000557
      dxy     :    -0.000557
      f0      :     0.000034  f :     0.000083
      f+1     :     0.000023
      f-1     :     0.000023
      f+2     :     0.000002
      f-2     :     0.000002
      f+3     :     0.000000
      f-3     :     0.000000


                     *******************************
                     * LOEWDIN POPULATION ANALYSIS *
                     *******************************

----------------------
LOEWDIN ATOMIC CHARGES
----------------------
   0 Ag:    0.769394
   1 F :   -0.769394

-------------------------------
LOEWDIN REDUCED ORBITAL CHARGES
-------------------------------
  0 Ags       :     2.101786  s :     2.101786
      pz      :     2.081584  p :     6.135956
      px      :     2.027186
      py      :     2.027186
      dz2     :     1.987986  d :     9.980013
      dxz     :     1.998563
      dyz     :     1.998563
      dx2y2   :     1.997451
      dxy     :     1.997451
      f0      :     0.007151  f :     0.012672
      f+1     :     0.002627
      f-1     :     0.002627
      f+2     :     0.000134
      f-2     :     0.000134
      f+3     :     0.000000
      f-3     :     0.000000
      g0      :     0.000107  g :     0.000178
      g+1     :     0.000035
      g-1     :     0.000035
      g+2     :     0.000000
      g-2     :     0.000000
      g+3     :     0.000000
      g-3     :     0.000000
      g+4     :     0.000000
      g-4     :     0.000000
  1 F s       :     3.885640  s :     3.885640
      pz      :     1.883466  p :     5.788752
      px      :     1.952643
      py      :     1.952643
      dz2     :     0.052162  d :     0.094752
      dxz     :     0.018884
      dyz     :     0.018884
      dx2y2   :     0.002411
      dxy     :     0.002411
      f0      :     0.000118  f :     0.000250
      f+1     :     0.000062
      f-1     :     0.000062
      f+2     :     0.000005
      f-2     :     0.000005
      f+3     :     0.000000
      f-3     :     0.000000


                      *****************************
                      * MAYER POPULATION ANALYSIS *
                      *****************************

  NA   - Mulliken gross atomic population
  ZA   - Total nuclear charge
  QA   - Mulliken gross atomic charge
  VA   - Mayer's total valence
  BVA  - Mayer's bonded valence
  FA   - Mayer's free valence

  ATOM       NA         ZA         QA         VA         BVA        FA
  0 Ag    18.1951    19.0000     0.8049     0.2985     0.2985    -0.0000
  1 F      9.8049     9.0000    -0.8049     0.2985     0.2985     0.0000

  Mayer bond orders larger than 0.100000
B(  0-Ag,  1-F ) :   0.2985 

-------
TIMINGS
-------

Total SCF time: 0 days 0 hours 0 min 3 sec 

Total time                  ....       3.593 sec
Sum of individual times     ....       3.491 sec  ( 97.2%)

Fock matrix formation       ....       2.034 sec  ( 56.6%)
  XC integration            ....       0.336 sec  ( 16.5% of F)
    Basis function eval.    ....       0.029 sec  (  8.8% of XC)
    Density eval.           ....       0.016 sec  (  4.6% of XC)
    XC-Functional eval.     ....       0.011 sec  (  3.2% of XC)
    XC-Potential eval.      ....       0.021 sec  (  6.3% of XC)
Diagonalization             ....       0.020 sec  (  0.5%)
Density matrix formation    ....       0.005 sec  (  0.1%)
Population analysis         ....       0.003 sec  (  0.1%)
Initial guess               ....       1.235 sec  ( 34.4%)
Orbital Transformation      ....       0.000 sec  (  0.0%)
Orbital Orthonormalization  ....       0.000 sec  (  0.0%)
DIIS solution               ....       0.013 sec  (  0.4%)
Grid generation             ....       0.182 sec  (  5.1%)


           ************************************************************
           *        Program running with 24 parallel MPI-processes    *
           *              working on a common directory               *
           ************************************************************

------------------------------------------------------------------------------
                                ORCA  MP2 
------------------------------------------------------------------------------

Freezing NCore=2 chemical core electrons

----------------------
RI-MP2 ENERGY+GRADIENT
----------------------
Dimension of the basis                    ...   96
Memory devoted to MP2                     ... 5000 MB   
Data format for buffers                   ... DOUBLE
Compression type for matrix containers    ... UNCOMPRESSED
Scaling for aa/bb pairs                   ...   4.000e-01
Scaling for ab pairs                      ...   4.700e-01
Overall scaling of the MP2 energy         ...   1.000e+00
Calculating two index integrals           ... done (    0.005 sec)
Cholesky decomposition of the V-matrix    ... done
Cholesky decomposition of V**-1           ... done (    0.003 sec)

-----------------
RI-TRANSFORMATION (AUX index driven)
-----------------

Dimension of the orbital-basis         ... 96
Dimension of the aux-basis             ... 268
Transformation of internal MOs         ...    0-  13
Transformation of internal/external MOs...    0-  13 to   14-  95
Number Format for Storage              ... Double (8 Byte)
Integral mode                          ... Direct

First Phase: integral generation and transformation of MO indices
  Aux angular momentum 0               ... done (    0.000 sec)
  Aux angular momentum 1               ... done (    0.001 sec)
  Aux angular momentum 2               ... done (    0.001 sec)
  Aux angular momentum 3               ... done (    0.001 sec)
  Aux angular momentum 4               ... done (    0.002 sec)
  Aux angular momentum 5               ... done (    0.002 sec)
  Aux angular momentum 6               ... done (    0.004 sec)
Closing buffer VIJ ( 0.00 GB; CompressionRatio= 0.99)
Closing buffer VIA ( 0.00 GB; CompressionRatio= 1.00)
  Phase 1 completed in     0.111 sec
Second Phase: sorting and transformation of aux index

IJ-Transformation
Memory available                       ... 4997 MB 
Max. # MO pairs treated in a batch     ... 1    
# of internal orbitals                 ... 14
# batches for internal orbitals        ... 1
Closing buffer IJV ( 0.00 GB; CompressionRatio= 0.99)
(ij|v) transformation done in     0.015 sec

IA-Transformation
Memory available                       ... 4997 MB 
Max. # MO pairs treated in a batch     ... 1    
# of internal orbitals                 ... 14
# batches for internal orbitals        ... 1
Closing buffer IAV ( 0.00 GB; CompressionRatio= 1.00)
(ia|v) transformation done in     0.003 sec

  Phase 2 completed in     0.037 sec
RI-Integral transformation completed in     0.150 sec
Opening buffers                              ... done
Frozen core precalculation                   ... done

Starting loop over batches of integrals:

Operator 0  - window                       ... (  1- 13)x( 14- 95)
Operator 0  - Memory available             ...  5000 MB
Operator 0  - Memory needed per MO         ...   0.3 MB
Operator 0  - Number of orbitals per batch ... 1
Operator 0  - Number of batches            ... 1

OPERATOR  0   PASS   0:  MOs     1 ...    1 +    2 ...    2 +    3 ...    3 +    4 ...    4
                            +    5 ...    5 +    6 ...    6 +    7 ...    7 +    8 ...    8
                            +    9 ...    9 +   10 ...   10 +   11 ...   11 +   12 ...   12
                            +   13 ...   13
  Reading integrals       ... ok
Closing buffer GIPV ( 0.00 GB; CompressionRatio= 1.00)
Time spent in pair loops =     0.061 sec
Deleting buffer (Ka|jb)[aa] ...done

-----------------------------------------------
 RI-MP2 CORRELATION ENERGY:     -0.453151095 Eh
-----------------------------------------------


---------------------
MP2 DENSITY FORMATION
---------------------

Completing the external part of the density      ... done
Storing the unrelaxed density                    ... done

Calculating the xc-kernel                        ... done
Calculating G(D)                                 ... done
Completing the Lagrangian                        ... done
Solving the Z-vector equations                   ... 

------------------------------------------------------------------------------
                           ORCA CP-SCF CALCULATION
------------------------------------------------------------------------------

Input orbitals are from        ... Ag01N0_F.gbw
Input Perturbation             ... Ag01N0_F.pin.tmp
Wavefunction output            ... Ag01N0_F.pout.tmp
Perturbation mode              ... Real perturbation (singlet)
Solver                         ... POPLE
Max. number of iterations      ... 128
Convergence tolerance          ... 1.000e-08
Integral handling              ... Direct
Number of perturbations        ... 1
Number of operators            ... 1
Orbital ranges used for CP-SCF:
 Operator 0:  Orbitals   0... 13  to  14... 95
DFT calculation                         ... on
Exchange functional (SCF)               ... B88
Exchange functional (CP-SCF)            ... B88
   X-Alpha parameter    XAlpha (SCF)    ...  0.666667
   X-Alpha parameter    XAlpha (CP-SCF) ...  0.666667
   Becke's b parameter  XBeta (SCF)     ...  0.004200
   Becke's b parameter  XBeta (CP-SCF)  ...  0.004200
Correlation functional (SCF)            ... LYP
Correlation functional (CP-SCF)         ... LYP
 LDA part of GGA corr.  LDAOpt (SCF)    ... VWN-5
 LDA part of GGA corr.  LDAOpt (CP-SCF) ... VWN-5
Hybrid DFT                              ... on
   Exchange mixing (SCF)                ...  0.710
   Exchange mixing (CP-SCF)             ...  0.710
   GGA exch. scaling(SCF)               ...  0.290
   GGA exch. scaling (CP-SCF)           ...  0.290
   GGA corr. scaling (SCF)              ...  0.540
   GGA corr. scaling (CP-SCF)           ...  0.540
Variables per vector in CP-SCF ... 1148
Number of vectors sought       ... 1
Recalculating density on grid  ... done
Calculating the xc-kernel      ... done
     CP-SCF ITERATION   0: 
     CP-SCF ITERATION   1:      0.001114172479
     CP-SCF ITERATION   2:      0.000295178419
     CP-SCF ITERATION   3:      0.000025238681
     CP-SCF ITERATION   4:      0.000000836472
     CP-SCF ITERATION   5:      0.000000106304
     CP-SCF ITERATION   6:      0.000000012677
     CP-SCF ITERATION   7:      0.000000000414
done
Finalizing the relaxed density                   ... done
Transforming P to the AO basis                   ... done
Storing the relaxed density                      ... done

------------------------------------
ENERGY WEIGHTED DENSITY FINALIZATION
------------------------------------

Gathering the parts of the W-matrix              ... done
Forming the Z-density                            ... done
Transforming Z to the AO basis                   ... done
Calculating G(Z)                                 ... done
Finalizing the W-matrix                          ... done
Transforming W to the AO basis and storing       ... done
Entering the RIJONX and RIJCOSX sections
Starting the three-index derivative integrals:
Operator 0  - Memory available             ...  5000 MB
Operator 0  - Memory needed per MO         ...   0.4 MB
Operator 0  - Number of orbitals per batch ... 1
Operator 0  - Number of batches            ... 1

OPERATOR  0   PASS   0:  MOs     1 ...    1 +    2 ...    2 +    3 ...    3 +    4 ...    4
                            +    5 ...    5 +    6 ...    6 +    7 ...    7 +    8 ...    8
                            +    9 ...    9 +   10 ...   10 +   11 ...   11 +   12 ...   12
                            +   13 ...   13

----------------------------------
MP2 DERIVATIVE INTEGRAL GENERATION
----------------------------------


Input Correlated Electron Density   ... Ag01N0_F.pmp2re
Input Energy Weighted Density       ... Ag01N0_F.wmp2.tmp
Input SCF Electron Density          ... Ag01N0_F.scfp

One-Electron Terms    ...
  ECP gradient                                           ... One-Electron Terms done
Prescreening matrices              ... done
Exchange-correlation gradient    ... done
Dispersion correction            ... done

                *********************************************
                * UNRELAXED MP2 DENSITY POPULATION ANALYSIS *
                *********************************************

------------------------------------------------------------------------------
                           ORCA POPULATION ANALYSIS
------------------------------------------------------------------------------
Input electron density              ... Ag01N0_F.pmp2ur
BaseName (.gbw .S,...)              ... Ag01N0_F

                    ********************************
                    * MULLIKEN POPULATION ANALYSIS *
                    ********************************

-----------------------
MULLIKEN ATOMIC CHARGES
-----------------------
   0 Ag:    0.796474
   1 F :   -0.796474
Sum of atomic charges:   -0.0000000

--------------------------------
MULLIKEN REDUCED ORBITAL CHARGES
--------------------------------
  0 Ags       :     2.176904  s :     2.176904
      pz      :     2.029755  p :     6.063007
      px      :     2.016626
      py      :     2.016626
      dz2     :     1.938401  d :     9.900370
      dxz     :     1.991216
      dyz     :     1.991216
      dx2y2   :     1.989769
      dxy     :     1.989769
      f0      :     0.010933  f :     0.059093
      f+1     :     0.008918
      f-1     :     0.008918
      f+2     :     0.007624
      f-2     :     0.007624
      f+3     :     0.007538
      f-3     :     0.007538
      g0      :     0.000513  g :     0.004153
      g+1     :     0.000477
      g-1     :     0.000477
      g+2     :     0.000453
      g-2     :     0.000453
      g+3     :     0.000449
      g-3     :     0.000449
      g+4     :     0.000441
      g-4     :     0.000441
  1 F s       :     3.992696  s :     3.992696
      pz      :     1.837561  p :     5.790876
      px      :     1.976657
      py      :     1.976657
      dz2     :     0.004945  d :     0.011801
      dxz     :     0.001063
      dyz     :     0.001063
      dx2y2   :     0.002365
      dxy     :     0.002365
      f0      :     0.000182  f :     0.001100
      f+1     :     0.000170
      f-1     :     0.000170
      f+2     :     0.000146
      f-2     :     0.000146
      f+3     :     0.000143
      f-3     :     0.000143


                     *******************************
                     * LOEWDIN POPULATION ANALYSIS *
                     *******************************

----------------------
LOEWDIN ATOMIC CHARGES
----------------------
   0 Ag:    0.762129
   1 F :   -0.762129

-------------------------------
LOEWDIN REDUCED ORBITAL CHARGES
-------------------------------
  0 Ags       :     2.106253  s :     2.106253
      pz      :     2.080200  p :     6.136426
      px      :     2.028113
      py      :     2.028113
      dz2     :     1.976636  d :     9.925873
      dxz     :     1.987859
      dyz     :     1.987859
      dx2y2   :     1.986760
      dxy     :     1.986760
      f0      :     0.014533  f :     0.065080
      f+1     :     0.010098
      f-1     :     0.010098
      f+2     :     0.007637
      f-2     :     0.007637
      f+3     :     0.007538
      f-3     :     0.007538
      g0      :     0.000567  g :     0.004239
      g+1     :     0.000493
      g-1     :     0.000493
      g+2     :     0.000453
      g-2     :     0.000453
      g+3     :     0.000449
      g-3     :     0.000449
      g+4     :     0.000441
      g-4     :     0.000441
  1 F s       :     3.884058  s :     3.884058
      pz      :     1.873894  p :     5.766462
      px      :     1.946284
      py      :     1.946284
      dz2     :     0.055477  d :     0.110331
      dxz     :     0.022069
      dyz     :     0.022069
      dx2y2   :     0.005358
      dxy     :     0.005358
      f0      :     0.000273  f :     0.001279
      f+1     :     0.000211
      f-1     :     0.000211
      f+2     :     0.000149
      f-2     :     0.000149
      f+3     :     0.000143
      f-3     :     0.000143


                      *****************************
                      * MAYER POPULATION ANALYSIS *
                      *****************************

  NA   - Mulliken gross atomic population
  ZA   - Total nuclear charge
  QA   - Mulliken gross atomic charge
  VA   - Mayer's total valence
  BVA  - Mayer's bonded valence
  FA   - Mayer's free valence

  ATOM       NA         ZA         QA         VA         BVA        FA
  0 Ag    18.2035    19.0000     0.7965     0.7628     0.2878     0.4750
  1 F      9.7965     9.0000    -0.7965     0.5700     0.2878     0.2821

  Mayer bond orders larger than 0.100000
B(  0-Ag,  1-F ) :   0.2878 


                *******************************************
                * RELAXED MP2 DENSITY POPULATION ANALYSIS *
                *******************************************

------------------------------------------------------------------------------
                           ORCA POPULATION ANALYSIS
------------------------------------------------------------------------------
Input electron density              ... Ag01N0_F.pmp2re
BaseName (.gbw .S,...)              ... Ag01N0_F

                    ********************************
                    * MULLIKEN POPULATION ANALYSIS *
                    ********************************

-----------------------
MULLIKEN ATOMIC CHARGES
-----------------------
   0 Ag:    0.726340
   1 F :   -0.726340
Sum of atomic charges:   -0.0000000

--------------------------------
MULLIKEN REDUCED ORBITAL CHARGES
--------------------------------
  0 Ags       :     2.250978  s :     2.250978
      pz      :     2.030704  p :     6.075586
      px      :     2.022441
      py      :     2.022441
      dz2     :     1.924348  d :     9.884209
      dxz     :     1.990253
      dyz     :     1.990253
      dx2y2   :     1.989677
      dxy     :     1.989677
      f0      :     0.010645  f :     0.058740
      f+1     :     0.008896
      f-1     :     0.008896
      f+2     :     0.007613
      f-2     :     0.007613
      f+3     :     0.007538
      f-3     :     0.007538
      g0      :     0.000508  g :     0.004146
      g+1     :     0.000476
      g-1     :     0.000476
      g+2     :     0.000453
      g-2     :     0.000453
      g+3     :     0.000449
      g-3     :     0.000449
      g+4     :     0.000441
      g-4     :     0.000441
  1 F s       :     3.990050  s :     3.990050
      pz      :     1.778769  p :     5.721000
      px      :     1.971115
      py      :     1.971115
      dz2     :     0.005697  d :     0.014173
      dxz     :     0.001771
      dyz     :     0.001771
      dx2y2   :     0.002467
      dxy     :     0.002467
      f0      :     0.000191  f :     0.001117
      f+1     :     0.000174
      f-1     :     0.000174
      f+2     :     0.000146
      f-2     :     0.000146
      f+3     :     0.000143
      f-3     :     0.000143


                     *******************************
                     * LOEWDIN POPULATION ANALYSIS *
                     *******************************

----------------------
LOEWDIN ATOMIC CHARGES
----------------------
   0 Ag:    0.727228
   1 F :   -0.727228

-------------------------------
LOEWDIN REDUCED ORBITAL CHARGES
-------------------------------
  0 Ags       :     2.155756  s :     2.155756
      pz      :     2.071673  p :     6.140442
      px      :     2.034384
      py      :     2.034384
      dz2     :     1.962334  d :     9.908188
      dxz     :     1.986353
      dyz     :     1.986353
      dx2y2   :     1.986574
      dxy     :     1.986574
      f0      :     0.013807  f :     0.064162
      f+1     :     0.010014
      f-1     :     0.010014
      f+2     :     0.007626
      f-2     :     0.007626
      f+3     :     0.007538
      f-3     :     0.007538
      g0      :     0.000556  g :     0.004224
      g+1     :     0.000491
      g-1     :     0.000491
      g+2     :     0.000453
      g-2     :     0.000453
      g+3     :     0.000449
      g-3     :     0.000449
      g+4     :     0.000441
      g-4     :     0.000441
  1 F s       :     3.886273  s :     3.886273
      pz      :     1.845230  p :     5.727282
      px      :     1.941026
      py      :     1.941026
      dz2     :     0.055982  d :     0.112383
      dxz     :     0.022645
      dyz     :     0.022645
      dx2y2   :     0.005555
      dxy     :     0.005555
      f0      :     0.000278  f :     0.001290
      f+1     :     0.000214
      f-1     :     0.000214
      f+2     :     0.000149
      f-2     :     0.000149
      f+3     :     0.000143
      f-3     :     0.000143


                      *****************************
                      * MAYER POPULATION ANALYSIS *
                      *****************************

  NA   - Mulliken gross atomic population
  ZA   - Total nuclear charge
  QA   - Mulliken gross atomic charge
  VA   - Mayer's total valence
  BVA  - Mayer's bonded valence
  FA   - Mayer's free valence

  ATOM       NA         ZA         QA         VA         BVA        FA
  0 Ag    18.2737    19.0000     0.7263     0.8852     0.4287     0.4565
  1 F      9.7263     9.0000    -0.7263     0.6976     0.4287     0.2689

  Mayer bond orders larger than 0.100000
B(  0-Ag,  1-F ) :   0.4287 


-------
TIMINGS
-------

Total time                :    4.380 sec
Integral trafo            :    0.162 sec (  3.7%)
FC preparation            :    0.004 sec (  0.1%)
I/O of integrals          :    0.000 sec (  0.0%)
K(i,j) Operators          :    0.001 sec (  0.0%)
T(i,j) pair energies      :    0.001 sec (  0.0%)
V-calculation             :    0.005 sec (  0.1%)
V**(-1/2)                 :    0.003 sec (  0.1%)
Gamma(ia|P)               :    0.001 sec (  0.0%)
Gamma-Trafo               :    0.001 sec (  0.0%)
D(virtual)                :    0.000 sec (  0.0%)
D(internal)               :    0.001 sec (  0.0%)
W(virtual)                :    0.000 sec (  0.0%)
W(internal)               :    0.002 sec (  0.0%)
L(virtual)                :    0.033 sec (  0.8%)
L(internal)               :    0.000 sec (  0.0%)
G(D)                      :    0.366 sec (  8.4%)
G(Z)                      :    0.323 sec (  7.4%)
Z-Vector Solution         :    2.243 sec ( 51.2%)
Z-Vector Solution         :    2.243 sec ( 51.2%)
3-Index Derivative 
+ Separable RIJ part      :    0.178 sec (  4.1%)
2-Index Derivative 
+ Separable RIJ part      :    0.001 sec (  0.0%)
Separable Gradient (X)    :    0.924 sec ( 21.1%)


---------------------------------------
MP2 TOTAL ENERGY:     -246.662016704 Eh
---------------------------------------

-----------------------------------
NORM OF THE MP2 GRADIENT:  0.004379
-----------------------------------


-------------------------------------------------------------------------------
                          DFT DISPERSION CORRECTION                            
                                                                               
                              DFTD3 V3.1  Rev 1                                
                          USING Becke-Johnson damping                          
-------------------------------------------------------------------------------
The DSD-BLYP/2013 functional is recognized
Active option DFTDOPT                   ...         4   

molecular C6(AA) [au] = 356.028846 


            DFT-D V3
 parameters
 s6 scaling factor         :     0.5700 
 a1 scaling factor         :     0.0000 
 s8 scaling factor         :     0.0000 
 a2 scaling factor         :     5.4000 
 ad hoc parameters k1-k3   :    16.0000     1.3333    -4.0000 

 Edisp/kcal,au: -0.501630992107  -0.000799399785 
 E6   /kcal   :  -0.501630992 
 E8   /kcal   :  -0.000000000 
 % E8         :   0.000000000 

-------------------------   ----------------
Dispersion correction           -0.000799400
-------------------------   ----------------


-------------------------   --------------------
FINAL SINGLE POINT ENERGY      -246.662816103614
-------------------------   --------------------

------------------------------------------------------------------------------
                         ORCA GEOMETRY RELAXATION STEP
------------------------------------------------------------------------------

Reading the OPT-File                    .... done
Getting information on internals        .... done
Copying old internal coords+grads       .... done
Making the new internal coordinates     .... (new redundants).... done
Validating the new internal coordinates .... (new redundants).... done
Calculating the B-matrix                .... done
Calculating the G,G- and P matrices     .... done
Transforming gradient to internals      .... done
Projecting the internal gradient        .... done
Number of atoms                         ....   2
Number of internal coordinates          ....   1
Current Energy                          ....  -246.662816104 Eh
Current gradient norm                   ....     0.004378699 Eh/bohr
Maximum allowed component of the step   ....  0.300
Current trust radius                    ....  0.300
Evaluating the initial hessian          ....  (Almloef) done
Projecting the Hessian                  .... done
Forming the augmented Hessian           .... done
Diagonalizing the augmented Hessian     .... done
Last element of RFO vector              ....  0.999987086
Lowest eigenvalues of augmented Hessian:
 -0.000015735
Length of the computed step             ....  0.005082120
The final length of the internal step   ....  0.005082120
Converting the step to cartesian space:
 Initial RMS(Int)=    0.0050821196
Transforming coordinates:
 Iter   0:  RMS(Cart)=    0.0014670815 RMS(Int)=    0.0050821196
 Iter   1:  RMS(Cart)=    0.0000000000 RMS(Int)=    0.0000000000
done
Storing new coordinates                 .... done

                                .--------------------.
          ----------------------|Geometry convergence|-------------------------
          Item                value                   Tolerance       Converged
          ---------------------------------------------------------------------
          RMS gradient        0.0030961787            0.0001000000      NO
          MAX gradient        0.0030961787            0.0003000000      NO
          RMS step            0.0050821196            0.0020000000      NO
          MAX step            0.0050821196            0.0040000000      NO
          ........................................................
          Max(Bonds)      0.0027      Max(Angles)    0.00
          Max(Dihed)        0.00      Max(Improp)    0.00
          ---------------------------------------------------------------------

The optimization has not yet converged - more geometry cycles are needed


    ---------------------------------------------------------------------------
                         Redundant Internal Coordinates
                            (Angstroem and degrees)

        Definition                    Value    dE/dq     Step     New-Value
    ----------------------------------------------------------------------------
     1. B(F   1,Ag  0)                1.9769 -0.003096  0.0027    1.9796   
    ----------------------------------------------------------------------------

         *************************************************************
         *                GEOMETRY OPTIMIZATION CYCLE   2            *
         *************************************************************
---------------------------------
CARTESIAN COORDINATES (ANGSTROEM)
---------------------------------
  Ag     0.000000    0.000000    0.319057
  F      0.000000    0.000000   -1.660508

----------------------------
CARTESIAN COORDINATES (A.U.)
----------------------------
  NO LB      ZA    FRAG     MASS         X           Y           Z
   0 Ag   19.0000*   0   107.870    0.000000    0.000000    0.602930
   1 F     9.0000    0    18.998    0.000000    0.000000   -3.137905
* core charge reduced due to ECP

--------------------------------
INTERNAL COORDINATES (ANGSTROEM)
--------------------------------
 Ag     0   0   0     0.000000000000     0.00000000     0.00000000
 F      1   0   0     1.979564341844     0.00000000     0.00000000

---------------------------
INTERNAL COORDINATES (A.U.)
---------------------------
 Ag     0   0   0     0.000000000000     0.00000000     0.00000000
 F      1   0   0     3.740834470562     0.00000000     0.00000000



           ************************************************************
           *        Program running with 24 parallel MPI-processes    *
           *              working on a common directory               *
           ************************************************************
 One Electron integrals                  ... done
 Pre-screening matrix                    ... done


           ************************************************************
           *        Program running with 24 parallel MPI-processes    *
           *              working on a common directory               *
           ************************************************************

Diagonalization of the overlap matrix:
Smallest eigenvalue                        ... 3.413e-03
Time for diagonalization                   ...    0.003 sec
Threshold for overlap eigenvalues          ... 1.000e-08
Number of eigenvalues below threshold      ... 0
Time for construction of square roots      ...    0.001 sec
Total time needed                          ...    0.004 sec

-------------------
DFT GRID GENERATION
-------------------

General Integration Accuracy     IntAcc      ...  4.670
Radial Grid Type                 RadialGrid  ... Gauss-Chebyshev
Angular Grid (max. acc.)         AngularGrid ... Lebedev-302
Angular grid pruning method      GridPruning ... 3 (G Style)
Weight generation scheme         WeightScheme... Becke
Basis function cutoff            BFCut       ...    1.0000e-11
Integration weight cutoff        WCut        ...    1.0000e-14
Grids for H and He will be reduced by one unit

# of grid points (after initial pruning)     ...  16930 (   0.0 sec)
# of grid points (after weights+screening)   ...  16875 (   0.0 sec)
nearest neighbour list constructed           ...    0.0 sec
Grid point re-assignment to atoms done       ...    0.0 sec
Grid point division into batches done        ...    0.1 sec
Reduced shell lists constructed in    0.1 sec

Total number of grid points                  ...    16875
Total number of batches                      ...      265
Average number of points per batch           ...       63
Average number of grid points per atom       ...     8438
Average number of shells per batch           ...     3.31 (11.03%)
Average number of basis functions per batch  ...     7.62 ( 7.93%)
Average number of large shells per batch     ...     2.08 (62.79%)
Average number of large basis fcns per batch ...     4.38 (57.58%)
Average number of aux-shells per batch       ...     3.31 ( 4.47%)
Average number of aux functions per batch    ...     7.62 ( 2.29%)
Maximum spatial batch extension              ...  36.77, 40.43, 23.83 au
Average spatial batch extension              ...   1.20,  1.22,  0.86 au

Time for grid setup =    0.186 sec

--------------
SCF ITERATIONS
--------------
ITER       Energy         Delta-E        Max-DP      RMS-DP      [F,P]     Damp
  0   -246.2089157577   0.000000000000 0.00008805  0.00000297  0.0046774 0.7000
  1   -246.2089738789  -0.000058121228 0.00007573  0.00000299  0.0032936 0.7000
                               ***Turning on DIIS***
  2   -246.2089727798   0.000001099167 0.00020428  0.00000824  0.0023074 0.0000
  3   -246.2089166536   0.000056126213 0.00011856  0.00000419  0.0001073 0.0000
  4   -246.2089166700  -0.000000016478 0.00005030  0.00000176  0.0001317 0.0000
  5   -246.2089166957  -0.000000025669 0.00004840  0.00000093  0.0000248 0.0000
  6   -246.2089166984  -0.000000002652 0.00003547  0.00000066  0.0000130 0.0000
  7   -246.2089166993  -0.000000000997 0.00002302  0.00000043  0.0000074 0.0000
  8   -246.2089166996  -0.000000000279 0.00000604  0.00000011  0.0000013 0.0000
                 **** Energy Check signals convergence ****

               *****************************************************
               *                     SUCCESS                       *
               *           SCF CONVERGED AFTER   9 CYCLES          *
               *****************************************************

Total Energy       :         -246.20891670 Eh           -6699.68523 eV
  Last Energy change         ...   -1.5035e-11  Tolerance :   1.0000e-08
  Last MAX-Density change    ...    4.3239e-07  Tolerance :   1.0000e-07
             **** THE GBW FILE WAS UPDATED (Ag01N0_F.gbw) ****
             **** DENSITY FILE WAS UPDATED (Ag01N0_F.scfp) ****
             **** ENERGY FILE WAS UPDATED (Ag01N0_F.en.tmp) ****
             **** THE GBW FILE WAS UPDATED (Ag01N0_F.gbw) ****
             **** DENSITY FILE WAS UPDATED (Ag01N0_F.scfp) ****
Total SCF time: 0 days 0 hours 0 min 1 sec 


           ************************************************************
           *        Program running with 24 parallel MPI-processes    *
           *              working on a common directory               *
           ************************************************************

------------------------------------------------------------------------------
                                ORCA  MP2 
------------------------------------------------------------------------------

Freezing NCore=2 chemical core electrons

----------------------
RI-MP2 ENERGY+GRADIENT
----------------------
Dimension of the basis                    ...   96
Memory devoted to MP2                     ... 5000 MB   
Data format for buffers                   ... DOUBLE
Compression type for matrix containers    ... UNCOMPRESSED
Scaling for aa/bb pairs                   ...   4.000e-01
Scaling for ab pairs                      ...   4.700e-01
Overall scaling of the MP2 energy         ...   1.000e+00
Calculating two index integrals           ... done (    0.004 sec)
Cholesky decomposition of the V-matrix    ... done
Cholesky decomposition of V**-1           ... done (    0.003 sec)

-----------------
RI-TRANSFORMATION (AUX index driven)
-----------------

Dimension of the orbital-basis         ... 96
Dimension of the aux-basis             ... 268
Transformation of internal MOs         ...    0-  13
Transformation of internal/external MOs...    0-  13 to   14-  95
Number Format for Storage              ... Double (8 Byte)
Integral mode                          ... Direct

First Phase: integral generation and transformation of MO indices
  Aux angular momentum 0               ... done (    0.000 sec)
  Aux angular momentum 1               ... done (    0.001 sec)
  Aux angular momentum 2               ... done (    0.001 sec)
  Aux angular momentum 3               ... done (    0.001 sec)
  Aux angular momentum 4               ... done (    0.002 sec)
  Aux angular momentum 5               ... done (    0.002 sec)
  Aux angular momentum 6               ... done (    0.003 sec)
Closing buffer VIJ ( 0.00 GB; CompressionRatio= 0.99)
Closing buffer VIA ( 0.00 GB; CompressionRatio= 1.00)
  Phase 1 completed in     0.110 sec
Second Phase: sorting and transformation of aux index

IJ-Transformation
Memory available                       ... 4997 MB 
Max. # MO pairs treated in a batch     ... 1    
# of internal orbitals                 ... 14
# batches for internal orbitals        ... 1
Closing buffer IJV ( 0.00 GB; CompressionRatio= 0.99)
(ij|v) transformation done in     0.001 sec

IA-Transformation
Memory available                       ... 4997 MB 
Max. # MO pairs treated in a batch     ... 1    
# of internal orbitals                 ... 14
# batches for internal orbitals        ... 1
Closing buffer IAV ( 0.00 GB; CompressionRatio= 1.00)
(ia|v) transformation done in     0.003 sec

  Phase 2 completed in     0.010 sec
RI-Integral transformation completed in     0.122 sec
Opening buffers                              ... done
Frozen core precalculation                   ... done

Starting loop over batches of integrals:

Operator 0  - window                       ... (  1- 13)x( 14- 95)
Operator 0  - Memory available             ...  5000 MB
Operator 0  - Memory needed per MO         ...   0.3 MB
Operator 0  - Number of orbitals per batch ... 1
Operator 0  - Number of batches            ... 1

OPERATOR  0   PASS   0:  MOs     1 ...    1 +    2 ...    2 +    3 ...    3 +    4 ...    4
                            +    5 ...    5 +    6 ...    6 +    7 ...    7 +    8 ...    8
                            +    9 ...    9 +   10 ...   10 +   11 ...   11 +   12 ...   12
                            +   13 ...   13
  Reading integrals       ... ok
Closing buffer GIPV ( 0.00 GB; CompressionRatio= 1.00)
Time spent in pair loops =     0.059 sec
Deleting buffer (Ka|jb)[aa] ...done

-----------------------------------------------
 RI-MP2 CORRELATION ENERGY:     -0.453113677 Eh
-----------------------------------------------


---------------------
MP2 DENSITY FORMATION
---------------------

Completing the external part of the density      ... done
Storing the unrelaxed density                    ... done

Calculating the xc-kernel                        ... done
Calculating G(D)                                 ... done
Completing the Lagrangian                        ... done
Solving the Z-vector equations                   ... 

------------------------------------------------------------------------------
                           ORCA CP-SCF CALCULATION
------------------------------------------------------------------------------

Input orbitals are from        ... Ag01N0_F.gbw
Input Perturbation             ... Ag01N0_F.pin.tmp
Wavefunction output            ... Ag01N0_F.pout.tmp
Perturbation mode              ... Real perturbation (singlet)
Solver                         ... POPLE
Max. number of iterations      ... 128
Convergence tolerance          ... 1.000e-08
Integral handling              ... Direct
Number of perturbations        ... 1
Number of operators            ... 1
Orbital ranges used for CP-SCF:
 Operator 0:  Orbitals   0... 13  to  14... 95
DFT calculation                         ... on
Exchange functional (SCF)               ... B88
Exchange functional (CP-SCF)            ... B88
   X-Alpha parameter    XAlpha (SCF)    ...  0.666667
   X-Alpha parameter    XAlpha (CP-SCF) ...  0.666667
   Becke's b parameter  XBeta (SCF)     ...  0.004200
   Becke's b parameter  XBeta (CP-SCF)  ...  0.004200
Correlation functional (SCF)            ... LYP
Correlation functional (CP-SCF)         ... LYP
 LDA part of GGA corr.  LDAOpt (SCF)    ... VWN-5
 LDA part of GGA corr.  LDAOpt (CP-SCF) ... VWN-5
Hybrid DFT                              ... on
   Exchange mixing (SCF)                ...  0.710
   Exchange mixing (CP-SCF)             ...  0.710
   GGA exch. scaling(SCF)               ...  0.290
   GGA exch. scaling (CP-SCF)           ...  0.290
   GGA corr. scaling (SCF)              ...  0.540
   GGA corr. scaling (CP-SCF)           ...  0.540
Variables per vector in CP-SCF ... 1148
Number of vectors sought       ... 1
Recalculating density on grid  ... done
Calculating the xc-kernel      ... done
     CP-SCF ITERATION   0: 
     CP-SCF ITERATION   1:      0.001111483111
     CP-SCF ITERATION   2:      0.000295280151
     CP-SCF ITERATION   3:      0.000025198933
     CP-SCF ITERATION   4:      0.000000836029
     CP-SCF ITERATION   5:      0.000000105574
     CP-SCF ITERATION   6:      0.000000012693
     CP-SCF ITERATION   7:      0.000000000416
done
Finalizing the relaxed density                   ... done
Transforming P to the AO basis                   ... done
Storing the relaxed density                      ... done

------------------------------------
ENERGY WEIGHTED DENSITY FINALIZATION
------------------------------------

Gathering the parts of the W-matrix              ... done
Forming the Z-density                            ... done
Transforming Z to the AO basis                   ... done
Calculating G(Z)                                 ... done
Finalizing the W-matrix                          ... done
Transforming W to the AO basis and storing       ... done
Entering the RIJONX and RIJCOSX sections
Starting the three-index derivative integrals:
Operator 0  - Memory available             ...  5000 MB
Operator 0  - Memory needed per MO         ...   0.4 MB
Operator 0  - Number of orbitals per batch ... 1
Operator 0  - Number of batches            ... 1

OPERATOR  0   PASS   0:  MOs     1 ...    1 +    2 ...    2 +    3 ...    3 +    4 ...    4
                            +    5 ...    5 +    6 ...    6 +    7 ...    7 +    8 ...    8
                            +    9 ...    9 +   10 ...   10 +   11 ...   11 +   12 ...   12
                            +   13 ...   13

----------------------------------
MP2 DERIVATIVE INTEGRAL GENERATION
----------------------------------


Input Correlated Electron Density   ... Ag01N0_F.pmp2re
Input Energy Weighted Density       ... Ag01N0_F.wmp2.tmp
Input SCF Electron Density          ... Ag01N0_F.scfp

One-Electron Terms    ...
  ECP gradient                                           ... One-Electron Terms done
Prescreening matrices              ... done
Exchange-correlation gradient    ... done
Dispersion correction            ... done

-------
TIMINGS
-------

Total time                :    4.350 sec
Integral trafo            :    0.130 sec (  3.0%)
FC preparation            :    0.057 sec (  1.3%)
I/O of integrals          :    0.000 sec (  0.0%)
K(i,j) Operators          :    0.001 sec (  0.0%)
T(i,j) pair energies      :    0.001 sec (  0.0%)
V-calculation             :    0.004 sec (  0.1%)
V**(-1/2)                 :    0.003 sec (  0.1%)
Gamma(ia|P)               :    0.001 sec (  0.0%)
Gamma-Trafo               :    0.001 sec (  0.0%)
D(virtual)                :    0.000 sec (  0.0%)
D(internal)               :    0.001 sec (  0.0%)
W(virtual)                :    0.000 sec (  0.0%)
W(internal)               :    0.002 sec (  0.0%)
L(virtual)                :    0.033 sec (  0.7%)
L(internal)               :    0.000 sec (  0.0%)
G(D)                      :    0.370 sec (  8.5%)
G(Z)                      :    0.326 sec (  7.5%)
Z-Vector Solution         :    2.212 sec ( 50.8%)
Z-Vector Solution         :    2.212 sec ( 50.8%)
3-Index Derivative 
+ Separable RIJ part      :    0.158 sec (  3.6%)
2-Index Derivative 
+ Separable RIJ part      :    0.001 sec (  0.0%)
Separable Gradient (X)    :    0.926 sec ( 21.3%)


---------------------------------------
MP2 TOTAL ENERGY:     -246.662030377 Eh
---------------------------------------

-----------------------------------
NORM OF THE MP2 GRADIENT:  0.003220
-----------------------------------


-------------------------------------------------------------------------------
                          DFT DISPERSION CORRECTION                            
                                                                               
                              DFTD3 V3.1  Rev 1                                
                          USING Becke-Johnson damping                          
-------------------------------------------------------------------------------
-------------------------   ----------------
Dispersion correction           -0.000798801
-------------------------   ----------------


-------------------------   --------------------
FINAL SINGLE POINT ENERGY      -246.662829178423
-------------------------   --------------------

------------------------------------------------------------------------------
                         ORCA GEOMETRY RELAXATION STEP
------------------------------------------------------------------------------

Reading the OPT-File                    .... done
Getting information on internals        .... done
Copying old internal coords+grads       .... done
Making the new internal coordinates     .... (new redundants).... done
Validating the new internal coordinates .... (new redundants).... done
Calculating the B-matrix                .... done
Calculating the G,G- and P matrices     .... done
Transforming gradient to internals      .... done
Projecting the internal gradient        .... done
Number of atoms                         ....   2
Number of internal coordinates          ....   1
Current Energy                          ....  -246.662829178 Eh
Current gradient norm                   ....     0.003220426 Eh/bohr
Maximum allowed component of the step   ....  0.300
Current trust radius                    ....  0.300
Updating the Hessian (BFGS)             .... done
Forming the augmented Hessian           .... done
Diagonalizing the augmented Hessian     .... done
Last element of RFO vector              ....  0.999900226
Lowest eigenvalues of augmented Hessian:
 -0.000032170
Length of the computed step             ....  0.014127219
The final length of the internal step   ....  0.014127219
Converting the step to cartesian space:
 Initial RMS(Int)=    0.0141272186
Transforming coordinates:
 Iter   0:  RMS(Cart)=    0.0040781767 RMS(Int)=    0.0141272186
 Iter   1:  RMS(Cart)=    0.0000000000 RMS(Int)=    0.0000000000
done
Storing new coordinates                 .... done

                                .--------------------.
          ----------------------|Geometry convergence|-------------------------
          Item                value                   Tolerance       Converged
          ---------------------------------------------------------------------
          Energy change      -0.0000130748            0.0000050000      NO
          RMS gradient        0.0022771583            0.0001000000      NO
          MAX gradient        0.0022771583            0.0003000000      NO
          RMS step            0.0141272186            0.0020000000      NO
          MAX step            0.0141272186            0.0040000000      NO
          ........................................................
          Max(Bonds)      0.0075      Max(Angles)    0.00
          Max(Dihed)        0.00      Max(Improp)    0.00
          ---------------------------------------------------------------------

The optimization has not yet converged - more geometry cycles are needed


    ---------------------------------------------------------------------------
                         Redundant Internal Coordinates
                            (Angstroem and degrees)

        Definition                    Value    dE/dq     Step     New-Value
    ----------------------------------------------------------------------------
     1. B(F   1,Ag  0)                1.9796 -0.002277  0.0075    1.9870   
    ----------------------------------------------------------------------------

         *************************************************************
         *                GEOMETRY OPTIMIZATION CYCLE   3            *
         *************************************************************
---------------------------------
CARTESIAN COORDINATES (ANGSTROEM)
---------------------------------
  Ag     0.000000    0.000000    0.322795
  F      0.000000    0.000000   -1.664246

----------------------------
CARTESIAN COORDINATES (A.U.)
----------------------------
  NO LB      ZA    FRAG     MASS         X           Y           Z
   0 Ag   19.0000*   0   107.870    0.000000    0.000000    0.609993
[...]
      g0      :     0.000506  g :     0.004140
      g+1     :     0.000474
      g-1     :     0.000474
      g+2     :     0.000453
      g-2     :     0.000453
      g+3     :     0.000449
      g-3     :     0.000449
      g+4     :     0.000441
      g-4     :     0.000441
  1 F s       :     3.989831  s :     3.989831
      pz      :     1.777715  p :     5.720404
      px      :     1.971345
      py      :     1.971345
      dz2     :     0.005669  d :     0.014100
      dxz     :     0.001743
      dyz     :     0.001743
      dx2y2   :     0.002472
      dxy     :     0.002472
      f0      :     0.000188  f :     0.001111
      f+1     :     0.000172
      f-1     :     0.000172
      f+2     :     0.000146
      f-2     :     0.000146
      f+3     :     0.000143
      f-3     :     0.000143


                     *******************************
                     * LOEWDIN POPULATION ANALYSIS *
                     *******************************

----------------------
LOEWDIN ATOMIC CHARGES
----------------------
   0 Ag:    0.727676
   1 F :   -0.727676

-------------------------------
LOEWDIN REDUCED ORBITAL CHARGES
-------------------------------
  0 Ags       :     2.155114  s :     2.155114
      pz      :     2.071302  p :     6.139018
      px      :     2.033858
      py      :     2.033858
      dz2     :     1.964123  d :     9.910335
      dxz     :     1.986426
      dyz     :     1.986426
      dx2y2   :     1.986680
      dxy     :     1.986680
      f0      :     0.013535  f :     0.063644
      f+1     :     0.009900
      f-1     :     0.009900
      f+2     :     0.007621
      f-2     :     0.007621
      f+3     :     0.007534
      f-3     :     0.007534
      g0      :     0.000550  g :     0.004213
      g+1     :     0.000489
      g-1     :     0.000489
      g+2     :     0.000453
      g-2     :     0.000453
      g+3     :     0.000449
      g-3     :     0.000449
      g+4     :     0.000441
      g-4     :     0.000441
  1 F s       :     3.888235  s :     3.888235
      pz      :     1.843950  p :     5.727902
      px      :     1.941976
      py      :     1.941976
      dz2     :     0.054847  d :     0.110267
      dxz     :     0.022255
      dyz     :     0.022255
      dx2y2   :     0.005455
      dxy     :     0.005455
      f0      :     0.000270  f :     0.001273
      f+1     :     0.000210
      f-1     :     0.000210
      f+2     :     0.000149
      f-2     :     0.000149
      f+3     :     0.000143
      f-3     :     0.000143


                      *****************************
                      * MAYER POPULATION ANALYSIS *
                      *****************************

  NA   - Mulliken gross atomic population
  ZA   - Total nuclear charge
  QA   - Mulliken gross atomic charge
  VA   - Mayer's total valence
  BVA  - Mayer's bonded valence
  FA   - Mayer's free valence

  ATOM       NA         ZA         QA         VA         BVA        FA
  0 Ag    18.2746    19.0000     0.7254     0.8847     0.4287     0.4560
  1 F      9.7254     9.0000    -0.7254     0.6980     0.4287     0.2694

  Mayer bond orders larger than 0.100000
B(  0-Ag,  1-F ) :   0.4287 


-------
TIMINGS
-------

Total time                :    4.322 sec
Integral trafo            :    0.130 sec (  3.0%)
FC preparation            :    0.014 sec (  0.3%)
I/O of integrals          :    0.000 sec (  0.0%)
K(i,j) Operators          :    0.001 sec (  0.0%)
T(i,j) pair energies      :    0.000 sec (  0.0%)
V-calculation             :    0.005 sec (  0.1%)
V**(-1/2)                 :    0.003 sec (  0.1%)
Gamma(ia|P)               :    0.001 sec (  0.0%)
Gamma-Trafo               :    0.001 sec (  0.0%)
D(virtual)                :    0.000 sec (  0.0%)
D(internal)               :    0.001 sec (  0.0%)
W(virtual)                :    0.000 sec (  0.0%)
W(internal)               :    0.002 sec (  0.0%)
L(virtual)                :    0.034 sec (  0.8%)
L(internal)               :    0.000 sec (  0.0%)
G(D)                      :    0.377 sec (  8.7%)
G(Z)                      :    0.323 sec (  7.5%)
Z-Vector Solution         :    2.199 sec ( 50.9%)
Z-Vector Solution         :    2.199 sec ( 50.9%)
3-Index Derivative 
+ Separable RIJ part      :    0.161 sec (  3.7%)
2-Index Derivative 
+ Separable RIJ part      :    0.001 sec (  0.0%)
Separable Gradient (X)    :    0.928 sec ( 21.5%)


---------------------------------------
MP2 TOTAL ENERGY:     -246.662049177 Eh
---------------------------------------

-----------------------------------
NORM OF THE MP2 GRADIENT:  0.000007
-----------------------------------


-------------------------------------------------------------------------------
                          DFT DISPERSION CORRECTION                            
                                                                               
                              DFTD3 V3.1  Rev 1                                
                          USING Becke-Johnson damping                          
-------------------------------------------------------------------------------
The DSD-BLYP/2013 functional is recognized
Active option DFTDOPT                   ...         4   

molecular C6(AA) [au] = 356.132473 


            DFT-D V3
 parameters
 s6 scaling factor         :     0.5700 
 a1 scaling factor         :     0.0000 
 s8 scaling factor         :     0.0000 
 a2 scaling factor         :     5.4000 
 ad hoc parameters k1-k3   :    16.0000     1.3333    -4.0000 

 Edisp/kcal,au: -0.500182163429  -0.000797090930 
 E6   /kcal   :  -0.500182163 
 E8   /kcal   :  -0.000000000 
 % E8         :   0.000000000 

-------------------------   ----------------
Dispersion correction           -0.000797091
-------------------------   ----------------


-------------------------   --------------------
FINAL SINGLE POINT ENERGY      -246.662846267503
-------------------------   --------------------

                                *** OPTIMIZATION RUN DONE ***

                            ***************************************
                            *     ORCA property calculations      *
                            ***************************************

                                    ---------------------
                                    Active property flags
                                    ---------------------
   (+) Dipole Moment


------------------------------------------------------------------------------
                       ORCA ELECTRIC PROPERTIES CALCULATION
------------------------------------------------------------------------------

Dipole Moment Calculation                       ... on
Quadrupole Moment Calculation                   ... off
Polarizability Calculation                      ... off
GBWName                                         ... Ag01N0_F.gbw
Electron density file                           ... Ag01N0_F.scfp
The origin for moment calculation is the CENTER OF MASS  = ( 0.000000,  0.000000  0.047808)

-------------
DIPOLE MOMENT
-------------
                                X             Y             Z
Electronic contribution:      0.00000      -0.00000      20.65541
Nuclear contribution   :      0.00000       0.00000     -18.05195
                        -----------------------------------------
Total Dipole Moment    :      0.00000      -0.00000       2.60345
                        -----------------------------------------
Magnitude (a.u.)       :      2.60345
Magnitude (Debye)      :      6.61745



--------------------
Rotational spectrum 
--------------------
 
Rotational constants in cm-1:     0.000000     0.264276     0.264276 
Rotational constants in MHz :     0.000000  7922.786362  7922.786362 

 Dipole components along the rotational axes: 
x,y,z [a.u.] :     2.603451    -0.000000     0.000000 
x,y,z [Debye]:     6.617447    -0.000000     0.000000 

 

                         *** MP2 UNRELAXED DENSITY ***

------------------------------------------------------------------------------
                       ORCA ELECTRIC PROPERTIES CALCULATION
------------------------------------------------------------------------------

Dipole Moment Calculation                       ... on
Quadrupole Moment Calculation                   ... off
Polarizability Calculation                      ... off
GBWName                                         ... Ag01N0_F.gbw
Electron density file                           ... Ag01N0_F.pmp2ur
The origin for moment calculation is the CENTER OF MASS  = ( 0.000000,  0.000000  0.047808)

-------------
DIPOLE MOMENT
-------------
                                X             Y             Z
Electronic contribution:      0.00000      -0.00000      20.62000
Nuclear contribution   :      0.00000       0.00000     -18.05195
                        -----------------------------------------
Total Dipole Moment    :      0.00000      -0.00000       2.56804
                        -----------------------------------------
Magnitude (a.u.)       :      2.56804
Magnitude (Debye)      :      6.52745



--------------------
Rotational spectrum 
--------------------
 
Rotational constants in cm-1:     0.000000     0.264276     0.264276 
Rotational constants in MHz :     0.000000  7922.786362  7922.786362 

 Dipole components along the rotational axes: 
x,y,z [a.u.] :     2.568044    -0.000000     0.000000 
x,y,z [Debye]:     6.527448    -0.000000     0.000000 

 

                           *** MP2 RELAXED DENSITY ***

------------------------------------------------------------------------------
                       ORCA ELECTRIC PROPERTIES CALCULATION
------------------------------------------------------------------------------

Dipole Moment Calculation                       ... on
Quadrupole Moment Calculation                   ... off
Polarizability Calculation                      ... off
GBWName                                         ... Ag01N0_F.gbw
Electron density file                           ... Ag01N0_F.pmp2re
The origin for moment calculation is the CENTER OF MASS  = ( 0.000000,  0.000000  0.047808)

-------------
DIPOLE MOMENT
-------------
                                X             Y             Z
Electronic contribution:      0.00000      -0.00000      20.44666
Nuclear contribution   :      0.00000       0.00000     -18.05195
                        -----------------------------------------
Total Dipole Moment    :      0.00000      -0.00000       2.39470
                        -----------------------------------------
Magnitude (a.u.)       :      2.39470
Magnitude (Debye)      :      6.08685



--------------------
Rotational spectrum 
--------------------
 
Rotational constants in cm-1:     0.000000     0.264276     0.264276 
Rotational constants in MHz :     0.000000  7922.786362  7922.786362 

 Dipole components along the rotational axes: 
x,y,z [a.u.] :     2.394704    -0.000000     0.000000 
x,y,z [Debye]:     6.086855    -0.000000     0.000000 

 

----------------------------------------------------------------------------
                           ORCA NUMERICAL FREQUENCIES
                              (24-process run)
----------------------------------------------------------------------------

Number of atoms                ... 2
Central differences            ... used
Number of displacements        ... 12
Numerical increment            ... 5.000e-03 bohr
IR-spectrum generation         ... on
Raman-spectrum generation      ... off
Surface Crossing Hessian       ... off

 WARNING: There are more processes than displacements to do
  ====> : Reducing number of processes to   6

The output will be reduced. Please look at the following files:
SCF program output             ... >Ag01N0_F.lastscf
Integral program output        ... >Ag01N0_F.lastint
Gradient program output        ... >Ag01N0_F.lastgrad
Dipole moment program output   ... >Ag01N0_F.lastmom
AutoCI program output          ... >Ag01N0_F.lastautoci


         <<< Energy and Gradient at the input geometry >>>

        <<< Energy and Gradient at displaced geometries >>>
             <<<Displacing   2/coordinate 3 (+)>>>
             <<<Displacing   2/coordinate 2 (+)>>>
             <<<Displacing   2/coordinate 1 (+)>>>
             <<<Displacing   1/coordinate 3 (+)>>>
             <<<Displacing   1/coordinate 1 (+)>>>
             <<<Displacing   1/coordinate 2 (+)>>>
             <<<Displacing   2/coordinate 1 (-)>>>
             <<<Displacing   2/coordinate 2 (-)>>>
             <<<Displacing   1/coordinate 1 (-)>>>
             <<<Displacing   1/coordinate 2 (-)>>>
             <<<Displacing   2/coordinate 3 (-)>>>
             <<<Displacing   1/coordinate 3 (-)>>>
Warning: T+R mode no 5 is zero 

-----------------------
VIBRATIONAL FREQUENCIES
-----------------------

Scaling factor for frequencies =  1.000000000 (already applied!)

   0:         0.00 cm**-1
   1:         0.00 cm**-1
   2:         0.00 cm**-1
   3:         0.00 cm**-1
   4:         0.00 cm**-1
   5:       503.52 cm**-1


------------
NORMAL MODES
------------

These modes are the cartesian displacements weighted by the diagonal matrix
M(i,i)=1/sqrt(m[i]) where m[i] is the mass of the displaced atom
Thus, these vectors are normalized but *not* orthogonal

                  0          1          2          3          4          5    
      0       0.000000   0.000000   0.000000   0.000000   0.000000   0.000000
      1       0.000000   0.000000   0.000000   0.000000   0.000000   0.000000
      2       0.000000   0.000000   0.000000   0.000000   0.000000   0.173450
      3       0.000000   0.000000   0.000000   0.000000   0.000000   0.000000
      4       0.000000   0.000000   0.000000   0.000000   0.000000   0.000000
      5       0.000000   0.000000   0.000000   0.000000   0.000000  -0.984843


-----------
IR SPECTRUM  
-----------

 Mode    freq (cm**-1)   T**2         TX         TY         TZ
-------------------------------------------------------------------
   5:       503.52   58.153918  ( -0.000001   0.000004   7.625872)

The first frequency considered to be a vibration is 5
The total number of vibrations considered is 1


--------------------------
THERMOCHEMISTRY AT 298.15K
--------------------------

Temperature         ... 298.15 K
Pressure            ... 1.00 atm
Total Mass          ... 126.87 AMU
The molecule is recognized as being linear

Throughout the following assumptions are being made:
  (1) The electronic state is orbitally nondegenerate
  (2) There are no thermally accessible electronically excited states
  (3) Hindered rotations indicated by low frequency modes are not
      treated as such but are treated as vibrations and this may
      cause some error
  (4) All equations used are the standard statistical mechanics
      equations for an ideal gas
  (5) All vibrations are strictly harmonic

freq.     503.52  E(vib)   ...       0.14 

------------
INNER ENERGY
------------

The inner energy is: U= E(el) + E(ZPE) + E(vib) + E(rot) + E(trans)
    E(el)   - is the total energy from the electronic structure calculation
              = E(kin-el) + E(nuc-el) + E(el-el) + E(nuc-nuc)
    E(ZPE)  - the the zero temperature vibrational energy from the frequency calculation
    E(vib)  - the the finite temperature correction to E(ZPE) due to population
              of excited vibrational states
    E(rot)  - is the rotational thermal energy
    E(trans)- is the translational thermal energy

Summary of contributions to the inner energy U:
Electronic energy                ...   -246.66284613 Eh
Zero point energy                ...      0.00114709 Eh       0.72 kcal/mol
Thermal vibrational correction   ...      0.00022153 Eh       0.14 kcal/mol
Thermal rotational correction    ...      0.00094418 Eh       0.59 kcal/mol
Thermal translational correction ...      0.00141627 Eh       0.89 kcal/mol
-----------------------------------------------------------------------
Total thermal energy                   -246.65911706 Eh


Summary of corrections to the electronic energy:
(perhaps to be used in another calculation)
Total thermal correction                  0.00258199 Eh       1.62 kcal/mol
Non-thermal (ZPE) correction              0.00114709 Eh       0.72 kcal/mol
-----------------------------------------------------------------------
Total correction                          0.00372908 Eh       2.34 kcal/mol


--------
ENTHALPY
--------

The enthalpy is H = U + kB*T
                kB is Boltzmann's constant
Total free energy                 ...   -246.65911706 Eh 
Thermal Enthalpy correction       ...      0.00094421 Eh       0.59 kcal/mol
-----------------------------------------------------------------------
Total Enthalpy                    ...   -246.65817285 Eh


Note: Rotational entropy computed according to Herzberg 
Infrared and Raman Spectra, Chapter V,1, Van Nostrand Reinhold, 1945 
Point Group:  Cinfv, Symmetry Number:   1  
Rotational constants in cm-1:     0.000000     0.264276     0.264276 

Vibrational entropy computed according to the QRRHO of S. Grimme
Chem.Eur.J. 2012 18 9955


-------
ENTROPY
-------

The entropy contributions are T*S = T*(S(el)+S(vib)+S(rot)+S(trans))
     S(el)   - electronic entropy
     S(vib)  - vibrational entropy
     S(rot)  - rotational entropy
     S(trans)- translational entropy
The entropies will be listed as mutliplied by the temperature to get
units of energy

Electronic entropy                ...      0.00000000 Eh      0.00 kcal/mol
Vibrational entropy               ...      0.00030900 Eh      0.19 kcal/mol
Rotational entropy                ...      0.00723674 Eh      4.54 kcal/mol
Translational entropy             ...      0.01920828 Eh     12.05 kcal/mol
-----------------------------------------------------------------------
Final entropy term                ...      0.02675403 Eh     16.79 kcal/mol

In case the symmetry of your molecule has not been determined correctly
or in case you have a reason to use a different symmetry number we print 
out the resulting rotational entropy values for sn=1,12 :
 --------------------------------------------------------
|  sn= 1 | S(rot)=             -inf Eh      -inf kcal/mol|
|  sn= 2 | S(rot)=             -inf Eh      -inf kcal/mol|
|  sn= 3 | S(rot)=             -inf Eh      -inf kcal/mol|
|  sn= 4 | S(rot)=             -inf Eh      -inf kcal/mol|
|  sn= 5 | S(rot)=             -inf Eh      -inf kcal/mol|
|  sn= 6 | S(rot)=             -inf Eh      -inf kcal/mol|
|  sn= 7 | S(rot)=             -inf Eh      -inf kcal/mol|
|  sn= 8 | S(rot)=             -inf Eh      -inf kcal/mol|
|  sn= 9 | S(rot)=             -inf Eh      -inf kcal/mol|
|  sn=10 | S(rot)=             -inf Eh      -inf kcal/mol|
|  sn=11 | S(rot)=             -inf Eh      -inf kcal/mol|
|  sn=12 | S(rot)=             -inf Eh      -inf kcal/mol|
 --------------------------------------------------------


-------------------
GIBBS FREE ENERGY
-------------------

The Gibbs free energy is G = H - T*S

Total enthalpy                    ...   -246.65817285 Eh 
Total entropy correction          ...     -0.02675403 Eh    -16.79 kcal/mol
-----------------------------------------------------------------------
Final Gibbs free energy         ...   -246.68492688 Eh

For completeness - the Gibbs free energy minus the electronic energy
G-E(el)                           ...     -0.02208074 Eh    -13.86 kcal/mol


Total Time for Numerical Frequencies  :        42.194 sec

Timings for individual modules:

Sum of individual times         ...       38.467 sec (=   0.641 min)
GTO integral calculation        ...        3.471 sec (=   0.058 min)   9.0 %
SCF iterations                  ...       10.729 sec (=   0.179 min)  27.9 %
MP2 module                      ...       24.151 sec (=   0.403 min)  62.8 %
Geometry relaxation             ...        0.116 sec (=   0.002 min)   0.3 %
                             ****ORCA TERMINATED NORMALLY****
TOTAL RUN TIME: 0 days 0 hours 1 minutes 14 seconds 715 msec
