
                                 *****************
                                 * O   R   C   A *
                                 *****************

           --- An Ab Initio, DFT and Semiempirical electronic structure package ---

                  #######################################################
                  #                        -***-                        #
                  #          Department of theory and spectroscopy      #
                  #               Directorship: Frank Neese             #
                  #        Max Planck Institute fuer Kohlenforschung    #
                  #                Kaiser Wilhelm Platz 1               #
                  #                 D-45470 Muelheim/Ruhr               #
                  #                      Germany                        #
                  #                                                     #
                  #                  All rights reserved                #
                  #                        -***-                        #
                  #######################################################


                         Program Version 4.2.0 -  RELEASE  -


 With contributions from (in alphabetic order):
   Daniel Aravena         : Magnetic Suceptibility
   Michael Atanasov       : Ab Initio Ligand Field Theory (pilot matlab implementation)
   Alexander A. Auer      : GIAO ZORA, VPT2
   Ute Becker             : Parallelization
   Giovanni Bistoni       : ED, misc. LED, open-shell LED, HFLED
   Martin Brehm           : Molecular dynamics
   Dmytro Bykov           : SCF Hessian
   Vijay G. Chilkuri      : MRCI spin determinant printing, contributions to CSF-ICE
   Dipayan Datta          : RHF DLPNO-CCSD density
   Achintya Kumar Dutta   : EOM-CC, STEOM-CC
   Dmitry Ganyushin       : Spin-Orbit,Spin-Spin,Magnetic field MRCI
   Miquel Garcia          : C-PCM Hessian, Gaussian charge scheme
   Yang Guo               : DLPNO-NEVPT2, CIM, IAO-localization
   Andreas Hansen         : Spin unrestricted coupled pair/coupled cluster methods
   Benjamin Helmich-Paris : CASSCF linear response (MC-RPA)
   Lee Huntington         : MR-EOM, pCC
   Robert Izsak           : Overlap fitted RIJCOSX, COSX-SCS-MP3, EOM
   Christian Kollmar      : KDIIS, OOCD, Brueckner-CCSD(T), CCSD density
   Simone Kossmann        : Meta GGA functionals, TD-DFT gradient, OOMP2, MP2 Hessian
   Martin Krupicka        : AUTO-CI
   Lucas Lang             : DCDCAS
   Dagmar Lenk            : GEPOL surface, SMD
   Dimitrios Liakos       : Extrapolation schemes; Compound Job, initial MDCI parallelization
   Dimitrios Manganas     : Further ROCIS development; embedding schemes
   Dimitrios Pantazis     : SARC Basis sets
   Taras Petrenko         : DFT Hessian,TD-DFT gradient, ASA, ECA, R-Raman, ABS, FL, XAS/XES, NRVS
   Peter Pinski           : DLPNO-MP2, DLPNO-MP2 Gradient
   Christoph Reimann      : Effective Core Potentials
   Marius Retegan         : Local ZFS, SOC
   Christoph Riplinger    : Optimizer, TS searches, QM/MM, DLPNO-CCSD(T), (RO)-DLPNO pert. Triples
   Tobias Risthaus        : Range-separated hybrids, TD-DFT gradient, RPA, STAB
   Michael Roemelt        : Original ROCIS implementation
   Masaaki Saitow         : Open-shell DLPNO-CCSD energy and density
   Barbara Sandhoefer     : DKH picture change effects
   Avijit Sen             : IP-ROCIS
   Kantharuban Sivalingam : CASSCF convergence, NEVPT2, FIC-MRCI
   Bernardo de Souza      : ESD, SOC TD-DFT
   Georgi Stoychev        : AutoAux, RI-MP2 NMR
   Willem Van den Heuvel  : Paramagnetic NMR
   Boris Wezisla          : Elementary symmetry handling
   Frank Wennmohs         : Technical directorship


 We gratefully acknowledge several colleagues who have allowed us to
 interface, adapt or use parts of their codes:
   Stefan Grimme, W. Hujo, H. Kruse,             : VdW corrections, initial TS optimization,
                  C. Bannwarth                     DFT functionals, gCP, sTDA/sTD-DF
   Ed Valeev, F. Pavosevic, A. Kumar             : LibInt (2-el integral package), F12 methods
   Garnet Chan, S. Sharma, J. Yang, R. Olivares  : DMRG
   Ulf Ekstrom                                   : XCFun DFT Library
   Mihaly Kallay                                 : mrcc  (arbitrary order and MRCC methods)
   Andreas Klamt, Michael Diedenhofen            : otool_cosmo (COSMO solvation model)
   Jiri Pittner, Ondrej Demel                    : Mk-CCSD
   Frank Weinhold                                : gennbo (NPA and NBO analysis)
   Christopher J. Cramer and Donald G. Truhlar   : smd solvation model
   Lars Goerigk                                  : TD-DFT with DH, B97 family of functionals
   V. Asgeirsson, H. Jonsson                     : NEB implementation
   FAccTs GmbH                                   : IRC, NEB, NEB-TS, Multilevel, MM, QM/MM, CI optimization
   S Lehtola, MJT Oliveira, MAL Marques          : LibXC Library


 Your calculation uses the libint2 library for the computation of 2-el integrals
 For citations please refer to: http://libint.valeyev.net

 Your ORCA version has been built with support for libXC version: 4.2.3
 For citations please refer to: https://tddft.org/programs/libxc/

 This ORCA versions uses:
   CBLAS   interface :  Fast vector & matrix operations
   LAPACKE interface :  Fast linear algebra routines
   SCALAPACK package :  Parallel linear algebra routines


Your calculation utilizes the atom-pairwise dispersion correction
with the Becke-Johnson damping scheme (D3BJ)
Cite in your paper:
S.Grimme, S.Ehrlich, L.Goerigk, J Comput Chem, (2011), 32, 1456–1465 
S.Grimme, J.Antony, S.Ehrlich and H.Krieg, J.Chem.Phys., 132, (2010), 154104 
   

----- Orbital basis set information -----
Your calculation utilizes the basis: def2-TZVPPD
   F. Weigend and R. Ahlrichs, Phys. Chem. Chem. Phys. 7, 3297 (2005).
   D. Rappoport and F. Furche, J. Chem. Phys. 133 134105 (2010).

----- AuxC basis set information -----
Your calculation utilizes the auxiliary basis: def2-TZVPPD/C
   A. Hellweg, C. Hattig, S. Hofener and W. Klopper, Theor. Chem. Acc. 117, 587 (2007).

----- AuxJK basis set information -----
Your calculation utilizes the auxiliary basis: def2/JK
   H-Ba, Hf-Rn: F. Weigend, J. Comput. Chem. 29, 167 (2008).

cite the ECPs for Ag [Def2-ECP] as follows:
Ce-Yb(ecp-28): M. Dolg, H. Stoll, H.Preuss, J. Chem. Phys., 1989, 90, 1730-1734.
Y-Cd(ecp-28), Hf-Hg(ecp-46): D. Andrae,U. Haeussermann, M. Dolg, H. Stoll, H. Preuss, Theor. Chim. Acta, 1990, 77, 123-141.
In-Sb(ecp-28), Tl-Bi(ecp-46): B. Metz, H. Stoll, M. Dolg, J. Chem. Phys., 2000, 113, 2563-2569.
Te-Xe(ecp-28), Po-Rn(ecp-46): K. A. Peterson, D. Figgen, E. Goll, H. Stoll, M. Dolg, J. Chem. Phys., 2003, 119, 11113-11123.
Rb(ecp-28), Cs(ecp-46): T. Leininger, A. Nicklass, W. Kuechle, H. Stoll, M. Dolg, A. Bergner, Chem. Phys. Lett., 1996, 255, 274-280.
Sr(ecp-28), Ba(ecp-46): M. Kaupp, P. V. Schleyer, H. Stoll and H. Preuss, J. Chem. Phys., 1991, 94, 1360-1366.
La(ecp-46): M. Dolg, H. Stoll, A. Savin, H. Preuss, Theor. Chim. Acta, 1989, 75, 173-194.
Lu(ecp-28): X. Cao, M. Dolg, J. Chem. Phys., 2001, 115, 7348-7355.

ECP parameters for Ag [Def2-ECP] have been obtained from:
TURBOMOLE (7.0.2)

================================================================================
                                        WARNINGS
                       Please study these warnings very carefully!
================================================================================


WARNING: The frozen-core approximation for MP2-gradient calculations is turned on by default.

WARNING: Geometry Optimization
  ===> : Switching off AutoStart
         For restart on a previous wavefunction, please use MOREAD

WARNING: There are different parametrizations of Gershom Martin's DSD-DFs
         for use with and without D3(BJ)!
         You are using the D3(BJ) parametrized version,
         consistent with the 2013 article (S. Kozuch and J. M. L. Martin, JCC 2013, 34, 2327)

WARNING: The frozen-core approximation is turned on by default for 
         the MP2 part of double-hybrid DFT.

INFO   : the flag for use of LIBINT has been found!

================================================================================
                                       INPUT FILE
================================================================================
NAME = Ag03C1_D3H.in
|  1> #
|  2> # Ag03C1_D3H ri-DSD-BLYP/2013-D3BJ/Def2-TZVPPD
|  3> #
|  4> ! rijk ri-dsd-blyp/2013 d3bj def2-tzvppd def2/jk def2-tzvppd/c grid4 nofinalgrid opt xyzfile numfreq
|  5> 
|  6> *xyz 1 1
|  7> Ag       0.000000    1.529877    0.000000 
|  8> Ag       1.324912   -0.764938    0.000000 
|  9> Ag      -1.324912   -0.764938    0.000000 
| 10> *
| 11> 
| 12> %maxcore 5000
| 13> 
| 14> %pal
| 15> nprocs = 24
| 16> end
| 17> 
| 18> 
| 19>                          ****END OF INPUT****
================================================================================

                       *****************************
                       * Geometry Optimization Run *
                       *****************************

Geometry optimization settings:
Update method            Update   .... BFGS
Choice of coordinates    CoordSys .... Z-matrix Internals
Initial Hessian          InHess   .... Almoef's Model

Convergence Tolerances:
Energy Change            TolE     ....  5.0000e-06 Eh
Max. Gradient            TolMAXG  ....  3.0000e-04 Eh/bohr
RMS Gradient             TolRMSG  ....  1.0000e-04 Eh/bohr
Max. Displacement        TolMAXD  ....  4.0000e-03 bohr
RMS Displacement         TolRMSD  ....  2.0000e-03 bohr
Strict Convergence                ....  False
------------------------------------------------------------------------------
                        ORCA OPTIMIZATION COORDINATE SETUP
------------------------------------------------------------------------------

The optimization will be done in new redundant internal coordinates
Making redundant internal coordinates   ...  (new redundants) done
Evaluating the initial hessian          ...  (Almloef) done
Evaluating the coordinates              ...  done
Calculating the B-matrix                .... done
Calculating the G-matrix                .... done
Diagonalizing the G-matrix              .... done
The first mode is                       ....    3
The number of degrees of freedom        ....    3

    -----------------------------------------------------------------
                    Redundant Internal Coordinates


    -----------------------------------------------------------------
         Definition                    Initial Value    Approx d2E/dq
    -----------------------------------------------------------------
      1. B(Ag  1,Ag  0)                  2.6498         0.625200   
      2. B(Ag  2,Ag  1)                  2.6498         0.625201   
      3. B(Ag  2,Ag  0)                  2.6498         0.625200   
      4. A(Ag  1,Ag  0,Ag  2)           60.0000         0.661321   
      5. A(Ag  0,Ag  1,Ag  2)           60.0000         0.661321   
      6. A(Ag  0,Ag  2,Ag  1)           60.0000         0.661321   
    -----------------------------------------------------------------

Number of atoms                         .... 3
Number of degrees of freedom            .... 6

         *************************************************************
         *                GEOMETRY OPTIMIZATION CYCLE   1            *
         *************************************************************
---------------------------------
CARTESIAN COORDINATES (ANGSTROEM)
---------------------------------
  Ag     0.000000    1.529877    0.000000
  Ag     1.324912   -0.764938    0.000000
  Ag    -1.324912   -0.764938    0.000000

----------------------------
CARTESIAN COORDINATES (A.U.)
----------------------------
  NO LB      ZA    FRAG     MASS         X           Y           Z
   0 Ag   19.0000*   0   107.870    0.000000    2.891049    0.000000
   1 Ag   19.0000*   0   107.870    2.503721   -1.445523    0.000000
   2 Ag   19.0000*   0   107.870   -2.503721   -1.445523    0.000000
* core charge reduced due to ECP

--------------------------------
INTERNAL COORDINATES (ANGSTROEM)
--------------------------------
 Ag     0   0   0     0.000000000000     0.00000000     0.00000000
 Ag     1   0   0     2.649824086986     0.00000000     0.00000000
 Ag     2   1   0     2.649824000000    60.00000109     0.00000000

---------------------------
INTERNAL COORDINATES (A.U.)
---------------------------
 Ag     0   0   0     0.000000000000     0.00000000     0.00000000
 Ag     1   0   0     5.007441827471     0.00000000     0.00000000
 Ag     2   1   0     5.007441663092    60.00000109     0.00000000

---------------------
BASIS SET INFORMATION
---------------------
There are 1 groups of distinct atoms

 Group   1 Type Ag  : 7s7p6d2f1g contracted to 6s4p3d2f1g pattern {211111/4111/411/11/1}

Atom   0Ag   basis set group =>   1
Atom   1Ag   basis set group =>   1
Atom   2Ag   basis set group =>   1
---------------------------------
AUXILIARY/C BASIS SET INFORMATION
---------------------------------
There are 1 groups of distinct atoms

 Group   1 Type Ag  : 8s7p6d5f4g3h1i contracted to 8s7p6d5f4g3h1i pattern {11111111/1111111/111111/11111/1111/111/1}

Atom   0Ag   basis set group =>   1
Atom   1Ag   basis set group =>   1
Atom   2Ag   basis set group =>   1
----------------------------------
AUXILIARY/JK BASIS SET INFORMATION
----------------------------------
There are 1 groups of distinct atoms

 Group   1 Type Ag  : 13s12p10d9f6g3h2i contracted to 11s10p9d8f6g3h2i pattern {31111111111/3111111111/211111111/21111111/111111/111/11}

Atom   0Ag   basis set group =>   1
Atom   1Ag   basis set group =>   1
Atom   2Ag   basis set group =>   1
-------------------------
ECP PARAMETER INFORMATION
-------------------------

 Group 1, Type Ag ECP Def2-ECP (replacing 28 core electrons, lmax=3)

Atom   0Ag   ECP group =>   1
Atom   1Ag   ECP group =>   1
Atom   2Ag   ECP group =>   1



           ************************************************************
           *        Program running with 24 parallel MPI-processes    *
           *              working on a common directory               *
           ************************************************************
------------------------------------------------------------------------------
                           ORCA GTO INTEGRAL CALCULATION
                           -- RI-GTO INTEGRALS CHOSEN --
------------------------------------------------------------------------------

                         BASIS SET STATISTICS AND STARTUP INFO

Gaussian basis set:
 # of primitive gaussian shells          ...   69
 # of primitive gaussian functions       ...  243
 # of contracted shells                  ...   48
 # of contracted basis functions         ...  168
 Highest angular momentum                ...    4
 Maximum contraction depth               ...    4
Auxiliary gaussian basis set:
 # of primitive gaussian shells          ...  165
 # of primitive gaussian functions       ...  825
 # of contracted shells                  ...  147
 # of contracted aux-basis functions     ...  765
 Highest angular momentum                ...    6
 Maximum contraction depth               ...    3
Ratio of auxiliary to basis functions    ...  4.55
Integral package used                  ... LIBINT
 One Electron integrals                  
   ECP integrals                         ... done
 Ordering auxiliary basis shells         ... done
 Integral threshhold             Thresh  ...  2.500e-11
 Primitive cut-off               TCut    ...  2.500e-12
 Pre-screening matrix                    ... done
 Shell pair data                         ... 
 Ordering of the shell pairs             ... done (   0.000 sec) 1134 of 1176 pairs
 Determination of significant pairs      ... done (   0.000 sec)
 Creation of shell pair data             ... done (   0.000 sec)
 Storage of shell pair data              ... done (   0.006 sec)
 Shell pair data done in (   0.006 sec)
 Computing two index integrals           ... done
 Cholesky decomposition of the V-matrix  ... done


Timings:
 Total evaluation time                   ...   0.653 sec (  0.011 min)
 One electron matrix time                ...   0.316 sec (  0.005 min) = 48.4%
 Schwartz matrix evaluation time         ...   0.138 sec (  0.002 min) = 21.2%
 Two index repulsion integral time       ...   0.145 sec (  0.002 min) = 22.2%
 Cholesky decomposition of V             ...   0.009 sec (  0.000 min) =  1.4%
 Three index repulsion integral time     ...   0.000 sec (  0.000 min) =  0.0%



           ************************************************************
           *        Program running with 24 parallel MPI-processes    *
           *              working on a common directory               *
           ************************************************************
-------------------------------------------------------------------------------
                                 ORCA SCF
-------------------------------------------------------------------------------

------------
SCF SETTINGS
------------
Hamiltonian:
 Density Functional     Method          .... DFT(GTOs)
 Exchange Functional    Exchange        .... B88
   X-Alpha parameter    XAlpha          ....  0.666667
   Becke's b parameter  XBeta           ....  0.004200
 Correlation Functional Correlation     .... LYP
 LDA part of GGA corr.  LDAOpt          .... VWN-5
 Gradients option       PostSCFGGA      .... off
 Hybrid DFT is turned on
   Fraction HF Exchange ScalHFX         ....  0.710000
   Scaling of DF-GGA-X  ScalDFX         ....  0.290000
   Scaling of DF-GGA-C  ScalDFC         ....  0.540000
   Scaling of DF-LDA-C  ScalLDAC        ....  0.540000
   Perturbative correction              ....  1.000000
   Density functional embedding theory  .... OFF
 RI-approximation to the Coulomb term is turned on
   Number of auxiliary basis functions  .... 765
   RI-JK (J+K treated both via RI)      .... on


General Settings:
 Integral files         IntName         .... Ag03C1_D3H
 Hartree-Fock type      HFTyp           .... RHF
 Total Charge           Charge          ....    1
 Multiplicity           Mult            ....    1
 Number of Electrons    NEL             ....   56
 Basis Dimension        Dim             ....  168
 Nuclear Repulsion      ENuc            ....    216.2781015067 Eh

Convergence Acceleration:
 DIIS                   CNVDIIS         .... on
   Start iteration      DIISMaxIt       ....    12
   Startup error        DIISStart       ....  0.200000
   # of expansion vecs  DIISMaxEq       ....     5
   Bias factor          DIISBfac        ....   1.050
   Max. coefficient     DIISMaxC        ....  10.000
 Newton-Raphson         CNVNR           .... off
 SOSCF                  CNVSOSCF        .... off
 Level Shifting         CNVShift        .... on
   Level shift para.    LevelShift      ....    0.2500
   Turn off err/grad.   ShiftErr        ....    0.0010
 Zerner damping         CNVZerner       .... off
 Static damping         CNVDamp         .... on
   Fraction old density DampFac         ....    0.7000
   Max. Damping (<1)    DampMax         ....    0.9800
   Min. Damping (>=0)   DampMin         ....    0.0000
   Turn off err/grad.   DampErr         ....    0.1000
 Fernandez-Rico         CNVRico         .... off

SCF Procedure:
 Maximum # iterations   MaxIter         ....   125
 SCF integral mode      SCFMode         .... Direct
   Integral package                     .... LIBINT
 Reset frequency        DirectResetFreq ....    20
 Integral Threshold     Thresh          ....  2.500e-11 Eh
 Primitive CutOff       TCut            ....  2.500e-12 Eh

Convergence Tolerance:
 Convergence Check Mode ConvCheckMode   .... Total+1el-Energy
 Convergence forced     ConvForced      .... 0
 Energy Change          TolE            ....  1.000e-08 Eh
 1-El. energy change                    ....  1.000e-05 Eh
 DIIS Error             TolErr          ....  5.000e-07


Diagonalization of the overlap matrix:
Smallest eigenvalue                        ... 2.894e-03
Time for diagonalization                   ...    0.006 sec
Threshold for overlap eigenvalues          ... 1.000e-08
Number of eigenvalues below threshold      ... 0
Time for construction of square roots      ...    0.003 sec
Total time needed                          ...    0.009 sec

-------------------
DFT GRID GENERATION
-------------------

General Integration Accuracy     IntAcc      ...  4.670
Radial Grid Type                 RadialGrid  ... Gauss-Chebyshev
Angular Grid (max. acc.)         AngularGrid ... Lebedev-302
Angular grid pruning method      GridPruning ... 3 (G Style)
Weight generation scheme         WeightScheme... Becke
Basis function cutoff            BFCut       ...    1.0000e-11
Integration weight cutoff        WCut        ...    1.0000e-14
Grids for H and He will be reduced by one unit

# of grid points (after initial pruning)     ...  31974 (   0.0 sec)
# of grid points (after weights+screening)   ...  31838 (   0.0 sec)
nearest neighbour list constructed           ...    0.0 sec
Grid point re-assignment to atoms done       ...    0.0 sec
Grid point division into batches done        ...    0.3 sec
Reduced shell lists constructed in    0.3 sec

Total number of grid points                  ...    31838
Total number of batches                      ...      500
Average number of points per batch           ...       63
Average number of grid points per atom       ...    10613
Average number of shells per batch           ...     5.18 (10.80%)
Average number of basis functions per batch  ...    11.36 ( 6.76%)
Average number of large shells per batch     ...     3.32 (64.04%)
Average number of large basis fcns per batch ...     6.68 (58.80%)
Average number of aux-shells per batch       ...     5.18 ( 3.53%)
Average number of aux functions per batch    ...    11.36 ( 1.49%)
Maximum spatial batch extension              ...  27.01, 22.64, 31.14 au
Average spatial batch extension              ...   0.75,  0.63,  0.73 au

Time for grid setup =    0.342 sec

------------------------------
INITIAL GUESS: MODEL POTENTIAL
------------------------------
Loading Hartree-Fock densities                     ... done
  calling /sw/apps/orca/orca_4_2_0_linux_x86-64_openmpi314/orca Ag03C1_D3H_atom47.inp > Ag03C1_D3H_atom47.out in order to generate an atomic fitting density for atom 0 (Ag with ECP) on-the-fly... 
    atom 0 (Ag), assumed electronic state with S=2: 1s2 2s2 2p6 3s2 3p6 4s2 3d10 4p6 5s2 4d9           ... done
Calculating cut-offs                               ... done
Setting up the integral package                    ... done
Initializing the effective Hamiltonian             ... done
Starting the Coulomb interaction                   ... done (   0.0 sec)
Reading the grid                                   ... done
Mapping shells                                     ... done
Starting the XC term evaluation                    ... done (   0.0 sec)
  promolecular density results
     # of electrons  =    141.001729661
     EX              =   -432.257517252
     EC              =     -0.967266522
     EX+EC           =   -433.224783774
Transforming the Hamiltonian                       ... done (   0.0 sec)
Diagonalizing the Hamiltonian                      ... done (   0.0 sec)
Back transforming the eigenvectors                 ... done (   0.0 sec)
Now organizing SCF variables                       ... done
                      ------------------
                      INITIAL GUESS DONE (   1.6 sec)
                      ------------------
--------------
SCF ITERATIONS
--------------
ITER       Energy         Delta-E        Max-DP      RMS-DP      [F,P]     Damp
  0   -439.2869769549   0.000000000000 0.10132754  0.00182684  0.4880790 0.7000
  1   -438.9988464592   0.288130495658 0.07721961  0.00144507  0.3472025 0.7000
  2   -439.1000298321  -0.101183372901 0.04296962  0.00079100  0.2299428 0.7000
                               ***Turning on DIIS***
  3   -439.2898836257  -0.189853793637 0.02221509  0.00042573  0.1533583 0.7000
  4   -439.4185952621  -0.128711636346 0.01192963  0.00034042  0.1054809 0.7000
  5   -439.4944388865  -0.075843624431 0.03967283  0.00102995  0.0759656 0.0000
  6   -439.4446272201   0.049811666394 0.00639418  0.00021532  0.0273426 0.0000
  7   -439.4472972375  -0.002670017395 0.00311364  0.00011401  0.0131322 0.0000
  8   -439.4479967921  -0.000699554541 0.00192802  0.00007747  0.0057311 0.0000
  9   -439.4481537545  -0.000156962423 0.00105718  0.00003185  0.0012845 0.0000
 10   -439.4481634362  -0.000009681681 0.00104126  0.00002512  0.0003809 0.0000
 11   -439.4481649618  -0.000001525596 0.00022025  0.00000459  0.0000344 0.0000
 12   -439.4481650251  -0.000000063350 0.00005288  0.00000127  0.0000271 0.0000
 13   -439.4481650352  -0.000000010077 0.00003115  0.00000059  0.0000078 0.0000
 14   -439.4481650368  -0.000000001655 0.00000853  0.00000017  0.0000026 0.0000
                            ***DIIS convergence achieved***

               *****************************************************
               *                     SUCCESS                       *
               *           SCF CONVERGED AFTER  15 CYCLES          *
               *****************************************************


----------------
TOTAL SCF ENERGY
----------------

Total Energy       :         -439.44816504 Eh          -11957.99250 eV

Components:
Nuclear Repulsion  :          216.27810151 Eh            5885.22634 eV
Electronic Energy  :         -655.72626654 Eh          -17843.21884 eV
One Electron Energy:        -1205.92750616 Eh          -32814.95572 eV
Two Electron Energy:          550.20123961 Eh           14971.73688 eV

Virial components:
Potential Energy   :         -609.02750911 Eh          -16572.48105 eV
Kinetic Energy     :          169.57934407 Eh            4614.48855 eV
Virial Ratio       :            3.59140149


DFT components:
N(Alpha)           :       27.999983780312 electrons
N(Beta)            :       27.999983780312 electrons
N(Total)           :       55.999967560624 electrons
E(X)               :      -11.656270759505 Eh       
E(C)               :       -1.156647382769 Eh       
E(XC)              :      -12.812918142274 Eh       
DFET-embed. en.    :        0.000000000000 Eh       

---------------
SCF CONVERGENCE
---------------

  Last Energy change         ...   -1.2386e-10  Tolerance :   1.0000e-08
  Last MAX-Density change    ...    1.3864e-06  Tolerance :   1.0000e-07
  Last RMS-Density change    ...    2.5399e-08  Tolerance :   5.0000e-09
  Last DIIS Error            ...    5.1478e-07  Tolerance :   5.0000e-07

             **** THE GBW FILE WAS UPDATED (Ag03C1_D3H.gbw) ****
             **** DENSITY FILE WAS UPDATED (Ag03C1_D3H.scfp) ****
             **** ENERGY FILE WAS UPDATED (Ag03C1_D3H.en.tmp) ****
             **** THE GBW FILE WAS UPDATED (Ag03C1_D3H.gbw) ****
             **** DENSITY FILE WAS UPDATED (Ag03C1_D3H.scfp) ****
----------------
ORBITAL ENERGIES
----------------

  NO   OCC          E(Eh)            E(eV) 
   0   2.0000      -4.308605      -117.2431 
   1   2.0000      -4.307954      -117.2254 
   2   2.0000      -4.307953      -117.2254 
   3   2.0000      -2.817216       -76.6603 
   4   2.0000      -2.814051       -76.5742 
   5   2.0000      -2.814049       -76.5742 
   6   2.0000      -2.810535       -76.4785 
   7   2.0000      -2.810334       -76.4731 
   8   2.0000      -2.809875       -76.4606 
   9   2.0000      -2.809874       -76.4606 
  10   2.0000      -2.809785       -76.4581 
  11   2.0000      -2.809783       -76.4581 
  12   2.0000      -0.685207       -18.6454 
  13   2.0000      -0.668725       -18.1969 
  14   2.0000      -0.668723       -18.1969 
  15   2.0000      -0.663837       -18.0639 
  16   2.0000      -0.649187       -17.6653 
  17   2.0000      -0.646093       -17.5811 
  18   2.0000      -0.646089       -17.5810 
  19   2.0000      -0.625456       -17.0195 
  20   2.0000      -0.625455       -17.0195 
  21   2.0000      -0.622465       -16.9381 
  22   2.0000      -0.617858       -16.8128 
  23   2.0000      -0.617848       -16.8125 
  24   2.0000      -0.615124       -16.7384 
  25   2.0000      -0.615117       -16.7382 
  26   2.0000      -0.593794       -16.1580 
  27   2.0000      -0.448581       -12.2065 
  28   0.0000      -0.194749        -5.2994 
  29   0.0000      -0.194748        -5.2994 
  30   0.0000      -0.142319        -3.8727 
  31   0.0000      -0.109612        -2.9827 
  32   0.0000      -0.092809        -2.5255 
  33   0.0000      -0.092809        -2.5255 
  34   0.0000      -0.058560        -1.5935 
  35   0.0000      -0.058560        -1.5935 
  36   0.0000      -0.005259        -0.1431 
  37   0.0000      -0.004545        -0.1237 
  38   0.0000      -0.004544        -0.1237 
  39   0.0000       0.018187         0.4949 
  40   0.0000       0.075205         2.0464 
  41   0.0000       0.075205         2.0464 
  42   0.0000       0.081517         2.2182 
  43   0.0000       0.082553         2.2464 
  44   0.0000       0.105690         2.8760 
  45   0.0000       0.105690         2.8760 
  46   0.0000       0.154466         4.2032 
  47   0.0000       0.154467         4.2033 
  48   0.0000       0.228646         6.2218 
  49   0.0000       0.282083         7.6759 
  50   0.0000       0.295194         8.0326 
  51   0.0000       0.295196         8.0327 
  52   0.0000       0.316408         8.6099 
  53   0.0000       0.316410         8.6100 
  54   0.0000       0.331033         9.0079 
  55   0.0000       0.419021        11.4021 
  56   0.0000       0.419022        11.4022 
  57   0.0000       0.457713        12.4550 
  58   0.0000       0.486885        13.2488 
  59   0.0000       0.516205        14.0467 
  60   0.0000       0.516207        14.0467 
  61   0.0000       0.529356        14.4045 
  62   0.0000       0.529358        14.4046 
  63   0.0000       0.616131        16.7658 
  64   0.0000       0.616134        16.7659 
  65   0.0000       0.657534        17.8924 
  66   0.0000       1.472362        40.0650 
  67   0.0000       1.472364        40.0651 
  68   0.0000       1.508424        41.0463 
  69   0.0000       1.519090        41.3365 
  70   0.0000       1.551269        42.2122 
  71   0.0000       1.553140        42.2631 
  72   0.0000       1.553147        42.2633 
  73   0.0000       1.581192        43.0264 
  74   0.0000       1.581196        43.0265 
  75   0.0000       1.583651        43.0933 
  76   0.0000       1.599479        43.5240 
  77   0.0000       1.599486        43.5242 
  78   0.0000       1.600962        43.5644 
  79   0.0000       1.612613        43.8814 
  80   0.0000       1.612615        43.8815 
  81   0.0000       1.630876        44.3784 
  82   0.0000       1.630877        44.3784 
  83   0.0000       1.636751        44.5383 
  84   0.0000       1.648280        44.8520 
  85   0.0000       1.648282        44.8520 
  86   0.0000       1.656266        45.0693 
  87   0.0000       1.699677        46.2506 
  88   0.0000       1.716424        46.7063 
  89   0.0000       1.716433        46.7065 
  90   0.0000       1.742023        47.4028 
  91   0.0000       1.742025        47.4029 
  92   0.0000       1.745007        47.4840 
  93   0.0000       1.777019        48.3551 
  94   0.0000       1.777022        48.3552 
  95   0.0000       1.925280        52.3895 
  96   0.0000       2.004877        54.5555 
  97   0.0000       2.084667        56.7267 
  98   0.0000       2.094717        57.0002 
  99   0.0000       2.094733        57.0006 
 100   0.0000       2.126392        57.8621 
 101   0.0000       2.126407        57.8625 
 102   0.0000       2.130145        57.9642 
 103   0.0000       2.144101        58.3440 
 104   0.0000       2.153205        58.5917 
 105   0.0000       2.153232        58.5924 
 106   0.0000       2.173497        59.1439 
 107   0.0000       2.173530        59.1448 
 108   0.0000       2.278904        62.0121 
 109   0.0000       2.278925        62.0127 
 110   0.0000       2.310398        62.8691 
 111   0.0000       2.421031        65.8796 
 112   0.0000       2.606254        70.9198 
 113   0.0000       2.606255        70.9198 
 114   0.0000       4.962334       135.0320 
 115   0.0000       4.978449       135.4705 
 116   0.0000       4.978469       135.4710 
 117   0.0000       4.989140       135.7614 
 118   0.0000       4.991661       135.8300 
 119   0.0000       4.991689       135.8308 
 120   0.0000       4.998868       136.0261 
 121   0.0000       5.014324       136.4467 
 122   0.0000       5.018335       136.5558 
 123   0.0000       5.018350       136.5563 
 124   0.0000       5.026794       136.7860 
 125   0.0000       5.026822       136.7868 
 126   0.0000       5.031873       136.9242 
 127   0.0000       5.074709       138.0899 
 128   0.0000       5.096450       138.6815 
 129   0.0000       5.096472       138.6821 
 130   0.0000       5.098158       138.7279 
 131   0.0000       5.098221       138.7297 
 132   0.0000       5.252061       142.9158 
 133   0.0000       5.252064       142.9159 
 134   0.0000       5.270169       143.4086 
 135   0.0000       5.709970       155.3762 
 136   0.0000       5.711193       155.4095 
 137   0.0000       5.711217       155.4101 
 138   0.0000       5.711335       155.4133 
 139   0.0000       5.711381       155.4146 
 140   0.0000       5.711643       155.4217 
 141   0.0000       5.711840       155.4271 
 142   0.0000       5.711975       155.4307 
 143   0.0000       5.712086       155.4338 
 144   0.0000       5.712197       155.4368 
 145   0.0000       5.712317       155.4400 
 146   0.0000       5.712372       155.4415 
 147   0.0000       5.712962       155.4576 
 148   0.0000       5.712982       155.4581 
 149   0.0000       5.713574       155.4743 
 150   0.0000       5.713769       155.4796 
 151   0.0000       5.714056       155.4874 
 152   0.0000       5.714212       155.4916 
 153   0.0000       5.714242       155.4924 
 154   0.0000       5.714360       155.4956 
 155   0.0000       5.714431       155.4976 
 156   0.0000       5.714581       155.5017 
 157   0.0000       5.715555       155.5282 
 158   0.0000       5.715643       155.5306 
 159   0.0000       5.717776       155.5886 
 160   0.0000       5.725933       155.8106 
 161   0.0000       5.725970       155.8116 
 162   0.0000      33.485087       911.1755 
 163   0.0000      33.820348       920.2984 
 164   0.0000      33.820348       920.2984 
 165   0.0000     109.741330      2986.2134 
 166   0.0000     109.847057      2989.0904 
 167   0.0000     109.847059      2989.0904 

                    ********************************
                    * MULLIKEN POPULATION ANALYSIS *
                    ********************************

-----------------------
MULLIKEN ATOMIC CHARGES
-----------------------
   0 Ag:    0.333335
   1 Ag:    0.333334
   2 Ag:    0.333332
Sum of atomic charges:    1.0000000

--------------------------------
MULLIKEN REDUCED ORBITAL CHARGES
--------------------------------
  0 Ags       :     2.605858  s :     2.605858
      pz      :     2.005617  p :     6.103926
      px      :     2.006466
      py      :     2.091843
      dz2     :     1.995173  d :     9.955332
      dxz     :     1.998173
      dyz     :     1.995828
      dx2y2   :     1.991438
      dxy     :     1.974719
      f0      :     0.000126  f :     0.001531
      f+1     :     0.000090
      f-1     :     0.000278
      f+2     :     0.000083
      f-2     :     0.000167
      f+3     :     0.000482
      f-3     :     0.000303
      g0      :     0.000002  g :     0.000019
      g+1     :     0.000001
      g-1     :     0.000002
      g+2     :     0.000001
      g-2     :     0.000003
      g+3     :     0.000002
      g-3     :     0.000000
      g+4     :     0.000004
      g-4     :     0.000005
  1 Ags       :     2.605859  s :     2.605859
      pz      :     2.005617  p :     6.103928
      px      :     2.070500
      py      :     2.027811
      dz2     :     1.995173  d :     9.955330
      dxz     :     1.996415
      dyz     :     1.997586
      dx2y2   :     1.978898
      dxy     :     1.987257
      f0      :     0.000126  f :     0.001531
      f+1     :     0.000231
      f-1     :     0.000137
      f+2     :     0.000146
      f-2     :     0.000104
      f+3     :     0.000482
      f-3     :     0.000304
      g0      :     0.000002  g :     0.000019
      g+1     :     0.000002
      g-1     :     0.000001
      g+2     :     0.000002
      g-2     :     0.000002
      g+3     :     0.000002
      g-3     :     0.000000
      g+4     :     0.000005
      g-4     :     0.000004
  2 Ags       :     2.605860  s :     2.605860
      pz      :     2.005617  p :     6.103928
      px      :     2.070501
      py      :     2.027811
      dz2     :     1.995173  d :     9.955330
      dxz     :     1.996415
      dyz     :     1.997586
      dx2y2   :     1.978898
      dxy     :     1.987257
      f0      :     0.000126  f :     0.001531
      f+1     :     0.000231
      f-1     :     0.000137
      f+2     :     0.000146
      f-2     :     0.000104
      f+3     :     0.000482
      f-3     :     0.000304
      g0      :     0.000002  g :     0.000019
      g+1     :     0.000002
      g-1     :     0.000001
      g+2     :     0.000002
      g-2     :     0.000002
      g+3     :     0.000002
      g-3     :     0.000000
      g+4     :     0.000005
      g-4     :     0.000004


                     *******************************
                     * LOEWDIN POPULATION ANALYSIS *
                     *******************************

----------------------
LOEWDIN ATOMIC CHARGES
----------------------
   0 Ag:    0.333332
   1 Ag:    0.333334
   2 Ag:    0.333334

-------------------------------
LOEWDIN REDUCED ORBITAL CHARGES
-------------------------------
  0 Ags       :     2.516603  s :     2.516603
      pz      :     2.008332  p :     6.178269
      px      :     2.016176
      py      :     2.153761
      dz2     :     2.001267  d :     9.969587
      dxz     :     1.997499
      dyz     :     1.993650
      dx2y2   :     1.993483
      dxy     :     1.983688
      f0      :     0.000171  f :     0.002184
      f+1     :     0.000139
      f-1     :     0.000348
      f+2     :     0.000104
      f-2     :     0.000238
      f+3     :     0.000785
      f-3     :     0.000399
      g0      :     0.000002  g :     0.000025
      g+1     :     0.000001
      g-1     :     0.000002
      g+2     :     0.000001
      g-2     :     0.000003
      g+3     :     0.000002
      g-3     :     0.000000
      g+4     :     0.000005
      g-4     :     0.000007
  1 Ags       :     2.516600  s :     2.516600
      pz      :     2.008331  p :     6.178271
      px      :     2.119366
      py      :     2.050573
      dz2     :     2.001267  d :     9.969587
      dxz     :     1.994613
      dyz     :     1.996537
      dx2y2   :     1.986137
      dxy     :     1.991034
      f0      :     0.000171  f :     0.002184
      f+1     :     0.000296
      f-1     :     0.000191
      f+2     :     0.000205
      f-2     :     0.000138
      f+3     :     0.000785
      f-3     :     0.000399
      g0      :     0.000002  g :     0.000025
      g+1     :     0.000002
      g-1     :     0.000001
      g+2     :     0.000003
      g-2     :     0.000002
      g+3     :     0.000002
      g-3     :     0.000000
      g+4     :     0.000006
      g-4     :     0.000005
  2 Ags       :     2.516600  s :     2.516600
      pz      :     2.008331  p :     6.178271
      px      :     2.119366
      py      :     2.050573
      dz2     :     2.001267  d :     9.969587
      dxz     :     1.994613
      dyz     :     1.996537
      dx2y2   :     1.986137
      dxy     :     1.991034
      f0      :     0.000171  f :     0.002184
      f+1     :     0.000296
      f-1     :     0.000191
      f+2     :     0.000205
      f-2     :     0.000138
      f+3     :     0.000785
      f-3     :     0.000399
      g0      :     0.000002  g :     0.000025
      g+1     :     0.000002
      g-1     :     0.000001
      g+2     :     0.000003
      g-2     :     0.000002
      g+3     :     0.000002
      g-3     :     0.000000
      g+4     :     0.000006
      g-4     :     0.000005


                      *****************************
                      * MAYER POPULATION ANALYSIS *
                      *****************************

  NA   - Mulliken gross atomic population
  ZA   - Total nuclear charge
  QA   - Mulliken gross atomic charge
  VA   - Mayer's total valence
  BVA  - Mayer's bonded valence
  FA   - Mayer's free valence

  ATOM       NA         ZA         QA         VA         BVA        FA
  0 Ag    18.6667    19.0000     0.3333     1.0074     1.0074     0.0000
  1 Ag    18.6667    19.0000     0.3333     1.0073     1.0073     0.0000
  2 Ag    18.6667    19.0000     0.3333     1.0073     1.0073     0.0000

  Mayer bond orders larger than 0.100000
B(  0-Ag,  1-Ag) :   0.5037 B(  0-Ag,  2-Ag) :   0.5037 B(  1-Ag,  2-Ag) :   0.5037 


-------
TIMINGS
-------

Total SCF time: 0 days 0 hours 0 min 5 sec 

Total time                  ....       5.688 sec
Sum of individual times     ....       5.562 sec  ( 97.8%)

Fock matrix formation       ....       3.817 sec  ( 67.1%)
  XC integration            ....       0.521 sec  ( 13.7% of F)
    Basis function eval.    ....       0.061 sec  ( 11.7% of XC)
    Density eval.           ....       0.040 sec  (  7.6% of XC)
    XC-Functional eval.     ....       0.015 sec  (  2.9% of XC)
    XC-Potential eval.      ....       0.068 sec  ( 13.0% of XC)
Diagonalization             ....       0.056 sec  (  1.0%)
Density matrix formation    ....       0.009 sec  (  0.2%)
Population analysis         ....       0.005 sec  (  0.1%)
Initial guess               ....       1.307 sec  ( 23.0%)
Orbital Transformation      ....       0.000 sec  (  0.0%)
Orbital Orthonormalization  ....       0.000 sec  (  0.0%)
DIIS solution               ....       0.026 sec  (  0.5%)
Grid generation             ....       0.342 sec  (  6.0%)


           ************************************************************
           *        Program running with 24 parallel MPI-processes    *
           *              working on a common directory               *
           ************************************************************

------------------------------------------------------------------------------
                                ORCA  MP2 
------------------------------------------------------------------------------

Freezing NCore=0 chemical core electrons

----------------------
RI-MP2 ENERGY+GRADIENT
----------------------
Dimension of the basis                    ...  168
Memory devoted to MP2                     ... 5000 MB   
Data format for buffers                   ... DOUBLE
Compression type for matrix containers    ... UNCOMPRESSED
Scaling for aa/bb pairs                   ...   4.000e-01
Scaling for ab pairs                      ...   4.700e-01
Overall scaling of the MP2 energy         ...   1.000e+00
Calculating two index integrals           ... done (    0.015 sec)
Cholesky decomposition of the V-matrix    ... done
Cholesky decomposition of V**-1           ... done (    0.014 sec)

-----------------
RI-TRANSFORMATION (AUX index driven)
-----------------

Dimension of the orbital-basis         ... 168
Dimension of the aux-basis             ... 528
Transformation of internal MOs         ...    0-  27
Transformation of internal/external MOs...    0-  27 to   28- 167
Number Format for Storage              ... Double (8 Byte)
Integral mode                          ... Direct

First Phase: integral generation and transformation of MO indices
  Aux angular momentum 0               ... done (    0.001 sec)
  Aux angular momentum 1               ... done (    0.001 sec)
  Aux angular momentum 2               ... done (    0.002 sec)
  Aux angular momentum 3               ... done (    0.003 sec)
  Aux angular momentum 4               ... done (    0.005 sec)
  Aux angular momentum 5               ... done (    0.007 sec)
  Aux angular momentum 6               ... done (    0.011 sec)
Closing buffer VIJ ( 0.00 GB; CompressionRatio= 1.00)
Closing buffer VIA ( 0.02 GB; CompressionRatio= 1.00)
  Phase 1 completed in     0.133 sec
Second Phase: sorting and transformation of aux index

IJ-Transformation
Memory available                       ... 4992 MB 
Max. # MO pairs treated in a batch     ... 2    
# of internal orbitals                 ... 28
# batches for internal orbitals        ... 1
Closing buffer IJV ( 0.00 GB; CompressionRatio= 1.00)
(ij|v) transformation done in     0.003 sec

IA-Transformation
Memory available                       ... 4992 MB 
Max. # MO pairs treated in a batch     ... 2    
# of internal orbitals                 ... 28
# batches for internal orbitals        ... 1
Closing buffer IAV ( 0.00 GB; CompressionRatio= 1.00)
(ia|v) transformation done in     0.010 sec

  Phase 2 completed in     0.036 sec
RI-Integral transformation completed in     0.170 sec
Opening buffers                              ... done

Starting loop over batches of integrals:

Operator 0  - window                       ... (  0- 27)x( 28-167)
Operator 0  - Memory available             ...  5000 MB
Operator 0  - Memory needed per MO         ...   1.1 MB
Operator 0  - Number of orbitals per batch ... 2
Operator 0  - Number of batches            ... 1

OPERATOR  0   PASS   0:  MOs     0 ...    1 +    2 ...    3 +    4 ...    5 +    6 ...    7
                            +    8 ...    9 +   10 ...   11 +   12 ...   13 +   14 ...   15
                            +   16 ...   17 +   18 ...   19 +   20 ...   21 +   22 ...   23
                            +   24 ...   25 +   26 ...   27
  Reading integrals       ... ok
Closing buffer GIPV ( 0.00 GB; CompressionRatio= 1.00)
Time spent in pair loops =     0.380 sec

-----------------------------------------------
 RI-MP2 CORRELATION ENERGY:     -0.973975595 Eh
-----------------------------------------------


---------------------
MP2 DENSITY FORMATION
---------------------

Completing the external part of the density      ... done
Storing the unrelaxed density                    ... done

Calculating the xc-kernel                        ... done
Calculating G(D)                                 ... done
Completing the Lagrangian                        ... done
Solving the Z-vector equations                   ... 

------------------------------------------------------------------------------
                           ORCA CP-SCF CALCULATION
------------------------------------------------------------------------------

Input orbitals are from        ... Ag03C1_D3H.gbw
Input Perturbation             ... Ag03C1_D3H.pin.tmp
Wavefunction output            ... Ag03C1_D3H.pout.tmp
Perturbation mode              ... Real perturbation (singlet)
Solver                         ... POPLE
Max. number of iterations      ... 128
Convergence tolerance          ... 1.000e-08
Integral handling              ... Direct
Number of perturbations        ... 1
Number of operators            ... 1
Orbital ranges used for CP-SCF:
 Operator 0:  Orbitals   0... 27  to  28...167
DFT calculation                         ... on
Exchange functional (SCF)               ... B88
Exchange functional (CP-SCF)            ... B88
   X-Alpha parameter    XAlpha (SCF)    ...  0.666667
   X-Alpha parameter    XAlpha (CP-SCF) ...  0.666667
   Becke's b parameter  XBeta (SCF)     ...  0.004200
   Becke's b parameter  XBeta (CP-SCF)  ...  0.004200
Correlation functional (SCF)            ... LYP
Correlation functional (CP-SCF)         ... LYP
 LDA part of GGA corr.  LDAOpt (SCF)    ... VWN-5
 LDA part of GGA corr.  LDAOpt (CP-SCF) ... VWN-5
Hybrid DFT                              ... on
   Exchange mixing (SCF)                ...  0.710
   Exchange mixing (CP-SCF)             ...  0.710
   GGA exch. scaling(SCF)               ...  0.290
   GGA exch. scaling (CP-SCF)           ...  0.290
   GGA corr. scaling (SCF)              ...  0.540
   GGA corr. scaling (CP-SCF)           ...  0.540
Variables per vector in CP-SCF ... 3920
Number of vectors sought       ... 1
Recalculating density on grid  ... done
Calculating the xc-kernel      ... done
     CP-SCF ITERATION   0: 
     CP-SCF ITERATION   1:      0.000254394613
     CP-SCF ITERATION   2:      0.000027188083
     CP-SCF ITERATION   3:      0.000005730657
     CP-SCF ITERATION   4:      0.000000144180
     CP-SCF ITERATION   5:      0.000000009920
done
Finalizing the relaxed density                   ... done
Transforming P to the AO basis                   ... done
Storing the relaxed density                      ... done

------------------------------------
ENERGY WEIGHTED DENSITY FINALIZATION
------------------------------------

Gathering the parts of the W-matrix              ... done
Forming the Z-density                            ... done
Transforming Z to the AO basis                   ... done
Calculating G(Z)                                 ... done
Finalizing the W-matrix                          ... done
Transforming W to the AO basis and storing       ... done
Entering the RIJONX and RIJCOSX sections
Starting the three-index derivative integrals:
Operator 0  - Memory available             ...  5000 MB
Operator 0  - Memory needed per MO         ...   1.4 MB
Operator 0  - Number of orbitals per batch ... 2
Operator 0  - Number of batches            ... 1

OPERATOR  0   PASS   0:  MOs     0 ...    1 +    2 ...    3 +    4 ...    5 +    6 ...    7
                            +    8 ...    9 +   10 ...   11 +   12 ...   13 +   14 ...   15
                            +   16 ...   17 +   18 ...   19 +   20 ...   21 +   22 ...   23
                            +   24 ...   25 +   26 ...   27

----------------------------------
MP2 DERIVATIVE INTEGRAL GENERATION
----------------------------------


Input Correlated Electron Density   ... Ag03C1_D3H.pmp2re
Input Energy Weighted Density       ... Ag03C1_D3H.wmp2.tmp
Input SCF Electron Density          ... Ag03C1_D3H.scfp

One-Electron Terms    ...
  ECP gradient                                           ... One-Electron Terms done
Prescreening matrices              ... done
Exchange-correlation gradient    ... done
Dispersion correction            ... done

                *********************************************
                * UNRELAXED MP2 DENSITY POPULATION ANALYSIS *
                *********************************************

------------------------------------------------------------------------------
                           ORCA POPULATION ANALYSIS
------------------------------------------------------------------------------
Input electron density              ... Ag03C1_D3H.pmp2ur
BaseName (.gbw .S,...)              ... Ag03C1_D3H

                    ********************************
                    * MULLIKEN POPULATION ANALYSIS *
                    ********************************

-----------------------
MULLIKEN ATOMIC CHARGES
-----------------------
   0 Ag:    0.333335
   1 Ag:    0.333334
   2 Ag:    0.333332
Sum of atomic charges:    1.0000000

--------------------------------
MULLIKEN REDUCED ORBITAL CHARGES
--------------------------------
  0 Ags       :     2.599580  s :     2.599580
      pz      :     2.008973  p :     6.109902
      px      :     2.009995
      py      :     2.090934
      dz2     :     1.983443  d :     9.896723
      dxz     :     1.986643
      dyz     :     1.984636
      dx2y2   :     1.979732
      dxy     :     1.962270
      f0      :     0.007951  f :     0.056376
      f+1     :     0.007923
      f-1     :     0.008088
      f+2     :     0.007915
      f-2     :     0.008006
      f+3     :     0.008328
      f-3     :     0.008164
      g0      :     0.000452  g :     0.004084
      g+1     :     0.000449
      g-1     :     0.000454
      g+2     :     0.000452
      g-2     :     0.000454
      g+3     :     0.000454
      g-3     :     0.000452
      g+4     :     0.000458
      g-4     :     0.000459
  1 Ags       :     2.599581  s :     2.599581
      pz      :     2.008973  p :     6.109904
      px      :     2.070701
      py      :     2.030230
      dz2     :     1.983442  d :     9.896722
      dxz     :     1.985139
      dyz     :     1.986141
      dx2y2   :     1.966635
      dxy     :     1.975365
      f0      :     0.007951  f :     0.056376
      f+1     :     0.008047
      f-1     :     0.007965
      f+2     :     0.007983
      f-2     :     0.007938
      f+3     :     0.008328
      f-3     :     0.008164
      g0      :     0.000452  g :     0.004084
      g+1     :     0.000453
      g-1     :     0.000450
      g+2     :     0.000453
      g-2     :     0.000452
      g+3     :     0.000454
      g-3     :     0.000452
      g+4     :     0.000459
      g-4     :     0.000458
  2 Ags       :     2.599582  s :     2.599582
      pz      :     2.008973  p :     6.109904
      px      :     2.070701
      py      :     2.030230
      dz2     :     1.983442  d :     9.896722
      dxz     :     1.985139
      dyz     :     1.986141
      dx2y2   :     1.966635
      dxy     :     1.975365
      f0      :     0.007951  f :     0.056376
      f+1     :     0.008047
      f-1     :     0.007965
      f+2     :     0.007983
      f-2     :     0.007938
      f+3     :     0.008328
      f-3     :     0.008164
      g0      :     0.000452  g :     0.004084
      g+1     :     0.000453
      g-1     :     0.000450
      g+2     :     0.000453
      g-2     :     0.000452
      g+3     :     0.000454
      g-3     :     0.000452
      g+4     :     0.000459
      g-4     :     0.000458


                     *******************************
                     * LOEWDIN POPULATION ANALYSIS *
                     *******************************

----------------------
LOEWDIN ATOMIC CHARGES
----------------------
   0 Ag:    0.333332
   1 Ag:    0.333334
   2 Ag:    0.333334

-------------------------------
LOEWDIN REDUCED ORBITAL CHARGES
-------------------------------
  0 Ags       :     2.509024  s :     2.509024
      pz      :     2.011634  p :     6.183935
      px      :     2.020503
      py      :     2.151798
      dz2     :     1.989799  d :     9.912348
      dxz     :     1.985993
      dyz     :     1.982463
      dx2y2   :     1.982009
      dxy     :     1.972084
      f0      :     0.008003  f :     0.057269
      f+1     :     0.007990
      f-1     :     0.008208
      f+2     :     0.007939
      f-2     :     0.008090
      f+3     :     0.008765
      f-3     :     0.008274
      g0      :     0.000452  g :     0.004091
      g+1     :     0.000449
      g-1     :     0.000454
      g+2     :     0.000452
      g-2     :     0.000455
      g+3     :     0.000455
      g-3     :     0.000452
      g+4     :     0.000459
      g-4     :     0.000462
  1 Ags       :     2.509021  s :     2.509021
      pz      :     2.011634  p :     6.183936
      px      :     2.118975
      py      :     2.053327
      dz2     :     1.989799  d :     9.912349
      dxz     :     1.983346
      dyz     :     1.985110
      dx2y2   :     1.974566
      dxy     :     1.979527
      f0      :     0.008003  f :     0.057269
      f+1     :     0.008153
      f-1     :     0.008045
      f+2     :     0.008052
      f-2     :     0.007977
      f+3     :     0.008765
      f-3     :     0.008274
      g0      :     0.000452  g :     0.004091
      g+1     :     0.000453
      g-1     :     0.000451
      g+2     :     0.000454
      g-2     :     0.000453
      g+3     :     0.000455
      g-3     :     0.000452
      g+4     :     0.000461
      g-4     :     0.000460
  2 Ags       :     2.509021  s :     2.509021
      pz      :     2.011634  p :     6.183936
      px      :     2.118975
      py      :     2.053327
      dz2     :     1.989799  d :     9.912349
      dxz     :     1.983346
      dyz     :     1.985110
      dx2y2   :     1.974566
      dxy     :     1.979527
      f0      :     0.008003  f :     0.057269
      f+1     :     0.008153
      f-1     :     0.008045
      f+2     :     0.008052
      f-2     :     0.007977
      f+3     :     0.008765
      f-3     :     0.008274
      g0      :     0.000452  g :     0.004091
      g+1     :     0.000453
      g-1     :     0.000451
      g+2     :     0.000454
      g-2     :     0.000453
      g+3     :     0.000455
      g-3     :     0.000452
      g+4     :     0.000461
      g-4     :     0.000460


                      *****************************
                      * MAYER POPULATION ANALYSIS *
                      *****************************

  NA   - Mulliken gross atomic population
  ZA   - Total nuclear charge
  QA   - Mulliken gross atomic charge
  VA   - Mayer's total valence
  BVA  - Mayer's bonded valence
  FA   - Mayer's free valence

  ATOM       NA         ZA         QA         VA         BVA        FA
  0 Ag    18.6667    19.0000     0.3333     1.4928     0.9541     0.5387
  1 Ag    18.6667    19.0000     0.3333     1.4928     0.9541     0.5387
  2 Ag    18.6667    19.0000     0.3333     1.4928     0.9541     0.5387

  Mayer bond orders larger than 0.100000
B(  0-Ag,  1-Ag) :   0.4770 B(  0-Ag,  2-Ag) :   0.4770 B(  1-Ag,  2-Ag) :   0.4770 



                *******************************************
                * RELAXED MP2 DENSITY POPULATION ANALYSIS *
                *******************************************

------------------------------------------------------------------------------
                           ORCA POPULATION ANALYSIS
------------------------------------------------------------------------------
Input electron density              ... Ag03C1_D3H.pmp2re
BaseName (.gbw .S,...)              ... Ag03C1_D3H

                    ********************************
                    * MULLIKEN POPULATION ANALYSIS *
                    ********************************

-----------------------
MULLIKEN ATOMIC CHARGES
-----------------------
   0 Ag:    0.333332
   1 Ag:    0.333335
   2 Ag:    0.333333
Sum of atomic charges:    1.0000000

--------------------------------
MULLIKEN REDUCED ORBITAL CHARGES
--------------------------------
  0 Ags       :     2.624383  s :     2.624383
      pz      :     2.010919  p :     6.100302
      px      :     2.012249
      py      :     2.077134
      dz2     :     1.981463  d :     9.881441
      dxz     :     1.985965
      dyz     :     1.983346
      dx2y2   :     1.977128
      dxy     :     1.953540
      f0      :     0.007960  f :     0.056456
      f+1     :     0.007929
      f-1     :     0.008098
      f+2     :     0.007917
      f-2     :     0.008017
      f+3     :     0.008351
      f-3     :     0.008184
      g0      :     0.000452  g :     0.004086
      g+1     :     0.000449
      g-1     :     0.000454
      g+2     :     0.000452
      g-2     :     0.000454
      g+3     :     0.000454
      g-3     :     0.000452
      g+4     :     0.000458
      g-4     :     0.000460
  1 Ags       :     2.624381  s :     2.624381
      pz      :     2.010919  p :     6.100303
      px      :     2.060914
      py      :     2.028470
      dz2     :     1.981462  d :     9.881440
      dxz     :     1.984002
      dyz     :     1.985309
      dx2y2   :     1.959437
      dxy     :     1.971230
      f0      :     0.007959  f :     0.056456
      f+1     :     0.008055
      f-1     :     0.007972
      f+2     :     0.007992
      f-2     :     0.007942
      f+3     :     0.008351
      f-3     :     0.008184
      g0      :     0.000452  g :     0.004086
      g+1     :     0.000453
      g-1     :     0.000451
      g+2     :     0.000453
      g-2     :     0.000453
      g+3     :     0.000454
      g-3     :     0.000452
      g+4     :     0.000459
      g-4     :     0.000459
  2 Ags       :     2.624383  s :     2.624383
      pz      :     2.010919  p :     6.100304
      px      :     2.060914
      py      :     2.028470
      dz2     :     1.981462  d :     9.881440
      dxz     :     1.984002
      dyz     :     1.985309
      dx2y2   :     1.959437
      dxy     :     1.971230
      f0      :     0.007959  f :     0.056456
      f+1     :     0.008055
      f-1     :     0.007972
      f+2     :     0.007992
      f-2     :     0.007942
      f+3     :     0.008351
      f-3     :     0.008184
      g0      :     0.000452  g :     0.004086
      g+1     :     0.000453
      g-1     :     0.000451
      g+2     :     0.000453
      g-2     :     0.000453
      g+3     :     0.000454
      g-3     :     0.000452
      g+4     :     0.000459
      g-4     :     0.000459


                     *******************************
                     * LOEWDIN POPULATION ANALYSIS *
                     *******************************

----------------------
LOEWDIN ATOMIC CHARGES
----------------------
   0 Ag:    0.333332
   1 Ag:    0.333334
   2 Ag:    0.333334

-------------------------------
LOEWDIN REDUCED ORBITAL CHARGES
-------------------------------
  0 Ags       :     2.521537  s :     2.521537
      pz      :     2.013482  p :     6.180825
      px      :     2.023680
      py      :     2.143663
      dz2     :     1.989619  d :     9.902849
      dxz     :     1.985416
      dyz     :     1.981164
      dx2y2   :     1.980050
      dxy     :     1.966600
      f0      :     0.008014  f :     0.057364
      f+1     :     0.007996
      f-1     :     0.008211
      f+2     :     0.007942
      f-2     :     0.008105
      f+3     :     0.008796
      f-3     :     0.008300
      g0      :     0.000452  g :     0.004093
      g+1     :     0.000450
      g-1     :     0.000455
      g+2     :     0.000453
      g-2     :     0.000455
      g+3     :     0.000455
      g-3     :     0.000452
      g+4     :     0.000459
      g-4     :     0.000463
  1 Ags       :     2.521533  s :     2.521533
      pz      :     2.013482  p :     6.180826
      px      :     2.113669
      py      :     2.053676
      dz2     :     1.989619  d :     9.902850
      dxz     :     1.982228
      dyz     :     1.984353
      dx2y2   :     1.969964
      dxy     :     1.976687
      f0      :     0.008014  f :     0.057363
      f+1     :     0.008157
      f-1     :     0.008050
      f+2     :     0.008064
      f-2     :     0.007983
      f+3     :     0.008796
      f-3     :     0.008300
      g0      :     0.000452  g :     0.004093
      g+1     :     0.000453
      g-1     :     0.000451
      g+2     :     0.000454
      g-2     :     0.000453
      g+3     :     0.000455
      g-3     :     0.000452
      g+4     :     0.000462
      g-4     :     0.000460
  2 Ags       :     2.521533  s :     2.521533
      pz      :     2.013482  p :     6.180826
      px      :     2.113669
      py      :     2.053676
      dz2     :     1.989619  d :     9.902850
      dxz     :     1.982228
      dyz     :     1.984353
      dx2y2   :     1.969964
      dxy     :     1.976687
      f0      :     0.008014  f :     0.057363
      f+1     :     0.008157
      f-1     :     0.008050
      f+2     :     0.008064
      f-2     :     0.007983
      f+3     :     0.008796
      f-3     :     0.008300
      g0      :     0.000452  g :     0.004093
      g+1     :     0.000453
      g-1     :     0.000451
      g+2     :     0.000454
      g-2     :     0.000453
      g+3     :     0.000455
      g-3     :     0.000452
      g+4     :     0.000462
      g-4     :     0.000460


                      *****************************
                      * MAYER POPULATION ANALYSIS *
                      *****************************

  NA   - Mulliken gross atomic population
  ZA   - Total nuclear charge
  QA   - Mulliken gross atomic charge
  VA   - Mayer's total valence
  BVA  - Mayer's bonded valence
  FA   - Mayer's free valence

  ATOM       NA         ZA         QA         VA         BVA        FA
  0 Ag    18.6667    19.0000     0.3333     1.5235     0.9925     0.5310
  1 Ag    18.6667    19.0000     0.3333     1.5235     0.9925     0.5310
  2 Ag    18.6667    19.0000     0.3333     1.5235     0.9925     0.5310

  Mayer bond orders larger than 0.100000
B(  0-Ag,  1-Ag) :   0.4962 B(  0-Ag,  2-Ag) :   0.4962 B(  1-Ag,  2-Ag) :   0.4962 



-------
TIMINGS
-------

Total time                :   12.804 sec
Integral trafo            :    0.183 sec (  1.4%)
I/O of integrals          :    0.003 sec (  0.0%)
K(i,j) Operators          :    0.020 sec (  0.2%)
T(i,j) pair energies      :    0.005 sec (  0.0%)
V-calculation             :    0.015 sec (  0.1%)
V**(-1/2)                 :    0.014 sec (  0.1%)
Gamma(ia|P)               :    0.016 sec (  0.1%)
Gamma-Trafo               :    0.008 sec (  0.1%)
D(virtual)                :    0.001 sec (  0.0%)
D(internal)               :    0.012 sec (  0.1%)
W(virtual)                :    0.001 sec (  0.0%)
W(internal)               :    0.043 sec (  0.3%)
L(virtual)                :    0.221 sec (  1.7%)
L(internal)               :    0.001 sec (  0.0%)
G(D)                      :    1.120 sec (  8.7%)
G(Z)                      :    1.060 sec (  8.3%)
Z-Vector Solution         :    4.173 sec ( 32.6%)
Z-Vector Solution         :    4.173 sec ( 32.6%)
3-Index Derivative 
+ Separable RIJ part      :    1.350 sec ( 10.5%)
2-Index Derivative 
+ Separable RIJ part      :    0.007 sec (  0.1%)
Separable Gradient (X)    :    4.182 sec ( 32.7%)


---------------------------------------
MP2 TOTAL ENERGY:     -440.422140632 Eh
---------------------------------------

-----------------------------------
NORM OF THE MP2 GRADIENT:  0.001987
-----------------------------------


-------------------------------------------------------------------------------
                          DFT DISPERSION CORRECTION                            
                                                                               
                              DFTD3 V3.1  Rev 1                                
                          USING Becke-Johnson damping                          
-------------------------------------------------------------------------------
The DSD-BLYP/2013 functional is recognized
Active option DFTDOPT                   ...         4   

molecular C6(AA) [au] = 2417.546456 


            DFT-D V3
 parameters
 s6 scaling factor         :     0.5700 
 a1 scaling factor         :     0.0000 
 s8 scaling factor         :     0.0000 
 a2 scaling factor         :     5.4000 
 ad hoc parameters k1-k3   :    16.0000     1.3333    -4.0000 

 Edisp/kcal,au: -7.106425276057  -0.011324808328 
 E6   /kcal   :  -7.106425276 
 E8   /kcal   :  -0.000000000 
 % E8         :   0.000000000 

-------------------------   ----------------
Dispersion correction           -0.011324808
-------------------------   ----------------


-------------------------   --------------------
FINAL SINGLE POINT ENERGY      -440.433465440273
-------------------------   --------------------

------------------------------------------------------------------------------
                         ORCA GEOMETRY RELAXATION STEP
------------------------------------------------------------------------------

Reading the OPT-File                    .... done
Getting information on internals        .... done
Copying old internal coords+grads       .... done
Making the new internal coordinates     .... (new redundants).... done
Validating the new internal coordinates .... (new redundants).... done
Calculating the B-matrix                .... done
Calculating the G,G- and P matrices     .... done
Transforming gradient to internals      .... done
Projecting the internal gradient        .... done
Number of atoms                         ....   3
Number of internal coordinates          ....   6
Current Energy                          ....  -440.433465440 Eh
Current gradient norm                   ....     0.001987310 Eh/bohr
Maximum allowed component of the step   ....  0.300
Current trust radius                    ....  0.300
Evaluating the initial hessian          ....  (Almloef) done
Projecting the Hessian                  .... done
Forming the augmented Hessian           .... done
Diagonalizing the augmented Hessian     .... done
Last element of RFO vector              ....  0.999998315
Lowest eigenvalues of augmented Hessian:
 -0.000002107  0.625202514  0.629060144  0.629060264 1000.000000000
Length of the computed step             ....  0.001835577
The final length of the internal step   ....  0.001835577
Converting the step to cartesian space:
 Initial RMS(Int)=    0.0007493710
Transforming coordinates:
 Iter   0:  RMS(Cart)=    0.0003535366 RMS(Int)=    0.0007493711
 Iter   1:  RMS(Cart)=    0.0000000004 RMS(Int)=    0.0000000007
done
Storing new coordinates                 .... done

                                .--------------------.
          ----------------------|Geometry convergence|-------------------------
          Item                value                   Tolerance       Converged
          ---------------------------------------------------------------------
          RMS gradient        0.0004685145            0.0001000000      NO
          MAX gradient        0.0006819035            0.0003000000      NO
          RMS step            0.0007493710            0.0020000000      YES
          MAX step            0.0010904959            0.0040000000      YES
          ........................................................
          Max(Bonds)      0.0006      Max(Angles)    0.00
          Max(Dihed)        0.00      Max(Improp)    0.00
          ---------------------------------------------------------------------

The optimization has not yet converged - more geometry cycles are needed


    ---------------------------------------------------------------------------
                         Redundant Internal Coordinates
                            (Angstroem and degrees)

        Definition                    Value    dE/dq     Step     New-Value
    ----------------------------------------------------------------------------
     1. B(Ag  1,Ag  0)                2.6498 -0.000682  0.0006    2.6504   
     2. B(Ag  2,Ag  1)                2.6498 -0.000622  0.0005    2.6504   
     3. B(Ag  2,Ag  0)                2.6498 -0.000682  0.0006    2.6504   
     4. A(Ag  1,Ag  0,Ag  2)           60.00  0.000014   -0.00     60.00   
     5. A(Ag  0,Ag  1,Ag  2)           60.00 -0.000007    0.00     60.00   
     6. A(Ag  0,Ag  2,Ag  1)           60.00 -0.000007    0.00     60.00   
    ----------------------------------------------------------------------------

         *************************************************************
         *                GEOMETRY OPTIMIZATION CYCLE   2            *
         *************************************************************
---------------------------------
CARTESIAN COORDINATES (ANGSTROEM)
---------------------------------
  Ag     0.000000    1.530220    0.000000
  Ag     1.325175   -0.765109    0.000000
  Ag    -1.325175   -0.765109    0.000000

----------------------------
CARTESIAN COORDINATES (A.U.)
----------------------------
  NO LB      ZA    FRAG     MASS         X           Y           Z
   0 Ag   19.0000*   0   107.870    0.000000    2.891696    0.000000
   1 Ag   19.0000*   0   107.870    2.504218   -1.445847    0.000000
   2 Ag   19.0000*   0   107.870   -2.504218   -1.445847    0.000000
* core charge reduced due to ECP

--------------------------------
INTERNAL COORDINATES (ANGSTROEM)
--------------------------------
 Ag     0   0   0     0.000000000000     0.00000000     0.00000000
 Ag     1   0   0     2.650401147911     0.00000000     0.00000000
 Ag     2   1   0     2.650350596718    60.00063106     0.00000000

---------------------------
INTERNAL COORDINATES (A.U.)
---------------------------
 Ag     0   0   0     0.000000000000     0.00000000     0.00000000
 Ag     1   0   0     5.008532314583     0.00000000     0.00000000
 Ag     2   1   0     5.008436786672    60.00063106     0.00000000



           ************************************************************
           *        Program running with 24 parallel MPI-processes    *
           *              working on a common directory               *
           ************************************************************
 One Electron integrals                  ... done
 Pre-screening matrix                    ... done


           ************************************************************
           *        Program running with 24 parallel MPI-processes    *
           *              working on a common directory               *
           ************************************************************

Diagonalization of the overlap matrix:
Smallest eigenvalue                        ... 2.898e-03
Time for diagonalization                   ...    0.006 sec
Threshold for overlap eigenvalues          ... 1.000e-08
Number of eigenvalues below threshold      ... 0
Time for construction of square roots      ...    0.003 sec
Total time needed                          ...    0.010 sec

-------------------
DFT GRID GENERATION
-------------------

General Integration Accuracy     IntAcc      ...  4.670
Radial Grid Type                 RadialGrid  ... Gauss-Chebyshev
Angular Grid (max. acc.)         AngularGrid ... Lebedev-302
Angular grid pruning method      GridPruning ... 3 (G Style)
Weight generation scheme         WeightScheme... Becke
Basis function cutoff            BFCut       ...    1.0000e-11
Integration weight cutoff        WCut        ...    1.0000e-14
Grids for H and He will be reduced by one unit

# of grid points (after initial pruning)     ...  31974 (   0.0 sec)
# of grid points (after weights+screening)   ...  31838 (   0.0 sec)
nearest neighbour list constructed           ...    0.0 sec
Grid point re-assignment to atoms done       ...    0.0 sec
Grid point division into batches done        ...    0.3 sec
Reduced shell lists constructed in    0.3 sec

Total number of grid points                  ...    31838
Total number of batches                      ...      499
Average number of points per batch           ...       63
Average number of grid points per atom       ...    10613
Average number of shells per batch           ...     5.14 (10.70%)
Average number of basis functions per batch  ...    11.32 ( 6.74%)
Average number of large shells per batch     ...     3.32 (64.60%)
Average number of large basis fcns per batch ...     6.68 (59.04%)
Average number of aux-shells per batch       ...     5.14 ( 3.49%)
Average number of aux functions per batch    ...    11.32 ( 1.48%)
Maximum spatial batch extension              ...  27.01, 24.03, 31.14 au
Average spatial batch extension              ...   0.75,  0.64,  0.72 au

Time for grid setup =    0.333 sec

--------------
SCF ITERATIONS
--------------
ITER       Energy         Delta-E        Max-DP      RMS-DP      [F,P]     Damp
  0   -439.4482006684   0.000000000000 0.00001293  0.00000040  0.0006265 0.7000
  1   -439.4482304376  -0.000029769251 0.00001458  0.00000042  0.0004410 0.7000
                               ***Turning on DIIS***
  2   -439.4482287054   0.000001732200 0.00005194  0.00000123  0.0003088 0.0000
  3   -439.4482006990   0.000028006425 0.00000948  0.00000038  0.0000135 0.0000
  4   -439.4482006995  -0.000000000488 0.00000442  0.00000015  0.0000114 0.0000
                 **** Energy Check signals convergence ****

               *****************************************************
               *                     SUCCESS                       *
               *           SCF CONVERGED AFTER   5 CYCLES          *
               *****************************************************

Total Energy       :         -439.44820070 Eh          -11957.99347 eV
  Last Energy change         ...   -6.0379e-10  Tolerance :   1.0000e-08
  Last MAX-Density change    ...    7.3511e-07  Tolerance :   1.0000e-07
             **** THE GBW FILE WAS UPDATED (Ag03C1_D3H.gbw) ****
             **** DENSITY FILE WAS UPDATED (Ag03C1_D3H.scfp) ****
             **** ENERGY FILE WAS UPDATED (Ag03C1_D3H.en.tmp) ****
             **** THE GBW FILE WAS UPDATED (Ag03C1_D3H.gbw) ****
             **** DENSITY FILE WAS UPDATED (Ag03C1_D3H.scfp) ****
Total SCF time: 0 days 0 hours 0 min 2 sec 


           ************************************************************
           *        Program running with 24 parallel MPI-processes    *
           *              working on a common directory               *
           ************************************************************

------------------------------------------------------------------------------
                                ORCA  MP2 
------------------------------------------------------------------------------

Freezing NCore=0 chemical core electrons

----------------------
RI-MP2 ENERGY+GRADIENT
----------------------
Dimension of the basis                    ...  168
Memory devoted to MP2                     ... 5000 MB   
Data format for buffers                   ... DOUBLE
Compression type for matrix containers    ... UNCOMPRESSED
Scaling for aa/bb pairs                   ...   4.000e-01
Scaling for ab pairs                      ...   4.700e-01
Overall scaling of the MP2 energy         ...   1.000e+00
Calculating two index integrals           ... done (    0.010 sec)
Cholesky decomposition of the V-matrix    ... done
Cholesky decomposition of V**-1           ... done (    0.014 sec)

-----------------
RI-TRANSFORMATION (AUX index driven)
-----------------

Dimension of the orbital-basis         ... 168
Dimension of the aux-basis             ... 528
Transformation of internal MOs         ...    0-  27
Transformation of internal/external MOs...    0-  27 to   28- 167
Number Format for Storage              ... Double (8 Byte)
Integral mode                          ... Direct

First Phase: integral generation and transformation of MO indices
  Aux angular momentum 0               ... done (    0.001 sec)
  Aux angular momentum 1               ... done (    0.001 sec)
  Aux angular momentum 2               ... done (    0.002 sec)
  Aux angular momentum 3               ... done (    0.003 sec)
  Aux angular momentum 4               ... done (    0.005 sec)
  Aux angular momentum 5               ... done (    0.007 sec)
  Aux angular momentum 6               ... done (    0.011 sec)
Closing buffer VIJ ( 0.00 GB; CompressionRatio= 1.00)
Closing buffer VIA ( 0.02 GB; CompressionRatio= 1.00)
  Phase 1 completed in     0.111 sec
Second Phase: sorting and transformation of aux index

IJ-Transformation
Memory available                       ... 4992 MB 
Max. # MO pairs treated in a batch     ... 2    
# of internal orbitals                 ... 28
# batches for internal orbitals        ... 1
Closing buffer IJV ( 0.00 GB; CompressionRatio= 1.00)
(ij|v) transformation done in     0.003 sec

IA-Transformation
Memory available                       ... 4992 MB 
Max. # MO pairs treated in a batch     ... 2    
# of internal orbitals                 ... 28
# batches for internal orbitals        ... 1
Closing buffer IAV ( 0.00 GB; CompressionRatio= 1.00)
(ia|v) transformation done in     0.010 sec

  Phase 2 completed in     0.036 sec
RI-Integral transformation completed in     0.148 sec
Opening buffers                              ... done

Starting loop over batches of integrals:

Operator 0  - window                       ... (  0- 27)x( 28-167)
Operator 0  - Memory available             ...  5000 MB
Operator 0  - Memory needed per MO         ...   1.1 MB
Operator 0  - Number of orbitals per batch ... 2
Operator 0  - Number of batches            ... 1

[...]
      f+2     :     0.008053
      f-2     :     0.007975
      f+3     :     0.008764
      f-3     :     0.008281
      g0      :     0.000452  g :     0.004091
      g+1     :     0.000453
      g-1     :     0.000451
      g+2     :     0.000454
      g-2     :     0.000453
      g+3     :     0.000455
      g-3     :     0.000452
      g+4     :     0.000461
      g-4     :     0.000460
  2 Ags       :     2.521797  s :     2.521797
      pz      :     2.013321  p :     6.180371
      px      :     2.113567
      py      :     2.053483
      dz2     :     1.989601  d :     9.903184
      dxz     :     1.982329
      dyz     :     1.984426
      dx2y2   :     1.970033
      dxy     :     1.976795
      f0      :     0.008004  f :     0.057263
      f+1     :     0.008146
      f-1     :     0.008040
      f+2     :     0.008053
      f-2     :     0.007975
      f+3     :     0.008764
      f-3     :     0.008281
      g0      :     0.000452  g :     0.004091
      g+1     :     0.000453
      g-1     :     0.000451
      g+2     :     0.000454
      g-2     :     0.000453
      g+3     :     0.000455
      g-3     :     0.000452
      g+4     :     0.000461
      g-4     :     0.000460


                      *****************************
                      * MAYER POPULATION ANALYSIS *
                      *****************************

  NA   - Mulliken gross atomic population
  ZA   - Total nuclear charge
  QA   - Mulliken gross atomic charge
  VA   - Mayer's total valence
  BVA  - Mayer's bonded valence
  FA   - Mayer's free valence

  ATOM       NA         ZA         QA         VA         BVA        FA
  0 Ag    18.6666    19.0000     0.3334     1.5215     0.9907     0.5307
  1 Ag    18.6667    19.0000     0.3333     1.5217     0.9909     0.5308
  2 Ag    18.6667    19.0000     0.3333     1.5217     0.9909     0.5308

  Mayer bond orders larger than 0.100000
B(  0-Ag,  1-Ag) :   0.4954 B(  0-Ag,  2-Ag) :   0.4954 B(  1-Ag,  2-Ag) :   0.4956 



-------
TIMINGS
-------

Total time                :   12.779 sec
Integral trafo            :    0.176 sec (  1.4%)
I/O of integrals          :    0.003 sec (  0.0%)
K(i,j) Operators          :    0.020 sec (  0.2%)
T(i,j) pair energies      :    0.005 sec (  0.0%)
V-calculation             :    0.012 sec (  0.1%)
V**(-1/2)                 :    0.009 sec (  0.1%)
Gamma(ia|P)               :    0.016 sec (  0.1%)
Gamma-Trafo               :    0.008 sec (  0.1%)
D(virtual)                :    0.001 sec (  0.0%)
D(internal)               :    0.012 sec (  0.1%)
W(virtual)                :    0.001 sec (  0.0%)
W(internal)               :    0.042 sec (  0.3%)
L(virtual)                :    0.223 sec (  1.7%)
L(internal)               :    0.001 sec (  0.0%)
G(D)                      :    1.111 sec (  8.7%)
G(Z)                      :    0.989 sec (  7.7%)
Z-Vector Solution         :    4.265 sec ( 33.4%)
Z-Vector Solution         :    4.265 sec ( 33.4%)
3-Index Derivative 
+ Separable RIJ part      :    1.355 sec ( 10.6%)
2-Index Derivative 
+ Separable RIJ part      :    0.007 sec (  0.1%)
Separable Gradient (X)    :    4.143 sec ( 32.4%)


---------------------------------------
MP2 TOTAL ENERGY:     -440.422229894 Eh
---------------------------------------

-----------------------------------
NORM OF THE MP2 GRADIENT:  0.000044
-----------------------------------


-------------------------------------------------------------------------------
                          DFT DISPERSION CORRECTION                            
                                                                               
                              DFTD3 V3.1  Rev 1                                
                          USING Becke-Johnson damping                          
-------------------------------------------------------------------------------
The DSD-BLYP/2013 functional is recognized
Active option DFTDOPT                   ...         4   

molecular C6(AA) [au] = 2417.548188 


            DFT-D V3
 parameters
 s6 scaling factor         :     0.5700 
 a1 scaling factor         :     0.0000 
 s8 scaling factor         :     0.0000 
 a2 scaling factor         :     5.4000 
 ad hoc parameters k1-k3   :    16.0000     1.3333    -4.0000 

 Edisp/kcal,au: -7.059539047135  -0.011250090375 
 E6   /kcal   :  -7.059539047 
 E8   /kcal   :  -0.000000000 
 % E8         :   0.000000000 

-------------------------   ----------------
Dispersion correction           -0.011250090
-------------------------   ----------------


-------------------------   --------------------
FINAL SINGLE POINT ENERGY      -440.433479984144
-------------------------   --------------------

                                *** OPTIMIZATION RUN DONE ***

                            ***************************************
                            *     ORCA property calculations      *
                            ***************************************

                                    ---------------------
                                    Active property flags
                                    ---------------------
   (+) Dipole Moment


------------------------------------------------------------------------------
                       ORCA ELECTRIC PROPERTIES CALCULATION
------------------------------------------------------------------------------

Dipole Moment Calculation                       ... on
Quadrupole Moment Calculation                   ... off
Polarizability Calculation                      ... off
GBWName                                         ... Ag03C1_D3H.gbw
Electron density file                           ... Ag03C1_D3H.scfp
The origin for moment calculation is the CENTER OF MASS  = ( 0.000000,  0.000001  0.000000)

-------------
DIPOLE MOMENT
-------------
                                X             Y             Z
Electronic contribution:      0.00000       0.00032      -0.00000
Nuclear contribution   :      0.00000      -0.00000       0.00000
                        -----------------------------------------
Total Dipole Moment    :      0.00000       0.00032      -0.00000
                        -----------------------------------------
Magnitude (a.u.)       :      0.00032
Magnitude (Debye)      :      0.00081



--------------------
Rotational spectrum 
--------------------
 
Rotational constants in cm-1:     0.044278     0.044247     0.022131 
Rotational constants in MHz :  1327.427320  1326.505298   663.483074 

 Dipole components along the rotational axes: 
x,y,z [a.u.] :    -0.000319    -0.000000    -0.000000 
x,y,z [Debye]:    -0.000810    -0.000000    -0.000000 

 

                         *** MP2 UNRELAXED DENSITY ***

------------------------------------------------------------------------------
                       ORCA ELECTRIC PROPERTIES CALCULATION
------------------------------------------------------------------------------

Dipole Moment Calculation                       ... on
Quadrupole Moment Calculation                   ... off
Polarizability Calculation                      ... off
GBWName                                         ... Ag03C1_D3H.gbw
Electron density file                           ... Ag03C1_D3H.pmp2ur
The origin for moment calculation is the CENTER OF MASS  = ( 0.000000,  0.000001  0.000000)

-------------
DIPOLE MOMENT
-------------
                                X             Y             Z
Electronic contribution:      0.00000       0.00032      -0.00000
Nuclear contribution   :      0.00000      -0.00000       0.00000
                        -----------------------------------------
Total Dipole Moment    :      0.00000       0.00032      -0.00000
                        -----------------------------------------
Magnitude (a.u.)       :      0.00032
Magnitude (Debye)      :      0.00082



--------------------
Rotational spectrum 
--------------------
 
Rotational constants in cm-1:     0.044278     0.044247     0.022131 
Rotational constants in MHz :  1327.427320  1326.505298   663.483074 

 Dipole components along the rotational axes: 
x,y,z [a.u.] :    -0.000321    -0.000000    -0.000000 
x,y,z [Debye]:    -0.000816    -0.000000    -0.000000 

 

                           *** MP2 RELAXED DENSITY ***

------------------------------------------------------------------------------
                       ORCA ELECTRIC PROPERTIES CALCULATION
------------------------------------------------------------------------------

Dipole Moment Calculation                       ... on
Quadrupole Moment Calculation                   ... off
Polarizability Calculation                      ... off
GBWName                                         ... Ag03C1_D3H.gbw
Electron density file                           ... Ag03C1_D3H.pmp2re
The origin for moment calculation is the CENTER OF MASS  = ( 0.000000,  0.000001  0.000000)

-------------
DIPOLE MOMENT
-------------
                                X             Y             Z
Electronic contribution:      0.00000       0.00039      -0.00000
Nuclear contribution   :      0.00000      -0.00000       0.00000
                        -----------------------------------------
Total Dipole Moment    :      0.00000       0.00039      -0.00000
                        -----------------------------------------
Magnitude (a.u.)       :      0.00039
Magnitude (Debye)      :      0.00099



--------------------
Rotational spectrum 
--------------------
 
Rotational constants in cm-1:     0.044278     0.044247     0.022131 
Rotational constants in MHz :  1327.427320  1326.505298   663.483074 

 Dipole components along the rotational axes: 
x,y,z [a.u.] :    -0.000388    -0.000000    -0.000000 
x,y,z [Debye]:    -0.000985    -0.000000    -0.000000 

 

----------------------------------------------------------------------------
                           ORCA NUMERICAL FREQUENCIES
                              (24-process run)
----------------------------------------------------------------------------

Number of atoms                ... 3
Central differences            ... used
Number of displacements        ... 18
Numerical increment            ... 5.000e-03 bohr
IR-spectrum generation         ... on
Raman-spectrum generation      ... off
Surface Crossing Hessian       ... off

 WARNING: There are more processes than displacements to do
  ====> : Reducing number of processes to   9

The output will be reduced. Please look at the following files:
SCF program output             ... >Ag03C1_D3H.lastscf
Integral program output        ... >Ag03C1_D3H.lastint
Gradient program output        ... >Ag03C1_D3H.lastgrad
Dipole moment program output   ... >Ag03C1_D3H.lastmom
AutoCI program output          ... >Ag03C1_D3H.lastautoci


         <<< Energy and Gradient at the input geometry >>>

        <<< Energy and Gradient at displaced geometries >>>
             <<<Displacing   1/coordinate 3 (+)>>>
             <<<Displacing   2/coordinate 2 (+)>>>
             <<<Displacing   1/coordinate 2 (+)>>>
             <<<Displacing   1/coordinate 1 (+)>>>
             <<<Displacing   3/coordinate 1 (+)>>>
             <<<Displacing   3/coordinate 2 (+)>>>
             <<<Displacing   3/coordinate 3 (+)>>>
             <<<Displacing   2/coordinate 3 (+)>>>
             <<<Displacing   2/coordinate 1 (+)>>>
             <<<Displacing   1/coordinate 1 (-)>>>
             <<<Displacing   2/coordinate 3 (-)>>>
             <<<Displacing   3/coordinate 3 (-)>>>
             <<<Displacing   1/coordinate 3 (-)>>>
             <<<Displacing   3/coordinate 2 (-)>>>
             <<<Displacing   2/coordinate 2 (-)>>>
             <<<Displacing   3/coordinate 1 (-)>>>
             <<<Displacing   2/coordinate 1 (-)>>>
             <<<Displacing   1/coordinate 2 (-)>>>

-----------------------
VIBRATIONAL FREQUENCIES
-----------------------

Scaling factor for frequencies =  1.000000000 (already applied!)

   0:         0.00 cm**-1
   1:         0.00 cm**-1
   2:         0.00 cm**-1
   3:         0.00 cm**-1
   4:         0.00 cm**-1
   5:         0.00 cm**-1
   6:       125.44 cm**-1
   7:       125.90 cm**-1
   8:       183.84 cm**-1


------------
NORMAL MODES
------------

These modes are the cartesian displacements weighted by the diagonal matrix
M(i,i)=1/sqrt(m[i]) where m[i] is the mass of the displaced atom
Thus, these vectors are normalized but *not* orthogonal

                  0          1          2          3          4          5    
      0       0.000000   0.000000   0.000000   0.000000   0.000000   0.000000
      1       0.000000   0.000000   0.000000   0.000000   0.000000   0.000000
      2       0.000000   0.000000   0.000000   0.000000   0.000000   0.000000
      3       0.000000   0.000000   0.000000   0.000000   0.000000   0.000000
      4       0.000000   0.000000   0.000000   0.000000   0.000000   0.000000
      5       0.000000   0.000000   0.000000   0.000000   0.000000   0.000000
      6       0.000000   0.000000   0.000000   0.000000   0.000000   0.000000
      7       0.000000   0.000000   0.000000   0.000000   0.000000   0.000000
      8       0.000000   0.000000   0.000000   0.000000   0.000000   0.000000
                   6          7          8    
      0       0.577250  -0.000583   0.000005
      1       0.000578   0.577068   0.577633
      2       0.000000   0.000000   0.000000
      3      -0.289134  -0.499953   0.499753
      4       0.499798  -0.289039  -0.288812
      5       0.000000   0.000000   0.000000
      6      -0.288116   0.500536  -0.499758
      7      -0.500376  -0.288029  -0.288820
      8       0.000000   0.000000   0.000000


-----------
IR SPECTRUM  
-----------

 Mode    freq (cm**-1)   T**2         TX         TY         TZ
-------------------------------------------------------------------
   6:       125.44    1.691904  ( -1.300731   0.001369  -0.000000)
   7:       125.90    1.842406  (  0.001313   1.357352  -0.000005)
   8:       183.84    0.000002  ( -0.000019   0.001284   0.000001)

The first frequency considered to be a vibration is 6
The total number of vibrations considered is 3


--------------------------
THERMOCHEMISTRY AT 298.15K
--------------------------

Temperature         ... 298.15 K
Pressure            ... 1.00 atm
Total Mass          ... 323.61 AMU

Throughout the following assumptions are being made:
  (1) The electronic state is orbitally nondegenerate
  (2) There are no thermally accessible electronically excited states
  (3) Hindered rotations indicated by low frequency modes are not
      treated as such but are treated as vibrations and this may
      cause some error
  (4) All equations used are the standard statistical mechanics
      equations for an ideal gas
  (5) All vibrations are strictly harmonic

freq.     125.44  E(vib)   ...       0.43 
freq.     125.90  E(vib)   ...       0.43 
freq.     183.84  E(vib)   ...       0.37 

------------
INNER ENERGY
------------

The inner energy is: U= E(el) + E(ZPE) + E(vib) + E(rot) + E(trans)
    E(el)   - is the total energy from the electronic structure calculation
              = E(kin-el) + E(nuc-el) + E(el-el) + E(nuc-nuc)
    E(ZPE)  - the the zero temperature vibrational energy from the frequency calculation
    E(vib)  - the the finite temperature correction to E(ZPE) due to population
              of excited vibrational states
    E(rot)  - is the rotational thermal energy
    E(trans)- is the translational thermal energy

Summary of contributions to the inner energy U:
Electronic energy                ...   -440.43348002 Eh
Zero point energy                ...      0.00099141 Eh       0.62 kcal/mol
Thermal vibrational correction   ...      0.00195987 Eh       1.23 kcal/mol
Thermal rotational correction    ...      0.00141627 Eh       0.89 kcal/mol
Thermal translational correction ...      0.00141627 Eh       0.89 kcal/mol
-----------------------------------------------------------------------
Total thermal energy                   -440.42769620 Eh


Summary of corrections to the electronic energy:
(perhaps to be used in another calculation)
Total thermal correction                  0.00479241 Eh       3.01 kcal/mol
Non-thermal (ZPE) correction              0.00099141 Eh       0.62 kcal/mol
-----------------------------------------------------------------------
Total correction                          0.00578382 Eh       3.63 kcal/mol


--------
ENTHALPY
--------

The enthalpy is H = U + kB*T
                kB is Boltzmann's constant
Total free energy                 ...   -440.42769620 Eh 
Thermal Enthalpy correction       ...      0.00094421 Eh       0.59 kcal/mol
-----------------------------------------------------------------------
Total Enthalpy                    ...   -440.42675199 Eh


Note: Rotational entropy computed according to Herzberg 
Infrared and Raman Spectra, Chapter V,1, Van Nostrand Reinhold, 1945 
Point Group:  C2v, Symmetry Number:   2  
Rotational constants in cm-1:     0.044278     0.044247     0.022131 

Vibrational entropy computed according to the QRRHO of S. Grimme
Chem.Eur.J. 2012 18 9955


-------
ENTROPY
-------

The entropy contributions are T*S = T*(S(el)+S(vib)+S(rot)+S(trans))
     S(el)   - electronic entropy
     S(vib)  - vibrational entropy
     S(rot)  - rotational entropy
     S(trans)- translational entropy
The entropies will be listed as mutliplied by the temperature to get
units of energy

Electronic entropy                ...      0.00000000 Eh      0.00 kcal/mol
Vibrational entropy               ...      0.00384349 Eh      2.41 kcal/mol
Rotational entropy                ...      0.01359896 Eh      8.53 kcal/mol
Translational entropy             ...      0.02053447 Eh     12.89 kcal/mol
-----------------------------------------------------------------------
Final entropy term                ...      0.03797692 Eh     23.83 kcal/mol

In case the symmetry of your molecule has not been determined correctly
or in case you have a reason to use a different symmetry number we print 
out the resulting rotational entropy values for sn=1,12 :
 --------------------------------------------------------
|  sn= 1 | S(rot)=       0.01425342 Eh      8.94 kcal/mol|
|  sn= 2 | S(rot)=       0.01359896 Eh      8.53 kcal/mol|
|  sn= 3 | S(rot)=       0.01321613 Eh      8.29 kcal/mol|
|  sn= 4 | S(rot)=       0.01294451 Eh      8.12 kcal/mol|
|  sn= 5 | S(rot)=       0.01273382 Eh      7.99 kcal/mol|
|  sn= 6 | S(rot)=       0.01256168 Eh      7.88 kcal/mol|
|  sn= 7 | S(rot)=       0.01241613 Eh      7.79 kcal/mol|
|  sn= 8 | S(rot)=       0.01229005 Eh      7.71 kcal/mol|
|  sn= 9 | S(rot)=       0.01217884 Eh      7.64 kcal/mol|
|  sn=10 | S(rot)=       0.01207936 Eh      7.58 kcal/mol|
|  sn=11 | S(rot)=       0.01198937 Eh      7.52 kcal/mol|
|  sn=12 | S(rot)=       0.01190722 Eh      7.47 kcal/mol|
 --------------------------------------------------------


-------------------
GIBBS FREE ENERGY
-------------------

The Gibbs free energy is G = H - T*S

Total enthalpy                    ...   -440.42675199 Eh 
Total entropy correction          ...     -0.03797692 Eh    -23.83 kcal/mol
-----------------------------------------------------------------------
Final Gibbs free energy         ...   -440.46472891 Eh

For completeness - the Gibbs free energy minus the electronic energy
G-E(el)                           ...     -0.03124890 Eh    -19.61 kcal/mol


Total Time for Numerical Frequencies  :       195.146 sec

Timings for individual modules:

Sum of individual times         ...       87.232 sec (=   1.454 min)
GTO integral calculation        ...        5.149 sec (=   0.086 min)   5.9 %
SCF iterations                  ...       15.401 sec (=   0.257 min)  17.7 %
MP2 module                      ...       66.561 sec (=   1.109 min)  76.3 %
Geometry relaxation             ...        0.121 sec (=   0.002 min)   0.1 %
                             ****ORCA TERMINATED NORMALLY****
TOTAL RUN TIME: 0 days 0 hours 4 minutes 27 seconds 338 msec
