
                                 *****************
                                 * O   R   C   A *
                                 *****************

           --- An Ab Initio, DFT and Semiempirical electronic structure package ---

                  #######################################################
                  #                        -***-                        #
                  #          Department of theory and spectroscopy      #
                  #               Directorship: Frank Neese             #
                  #        Max Planck Institute fuer Kohlenforschung    #
                  #                Kaiser Wilhelm Platz 1               #
                  #                 D-45470 Muelheim/Ruhr               #
                  #                      Germany                        #
                  #                                                     #
                  #                  All rights reserved                #
                  #                        -***-                        #
                  #######################################################


                         Program Version 4.2.0 -  RELEASE  -


 With contributions from (in alphabetic order):
   Daniel Aravena         : Magnetic Suceptibility
   Michael Atanasov       : Ab Initio Ligand Field Theory (pilot matlab implementation)
   Alexander A. Auer      : GIAO ZORA, VPT2
   Ute Becker             : Parallelization
   Giovanni Bistoni       : ED, misc. LED, open-shell LED, HFLED
   Martin Brehm           : Molecular dynamics
   Dmytro Bykov           : SCF Hessian
   Vijay G. Chilkuri      : MRCI spin determinant printing, contributions to CSF-ICE
   Dipayan Datta          : RHF DLPNO-CCSD density
   Achintya Kumar Dutta   : EOM-CC, STEOM-CC
   Dmitry Ganyushin       : Spin-Orbit,Spin-Spin,Magnetic field MRCI
   Miquel Garcia          : C-PCM Hessian, Gaussian charge scheme
   Yang Guo               : DLPNO-NEVPT2, CIM, IAO-localization
   Andreas Hansen         : Spin unrestricted coupled pair/coupled cluster methods
   Benjamin Helmich-Paris : CASSCF linear response (MC-RPA)
   Lee Huntington         : MR-EOM, pCC
   Robert Izsak           : Overlap fitted RIJCOSX, COSX-SCS-MP3, EOM
   Christian Kollmar      : KDIIS, OOCD, Brueckner-CCSD(T), CCSD density
   Simone Kossmann        : Meta GGA functionals, TD-DFT gradient, OOMP2, MP2 Hessian
   Martin Krupicka        : AUTO-CI
   Lucas Lang             : DCDCAS
   Dagmar Lenk            : GEPOL surface, SMD
   Dimitrios Liakos       : Extrapolation schemes; Compound Job, initial MDCI parallelization
   Dimitrios Manganas     : Further ROCIS development; embedding schemes
   Dimitrios Pantazis     : SARC Basis sets
   Taras Petrenko         : DFT Hessian,TD-DFT gradient, ASA, ECA, R-Raman, ABS, FL, XAS/XES, NRVS
   Peter Pinski           : DLPNO-MP2, DLPNO-MP2 Gradient
   Christoph Reimann      : Effective Core Potentials
   Marius Retegan         : Local ZFS, SOC
   Christoph Riplinger    : Optimizer, TS searches, QM/MM, DLPNO-CCSD(T), (RO)-DLPNO pert. Triples
   Tobias Risthaus        : Range-separated hybrids, TD-DFT gradient, RPA, STAB
   Michael Roemelt        : Original ROCIS implementation
   Masaaki Saitow         : Open-shell DLPNO-CCSD energy and density
   Barbara Sandhoefer     : DKH picture change effects
   Avijit Sen             : IP-ROCIS
   Kantharuban Sivalingam : CASSCF convergence, NEVPT2, FIC-MRCI
   Bernardo de Souza      : ESD, SOC TD-DFT
   Georgi Stoychev        : AutoAux, RI-MP2 NMR
   Willem Van den Heuvel  : Paramagnetic NMR
   Boris Wezisla          : Elementary symmetry handling
   Frank Wennmohs         : Technical directorship


 We gratefully acknowledge several colleagues who have allowed us to
 interface, adapt or use parts of their codes:
   Stefan Grimme, W. Hujo, H. Kruse,             : VdW corrections, initial TS optimization,
                  C. Bannwarth                     DFT functionals, gCP, sTDA/sTD-DF
   Ed Valeev, F. Pavosevic, A. Kumar             : LibInt (2-el integral package), F12 methods
   Garnet Chan, S. Sharma, J. Yang, R. Olivares  : DMRG
   Ulf Ekstrom                                   : XCFun DFT Library
   Mihaly Kallay                                 : mrcc  (arbitrary order and MRCC methods)
   Andreas Klamt, Michael Diedenhofen            : otool_cosmo (COSMO solvation model)
   Jiri Pittner, Ondrej Demel                    : Mk-CCSD
   Frank Weinhold                                : gennbo (NPA and NBO analysis)
   Christopher J. Cramer and Donald G. Truhlar   : smd solvation model
   Lars Goerigk                                  : TD-DFT with DH, B97 family of functionals
   V. Asgeirsson, H. Jonsson                     : NEB implementation
   FAccTs GmbH                                   : IRC, NEB, NEB-TS, Multilevel, MM, QM/MM, CI optimization
   S Lehtola, MJT Oliveira, MAL Marques          : LibXC Library


 Your calculation uses the libint2 library for the computation of 2-el integrals
 For citations please refer to: http://libint.valeyev.net

 Your ORCA version has been built with support for libXC version: 4.2.3
 For citations please refer to: https://tddft.org/programs/libxc/

 This ORCA versions uses:
   CBLAS   interface :  Fast vector & matrix operations
   LAPACKE interface :  Fast linear algebra routines
   SCALAPACK package :  Parallel linear algebra routines


Your calculation utilizes the atom-pairwise dispersion correction
with the Becke-Johnson damping scheme (D3BJ)
Cite in your paper:
S.Grimme, S.Ehrlich, L.Goerigk, J Comput Chem, (2011), 32, 1456–1465 
S.Grimme, J.Antony, S.Ehrlich and H.Krieg, J.Chem.Phys., 132, (2010), 154104 
   

----- Orbital basis set information -----
Your calculation utilizes the basis: def2-TZVPPD
   F. Weigend and R. Ahlrichs, Phys. Chem. Chem. Phys. 7, 3297 (2005).
   D. Rappoport and F. Furche, J. Chem. Phys. 133 134105 (2010).

----- AuxC basis set information -----
Your calculation utilizes the auxiliary basis: def2-TZVPPD/C
   A. Hellweg, C. Hattig, S. Hofener and W. Klopper, Theor. Chem. Acc. 117, 587 (2007).

----- AuxJK basis set information -----
Your calculation utilizes the auxiliary basis: def2/JK
   H-Ba, Hf-Rn: F. Weigend, J. Comput. Chem. 29, 167 (2008).

cite the ECPs for Au [Def2-ECP] as follows:
Ce-Yb(ecp-28): M. Dolg, H. Stoll, H.Preuss, J. Chem. Phys., 1989, 90, 1730-1734.
Y-Cd(ecp-28), Hf-Hg(ecp-46): D. Andrae,U. Haeussermann, M. Dolg, H. Stoll, H. Preuss, Theor. Chim. Acta, 1990, 77, 123-141.
In-Sb(ecp-28), Tl-Bi(ecp-46): B. Metz, H. Stoll, M. Dolg, J. Chem. Phys., 2000, 113, 2563-2569.
Te-Xe(ecp-28), Po-Rn(ecp-46): K. A. Peterson, D. Figgen, E. Goll, H. Stoll, M. Dolg, J. Chem. Phys., 2003, 119, 11113-11123.
Rb(ecp-28), Cs(ecp-46): T. Leininger, A. Nicklass, W. Kuechle, H. Stoll, M. Dolg, A. Bergner, Chem. Phys. Lett., 1996, 255, 274-280.
Sr(ecp-28), Ba(ecp-46): M. Kaupp, P. V. Schleyer, H. Stoll and H. Preuss, J. Chem. Phys., 1991, 94, 1360-1366.
La(ecp-46): M. Dolg, H. Stoll, A. Savin, H. Preuss, Theor. Chim. Acta, 1989, 75, 173-194.
Lu(ecp-28): X. Cao, M. Dolg, J. Chem. Phys., 2001, 115, 7348-7355.

ECP parameters for Au [Def2-ECP] have been obtained from:
TURBOMOLE (7.0.2)

================================================================================
                                        WARNINGS
                       Please study these warnings very carefully!
================================================================================


WARNING: The frozen-core approximation for MP2-gradient calculations is turned on by default.

WARNING: Geometry Optimization
  ===> : Switching off AutoStart
         For restart on a previous wavefunction, please use MOREAD

WARNING: There are different parametrizations of Gershom Martin's DSD-DFs
         for use with and without D3(BJ)!
         You are using the D3(BJ) parametrized version,
         consistent with the 2013 article (S. Kozuch and J. M. L. Martin, JCC 2013, 34, 2327)

WARNING: The frozen-core approximation is turned on by default for 
         the MP2 part of double-hybrid DFT.

INFO   : the flag for use of LIBINT has been found!

================================================================================
                                       INPUT FILE
================================================================================
NAME = Au01N0_H.in
|  1> #
|  2> # Au01N0_H ri-DSD-BLYP/2013-D3BJ/Def2-TZVPPD
|  3> #
|  4> ! rijk ri-dsd-blyp/2013 d3bj def2-tzvppd def2/jk def2-tzvppd/c grid4 nofinalgrid opt xyzfile numfreq
|  5> 
|  6> *xyz 0 1
|  7> Au       0.000000    0.000000    0.019034 
|  8> H        0.000000    0.000000   -1.503691 
|  9> *
| 10> 
| 11> %maxcore 5000
| 12> 
| 13> %pal
| 14> nprocs = 24
| 15> end
| 16> 
| 17> 
| 18>                          ****END OF INPUT****
================================================================================

                       *****************************
                       * Geometry Optimization Run *
                       *****************************

Geometry optimization settings:
Update method            Update   .... BFGS
Choice of coordinates    CoordSys .... Z-matrix Internals
Initial Hessian          InHess   .... Almoef's Model

Convergence Tolerances:
Energy Change            TolE     ....  5.0000e-06 Eh
Max. Gradient            TolMAXG  ....  3.0000e-04 Eh/bohr
RMS Gradient             TolRMSG  ....  1.0000e-04 Eh/bohr
Max. Displacement        TolMAXD  ....  4.0000e-03 bohr
RMS Displacement         TolRMSD  ....  2.0000e-03 bohr
Strict Convergence                ....  False
------------------------------------------------------------------------------
                        ORCA OPTIMIZATION COORDINATE SETUP
------------------------------------------------------------------------------

The optimization will be done in new redundant internal coordinates
Making redundant internal coordinates   ...  (new redundants) done
Evaluating the initial hessian          ...  (Almloef) done
Evaluating the coordinates              ...  done
Calculating the B-matrix                .... done
Calculating the G-matrix                .... done
Diagonalizing the G-matrix              .... done
The first mode is                       ....    0
The number of degrees of freedom        ....    1

    -----------------------------------------------------------------
                    Redundant Internal Coordinates


    -----------------------------------------------------------------
         Definition                    Initial Value    Approx d2E/dq
    -----------------------------------------------------------------
      1. B(H   1,Au  0)                  1.5227         0.102242   
    -----------------------------------------------------------------

Number of atoms                         .... 2
Number of degrees of freedom            .... 1

         *************************************************************
         *                GEOMETRY OPTIMIZATION CYCLE   1            *
         *************************************************************
---------------------------------
CARTESIAN COORDINATES (ANGSTROEM)
---------------------------------
  Au     0.000000    0.000000    0.019034
  H      0.000000    0.000000   -1.503691

----------------------------
CARTESIAN COORDINATES (A.U.)
----------------------------
  NO LB      ZA    FRAG     MASS         X           Y           Z
   0 Au   19.0000*   0   196.966    0.000000    0.000000    0.035969
   1 H     1.0000    0     1.008    0.000000    0.000000   -2.841564
* core charge reduced due to ECP

--------------------------------
INTERNAL COORDINATES (ANGSTROEM)
--------------------------------
 Au     0   0   0     0.000000000000     0.00000000     0.00000000
 H      1   0   0     1.522725000000     0.00000000     0.00000000

---------------------------
INTERNAL COORDINATES (A.U.)
---------------------------
 Au     0   0   0     0.000000000000     0.00000000     0.00000000
 H      1   0   0     2.877533227275     0.00000000     0.00000000

---------------------
BASIS SET INFORMATION
---------------------
There are 2 groups of distinct atoms

 Group   1 Type Au  : 8s8p6d2f1g contracted to 6s5p3d2f1g pattern {311111/41111/411/11/1}
 Group   2 Type H   : 5s3p1d contracted to 3s3p1d pattern {311/111/1}

Atom   0Au   basis set group =>   1
Atom   1H    basis set group =>   2
---------------------------------
AUXILIARY/C BASIS SET INFORMATION
---------------------------------
There are 2 groups of distinct atoms

 Group   1 Type Au  : 9s9p8d5f4g3h1i contracted to 9s9p8d5f4g3h1i pattern {111111111/111111111/11111111/11111/1111/111/1}
 Group   2 Type H   : 5s4p3d1f contracted to 5s4p3d1f pattern {11111/1111/111/1}

Atom   0Au   basis set group =>   1
Atom   1H    basis set group =>   2
----------------------------------
AUXILIARY/JK BASIS SET INFORMATION
----------------------------------
There are 2 groups of distinct atoms

 Group   1 Type Au  : 13s12p11d9f5g3h2i contracted to 13s11p10d8f4g3h2i pattern {1111111111111/21111111111/2111111111/21111111/2111/111/11}
 Group   2 Type H   : 4s2p2d contracted to 2s2p2d pattern {31/11/11}

Atom   0Au   basis set group =>   1
Atom   1H    basis set group =>   2
-------------------------
ECP PARAMETER INFORMATION
-------------------------

 Group 1, Type Au ECP Def2-ECP (replacing 60 core electrons, lmax=3)

Atom   0Au   ECP group =>   1



           ************************************************************
           *        Program running with 24 parallel MPI-processes    *
           *              working on a common directory               *
           ************************************************************
------------------------------------------------------------------------------
                           ORCA GTO INTEGRAL CALCULATION
                           -- RI-GTO INTEGRALS CHOSEN --
------------------------------------------------------------------------------

                         BASIS SET STATISTICS AND STARTUP INFO

Gaussian basis set:
 # of primitive gaussian shells          ...   34
 # of primitive gaussian functions       ...  104
 # of contracted shells                  ...   24
 # of contracted basis functions         ...   76
 Highest angular momentum                ...    4
 Maximum contraction depth               ...    4
Auxiliary gaussian basis set:
 # of primitive gaussian shells          ...   63
 # of primitive gaussian functions       ...  291
 # of contracted shells                  ...   57
 # of contracted aux-basis functions     ...  265
 Highest angular momentum                ...    6
 Maximum contraction depth               ...    3
Ratio of auxiliary to basis functions    ...  3.49
Integral package used                  ... LIBINT
 One Electron integrals                  
   ECP integrals                         ... done
 Ordering auxiliary basis shells         ... done
 Integral threshhold             Thresh  ...  2.500e-11
 Primitive cut-off               TCut    ...  2.500e-12
 Pre-screening matrix                    ... done
 Shell pair data                         ... 
 Ordering of the shell pairs             ... done (   0.000 sec) 300 of 300 pairs
 Determination of significant pairs      ... done (   0.000 sec)
 Creation of shell pair data             ... done (   0.000 sec)
 Storage of shell pair data              ... done (   0.016 sec)
 Shell pair data done in (   0.016 sec)
 Computing two index integrals           ... done
 Cholesky decomposition of the V-matrix  ... done


Timings:
 Total evaluation time                   ...   0.214 sec (  0.004 min)
 One electron matrix time                ...   0.057 sec (  0.001 min) = 26.8%
 Schwartz matrix evaluation time         ...   0.090 sec (  0.002 min) = 42.1%
 Two index repulsion integral time       ...   0.017 sec (  0.000 min) =  7.9%
 Cholesky decomposition of V             ...   0.001 sec (  0.000 min) =  0.7%
 Three index repulsion integral time     ...   0.000 sec (  0.000 min) =  0.0%



           ************************************************************
           *        Program running with 24 parallel MPI-processes    *
           *              working on a common directory               *
           ************************************************************
-------------------------------------------------------------------------------
                                 ORCA SCF
-------------------------------------------------------------------------------

------------
SCF SETTINGS
------------
Hamiltonian:
 Density Functional     Method          .... DFT(GTOs)
 Exchange Functional    Exchange        .... B88
   X-Alpha parameter    XAlpha          ....  0.666667
   Becke's b parameter  XBeta           ....  0.004200
 Correlation Functional Correlation     .... LYP
 LDA part of GGA corr.  LDAOpt          .... VWN-5
 Gradients option       PostSCFGGA      .... off
 Hybrid DFT is turned on
   Fraction HF Exchange ScalHFX         ....  0.710000
   Scaling of DF-GGA-X  ScalDFX         ....  0.290000
   Scaling of DF-GGA-C  ScalDFC         ....  0.540000
   Scaling of DF-LDA-C  ScalLDAC        ....  0.540000
   Perturbative correction              ....  1.000000
   Density functional embedding theory  .... OFF
 RI-approximation to the Coulomb term is turned on
   Number of auxiliary basis functions  .... 265
   RI-JK (J+K treated both via RI)      .... on


General Settings:
 Integral files         IntName         .... Au01N0_H
 Hartree-Fock type      HFTyp           .... RHF
 Total Charge           Charge          ....    0
 Multiplicity           Mult            ....    1
 Number of Electrons    NEL             ....   20
 Basis Dimension        Dim             ....   76
 Nuclear Repulsion      ENuc            ....      6.6028777079 Eh

Convergence Acceleration:
 DIIS                   CNVDIIS         .... on
   Start iteration      DIISMaxIt       ....    12
   Startup error        DIISStart       ....  0.200000
   # of expansion vecs  DIISMaxEq       ....     5
   Bias factor          DIISBfac        ....   1.050
   Max. coefficient     DIISMaxC        ....  10.000
 Newton-Raphson         CNVNR           .... off
 SOSCF                  CNVSOSCF        .... off
 Level Shifting         CNVShift        .... on
   Level shift para.    LevelShift      ....    0.2500
   Turn off err/grad.   ShiftErr        ....    0.0010
 Zerner damping         CNVZerner       .... off
 Static damping         CNVDamp         .... on
   Fraction old density DampFac         ....    0.7000
   Max. Damping (<1)    DampMax         ....    0.9800
   Min. Damping (>=0)   DampMin         ....    0.0000
   Turn off err/grad.   DampErr         ....    0.1000
 Fernandez-Rico         CNVRico         .... off

SCF Procedure:
 Maximum # iterations   MaxIter         ....   125
 SCF integral mode      SCFMode         .... Direct
   Integral package                     .... LIBINT
 Reset frequency        DirectResetFreq ....    20
 Integral Threshold     Thresh          ....  2.500e-11 Eh
 Primitive CutOff       TCut            ....  2.500e-12 Eh

Convergence Tolerance:
 Convergence Check Mode ConvCheckMode   .... Total+1el-Energy
 Convergence forced     ConvForced      .... 0
 Energy Change          TolE            ....  1.000e-08 Eh
 1-El. energy change                    ....  1.000e-05 Eh
 DIIS Error             TolErr          ....  5.000e-07


Diagonalization of the overlap matrix:
Smallest eigenvalue                        ... 2.371e-03
Time for diagonalization                   ...    0.003 sec
Threshold for overlap eigenvalues          ... 1.000e-08
Number of eigenvalues below threshold      ... 0
Time for construction of square roots      ...    0.001 sec
Total time needed                          ...    0.004 sec

-------------------
DFT GRID GENERATION
-------------------

General Integration Accuracy     IntAcc      ...  4.670
Radial Grid Type                 RadialGrid  ... Gauss-Chebyshev
Angular Grid (max. acc.)         AngularGrid ... Lebedev-302
Angular grid pruning method      GridPruning ... 3 (G Style)
Weight generation scheme         WeightScheme... Becke
Basis function cutoff            BFCut       ...    1.0000e-11
Integration weight cutoff        WCut        ...    1.0000e-14
Grids for H and He will be reduced by one unit

# of grid points (after initial pruning)     ...  15046 (   0.0 sec)
# of grid points (after weights+screening)   ...  15004 (   0.0 sec)
nearest neighbour list constructed           ...    0.0 sec
Grid point re-assignment to atoms done       ...    0.0 sec
Grid point division into batches done        ...    0.1 sec
Reduced shell lists constructed in    0.1 sec

Total number of grid points                  ...    15004
Total number of batches                      ...      235
Average number of points per batch           ...       63
Average number of grid points per atom       ...     7502
Average number of shells per batch           ...     2.09 ( 8.71%)
Average number of basis functions per batch  ...     4.45 ( 5.86%)
Average number of large shells per batch     ...     1.36 (65.22%)
Average number of large basis fcns per batch ...     3.73 (83.67%)
Average number of aux-shells per batch       ...     2.09 ( 3.67%)
Average number of aux functions per batch    ...     4.45 ( 1.68%)
Maximum spatial batch extension              ...  41.49, 37.74, 22.16 au
Average spatial batch extension              ...   1.25,  1.14,  0.83 au

Time for grid setup =    0.151 sec

------------------------------
INITIAL GUESS: MODEL POTENTIAL
------------------------------
Loading Hartree-Fock densities                     ... done
  calling /sw/apps/orca/orca_4_2_0_linux_x86-64_openmpi314/orca Au01N0_H_atom79.inp > Au01N0_H_atom79.out in order to generate an atomic fitting density for atom 0 (Au with ECP) on-the-fly... 
    atom 0 (Au), assumed electronic state with S=2: 1s2 2s2 2p6 3s2 3p6 4s2 3d10 4p6 5s2 4d10 5p6 6s1 4f14 5d10           ... done
Calculating cut-offs                               ... done
Setting up the integral package                    ... done
Initializing the effective Hamiltonian             ... done
Starting the Coulomb interaction                   ... done (   0.0 sec)
Reading the grid                                   ... done
Mapping shells                                     ... done
Starting the XC term evaluation                    ... done (   0.0 sec)
  promolecular density results
     # of electrons  =     80.002904006
     EX              =   -367.645102636
     EC              =     -0.479764244
     EX+EC           =   -368.124866880
Transforming the Hamiltonian                       ... done (   0.0 sec)
Diagonalizing the Hamiltonian                      ... done (   0.0 sec)
Back transforming the eigenvectors                 ... done (   0.0 sec)
Now organizing SCF variables                       ... done
                      ------------------
                      INITIAL GUESS DONE (   1.1 sec)
                      ------------------
--------------
SCF ITERATIONS
--------------
ITER       Energy         Delta-E        Max-DP      RMS-DP      [F,P]     Damp
  0   -135.7157422794   0.000000000000 0.25535937  0.00467620  0.5343579 0.7000
  1   -135.6834002396   0.032342039886 0.20688498  0.00390980  0.3912464 0.7000
  2   -135.7141452480  -0.030745008461 0.14200927  0.00271980  0.2698031 0.7000
                               ***Turning on DIIS***
  3   -135.7551375827  -0.040992334652 0.09683692  0.00186897  0.1857668 0.7000
  4   -135.7833390982  -0.028201515484 0.06856982  0.00137482  0.1287251 0.7000
  5   -135.8023120374  -0.018972939198 0.18178810  0.00381178  0.0905147 0.0000
  6   -135.8000897560   0.002222281323 0.00667298  0.00032351  0.0175336 0.0000
  7   -135.8008684157  -0.000778659679 0.00484460  0.00018289  0.0063886 0.0000
  8   -135.8009993793  -0.000130963637 0.00317104  0.00009930  0.0025520 0.0000
  9   -135.8010300240  -0.000030644676 0.00234928  0.00005722  0.0010137 0.0000
 10   -135.8010344173  -0.000004393326 0.00085376  0.00002741  0.0003390 0.0000
 11   -135.8010353536  -0.000000936218 0.00031184  0.00000876  0.0001297 0.0000
 12   -135.8010354208  -0.000000067191 0.00005750  0.00000205  0.0000422 0.0000
 13   -135.8010354289  -0.000000008148 0.00005559  0.00000172  0.0000152 0.0000
 14   -135.8010354314  -0.000000002462 0.00002170  0.00000063  0.0000062 0.0000
                 **** Energy Check signals convergence ****

               *****************************************************
               *                     SUCCESS                       *
               *           SCF CONVERGED AFTER  15 CYCLES          *
               *****************************************************


----------------
TOTAL SCF ENERGY
----------------

Total Energy       :         -135.80103543 Eh           -3695.33404 eV

Components:
Nuclear Repulsion  :            6.60287771 Eh             179.67344 eV
Electronic Energy  :         -142.40391314 Eh           -3875.00748 eV
One Electron Energy:         -252.22313367 Eh           -6863.34039 eV
Two Electron Energy:          109.81922053 Eh            2988.33291 eV

Virial components:
Potential Energy   :         -182.21575728 Eh           -4958.34283 eV
Kinetic Energy     :           46.41472185 Eh            1263.00879 eV
Virial Ratio       :            3.92581815


DFT components:
N(Alpha)           :       10.000001262567 electrons
N(Beta)            :       10.000001262567 electrons
N(Total)           :       20.000002525135 electrons
E(X)               :       -3.614144572044 Eh       
E(C)               :       -0.382330772972 Eh       
E(XC)              :       -3.996475345016 Eh       
DFET-embed. en.    :        0.000000000000 Eh       

---------------
SCF CONVERGENCE
---------------

  Last Energy change         ...   -2.5227e-10  Tolerance :   1.0000e-08
  Last MAX-Density change    ...    5.9313e-06  Tolerance :   1.0000e-07
  Last RMS-Density change    ...    1.4608e-07  Tolerance :   5.0000e-09
  Last DIIS Error            ...    1.0765e-06  Tolerance :   5.0000e-07

             **** THE GBW FILE WAS UPDATED (Au01N0_H.gbw) ****
             **** DENSITY FILE WAS UPDATED (Au01N0_H.scfp) ****
             **** ENERGY FILE WAS UPDATED (Au01N0_H.en.tmp) ****
             **** THE GBW FILE WAS UPDATED (Au01N0_H.gbw) ****
             **** DENSITY FILE WAS UPDATED (Au01N0_H.scfp) ****
----------------
ORBITAL ENERGIES
----------------

  NO   OCC          E(Eh)            E(eV) 
   0   2.0000      -4.524486      -123.1175 
   1   2.0000      -2.619761       -71.2873 
   2   2.0000      -2.603464       -70.8439 
   3   2.0000      -2.603464       -70.8439 
   4   2.0000      -0.513975       -13.9860 
   5   2.0000      -0.432112       -11.7584 
   6   2.0000      -0.432112       -11.7584 
   7   2.0000      -0.414329       -11.2745 
   8   2.0000      -0.414329       -11.2745 
   9   2.0000      -0.323701        -8.8083 
  10   0.0000      -0.025201        -0.6858 
  11   0.0000       0.038284         1.0418 
  12   0.0000       0.038284         1.0418 
  13   0.0000       0.115376         3.1395 
  14   0.0000       0.150935         4.1071 
  15   0.0000       0.230303         6.2669 
  16   0.0000       0.230303         6.2669 
  17   0.0000       0.249743         6.7959 
  18   0.0000       0.277576         7.5532 
  19   0.0000       0.277576         7.5532 
  20   0.0000       0.376064        10.2332 
  21   0.0000       0.376064        10.2332 
  22   0.0000       0.443794        12.0763 
  23   0.0000       0.463512        12.6128 
  24   0.0000       0.463512        12.6128 
  25   0.0000       0.518707        14.1147 
  26   0.0000       0.560303        15.2466 
  27   0.0000       0.930433        25.3184 
  28   0.0000       0.930433        25.3184 
  29   0.0000       1.086498        29.5651 
  30   0.0000       1.206813        32.8390 
  31   0.0000       1.206813        32.8390 
  32   0.0000       1.259605        34.2756 
  33   0.0000       1.259607        34.2757 
  34   0.0000       1.278066        34.7779 
  35   0.0000       1.278066        34.7779 
  36   0.0000       1.344501        36.5857 
  37   0.0000       1.450789        39.4780 
  38   0.0000       1.450789        39.4780 
  39   0.0000       1.603511        43.6338 
  40   0.0000       1.655458        45.0473 
  41   0.0000       1.655460        45.0474 
  42   0.0000       1.780443        48.4483 
  43   0.0000       1.780443        48.4483 
  44   0.0000       2.153895        58.6105 
  45   0.0000       2.495677        67.9108 
  46   0.0000       2.774877        75.5082 
  47   0.0000       3.352658        91.2305 
  48   0.0000       3.352668        91.2307 
  49   0.0000       3.548585        96.5619 
  50   0.0000       3.548585        96.5619 
  51   0.0000       3.770905       102.6116 
  52   0.0000       3.857648       104.9720 
  53   0.0000       3.857648       104.9720 
  54   0.0000       3.900550       106.1394 
  55   0.0000       3.900551       106.1394 
  56   0.0000       3.946755       107.3967 
  57   0.0000       3.946755       107.3967 
  58   0.0000       4.047329       110.1334 
  59   0.0000       4.078682       110.9866 
  60   0.0000       4.078682       110.9866 
  61   0.0000       4.396049       119.6226 
  62   0.0000       4.396049       119.6226 
  63   0.0000       4.406374       119.9035 
  64   0.0000       4.406389       119.9039 
  65   0.0000       4.455533       121.2412 
  66   0.0000       4.455533       121.2412 
  67   0.0000       4.794178       130.4562 
  68   0.0000       5.061670       137.7350 
  69   0.0000       5.061670       137.7350 
  70   0.0000       5.747674       156.4022 
  71   0.0000      27.545041       749.5387 
  72   0.0000      27.545041       749.5387 
  73   0.0000      29.973101       815.6095 
  74   0.0000      44.486387      1210.5361 
  75   0.0000     203.479574      5536.9607 

                    ********************************
                    * MULLIKEN POPULATION ANALYSIS *
                    ********************************

-----------------------
MULLIKEN ATOMIC CHARGES
-----------------------
   0 Au:   -0.010365
   1 H :    0.010365
Sum of atomic charges:   -0.0000000

--------------------------------
MULLIKEN REDUCED ORBITAL CHARGES
--------------------------------
  0 Aus       :     3.190876  s :     3.190876
      pz      :     2.072595  p :     6.072834
      px      :     2.000119
      py      :     2.000119
      dz2     :     1.764147  d :     9.740729
      dxz     :     1.988567
      dyz     :     1.988567
      dx2y2   :     1.999724
      dxy     :     1.999724
      f0      :     0.005150  f :     0.005562
      f+1     :     0.000053
      f-1     :     0.000053
      f+2     :     0.000153
      f-2     :     0.000153
      f+3     :     0.000000
      f-3     :     0.000000
      g0      :     0.000271  g :     0.000365
      g+1     :     0.000038
      g-1     :     0.000038
      g+2     :     0.000009
      g-2     :     0.000009
      g+3     :     0.000000
      g-3     :     0.000000
      g+4     :     0.000000
      g-4     :     0.000000
  1 H s       :     0.960849  s :     0.960849
      pz      :     0.004395  p :     0.024032
      px      :     0.009819
      py      :     0.009819
      dz2     :     0.001718  d :     0.004754
      dxz     :     0.001405
      dyz     :     0.001405
      dx2y2   :     0.000113
      dxy     :     0.000113


                     *******************************
                     * LOEWDIN POPULATION ANALYSIS *
                     *******************************

----------------------
LOEWDIN ATOMIC CHARGES
----------------------
   0 Au:    0.365508
   1 H :   -0.365508

-------------------------------
LOEWDIN REDUCED ORBITAL CHARGES
-------------------------------
  0 Aus       :     2.922368  s :     2.922368
      pz      :     2.047703  p :     6.041774
      px      :     1.997035
      py      :     1.997035
      dz2     :     1.766617  d :     9.660196
      dxz     :     1.947541
      dyz     :     1.947541
      dx2y2   :     1.999248
      dxy     :     1.999248
      f0      :     0.008300  f :     0.009879
      f+1     :     0.000625
      f-1     :     0.000625
      f+2     :     0.000165
      f-2     :     0.000165
      f+3     :     0.000000
      f-3     :     0.000000
      g0      :     0.000259  g :     0.000276
      g+1     :     0.000000
      g-1     :     0.000000
      g+2     :     0.000008
      g-2     :     0.000008
      g+3     :     0.000000
      g-3     :     0.000000
      g+4     :     0.000000
      g-4     :     0.000000
  1 H s       :     1.080379  s :     1.080379
      pz      :     0.154342  p :     0.242621
      px      :     0.044140
      py      :     0.044140
      dz2     :     0.020032  d :     0.042507
      dxz     :     0.010659
      dyz     :     0.010659
      dx2y2   :     0.000579
      dxy     :     0.000579


                      *****************************
                      * MAYER POPULATION ANALYSIS *
                      *****************************

  NA   - Mulliken gross atomic population
  ZA   - Total nuclear charge
  QA   - Mulliken gross atomic charge
  VA   - Mayer's total valence
  BVA  - Mayer's bonded valence
  FA   - Mayer's free valence

  ATOM       NA         ZA         QA         VA         BVA        FA
  0 Au    19.0104    19.0000    -0.0104     1.1213     1.1213    -0.0000
  1 H      0.9896     1.0000     0.0104     1.1213     1.1213     0.0000

  Mayer bond orders larger than 0.100000
B(  0-Au,  1-H ) :   1.1213 

-------
TIMINGS
-------

Total SCF time: 0 days 0 hours 0 min 2 sec 

Total time                  ....       2.960 sec
Sum of individual times     ....       2.867 sec  ( 96.8%)

Fock matrix formation       ....       1.699 sec  ( 57.4%)
  XC integration            ....       0.291 sec  ( 17.2% of F)
    Basis function eval.    ....       0.022 sec  (  7.6% of XC)
    Density eval.           ....       0.012 sec  (  4.0% of XC)
    XC-Functional eval.     ....       0.009 sec  (  3.1% of XC)
    XC-Potential eval.      ....       0.021 sec  (  7.2% of XC)
Diagonalization             ....       0.015 sec  (  0.5%)
Density matrix formation    ....       0.004 sec  (  0.1%)
Population analysis         ....       0.004 sec  (  0.1%)
Initial guess               ....       0.983 sec  ( 33.2%)
Orbital Transformation      ....       0.000 sec  (  0.0%)
Orbital Orthonormalization  ....       0.000 sec  (  0.0%)
DIIS solution               ....       0.011 sec  (  0.4%)
Grid generation             ....       0.151 sec  (  5.1%)


           ************************************************************
           *        Program running with 24 parallel MPI-processes    *
           *              working on a common directory               *
           ************************************************************

------------------------------------------------------------------------------
                                ORCA  MP2 
------------------------------------------------------------------------------

Freezing NCore=0 chemical core electrons

----------------------
RI-MP2 ENERGY+GRADIENT
----------------------
Dimension of the basis                    ...   76
Memory devoted to MP2                     ... 5000 MB   
Data format for buffers                   ... DOUBLE
Compression type for matrix containers    ... UNCOMPRESSED
Scaling for aa/bb pairs                   ...   4.000e-01
Scaling for ab pairs                      ...   4.700e-01
Overall scaling of the MP2 energy         ...   1.000e+00
Calculating two index integrals           ... done (    0.003 sec)
Cholesky decomposition of the V-matrix    ... done
Cholesky decomposition of V**-1           ... done (    0.002 sec)

-----------------
RI-TRANSFORMATION (AUX index driven)
-----------------

Dimension of the orbital-basis         ... 76
Dimension of the aux-basis             ... 232
Transformation of internal MOs         ...    0-   9
Transformation of internal/external MOs...    0-   9 to   10-  75
Number Format for Storage              ... Double (8 Byte)
Integral mode                          ... Direct

First Phase: integral generation and transformation of MO indices
  Aux angular momentum 0               ... done (    0.000 sec)
  Aux angular momentum 1               ... done (    0.000 sec)
  Aux angular momentum 2               ... done (    0.001 sec)
  Aux angular momentum 3               ... done (    0.001 sec)
  Aux angular momentum 4               ... done (    0.001 sec)
  Aux angular momentum 5               ... done (    0.002 sec)
  Aux angular momentum 6               ... done (    0.002 sec)
Closing buffer VIJ ( 0.00 GB; CompressionRatio= 0.97)
Closing buffer VIA ( 0.00 GB; CompressionRatio= 1.00)
  Phase 1 completed in     0.099 sec
Second Phase: sorting and transformation of aux index

IJ-Transformation
Memory available                       ... 4997 MB 
Max. # MO pairs treated in a batch     ... 1    
# of internal orbitals                 ... 10
# batches for internal orbitals        ... 1
Closing buffer IJV ( 0.00 GB; CompressionRatio= 0.99)
(ij|v) transformation done in     0.001 sec

IA-Transformation
Memory available                       ... 4997 MB 
Max. # MO pairs treated in a batch     ... 1    
# of internal orbitals                 ... 10
# batches for internal orbitals        ... 1
Closing buffer IAV ( 0.00 GB; CompressionRatio= 1.00)
(ia|v) transformation done in     0.002 sec

  Phase 2 completed in     0.008 sec
RI-Integral transformation completed in     0.109 sec
Opening buffers                              ... done

Starting loop over batches of integrals:

Operator 0  - window                       ... (  0-  9)x( 10- 75)
Operator 0  - Memory available             ...  5000 MB
Operator 0  - Memory needed per MO         ...   0.2 MB
Operator 0  - Number of orbitals per batch ... 1
Operator 0  - Number of batches            ... 1

OPERATOR  0   PASS   0:  MOs     0 ...    0 +    1 ...    1 +    2 ...    2 +    3 ...    3
                            +    4 ...    4 +    5 ...    5 +    6 ...    6 +    7 ...    7
                            +    8 ...    8 +    9 ...    9
  Reading integrals       ... ok
Closing buffer GIPV ( 0.00 GB; CompressionRatio= 1.00)
Time spent in pair loops =     0.025 sec

-----------------------------------------------
 RI-MP2 CORRELATION ENERGY:     -0.314035981 Eh
-----------------------------------------------


---------------------
MP2 DENSITY FORMATION
---------------------

Completing the external part of the density      ... done
Storing the unrelaxed density                    ... done

Calculating the xc-kernel                        ... done
Calculating G(D)                                 ... done
Completing the Lagrangian                        ... done
Solving the Z-vector equations                   ... 

------------------------------------------------------------------------------
                           ORCA CP-SCF CALCULATION
------------------------------------------------------------------------------

Input orbitals are from        ... Au01N0_H.gbw
Input Perturbation             ... Au01N0_H.pin.tmp
Wavefunction output            ... Au01N0_H.pout.tmp
Perturbation mode              ... Real perturbation (singlet)
Solver                         ... POPLE
Max. number of iterations      ... 128
Convergence tolerance          ... 1.000e-08
Integral handling              ... Direct
Number of perturbations        ... 1
Number of operators            ... 1
Orbital ranges used for CP-SCF:
 Operator 0:  Orbitals   0...  9  to  10... 75
DFT calculation                         ... on
Exchange functional (SCF)               ... B88
Exchange functional (CP-SCF)            ... B88
   X-Alpha parameter    XAlpha (SCF)    ...  0.666667
   X-Alpha parameter    XAlpha (CP-SCF) ...  0.666667
   Becke's b parameter  XBeta (SCF)     ...  0.004200
   Becke's b parameter  XBeta (CP-SCF)  ...  0.004200
Correlation functional (SCF)            ... LYP
Correlation functional (CP-SCF)         ... LYP
 LDA part of GGA corr.  LDAOpt (SCF)    ... VWN-5
 LDA part of GGA corr.  LDAOpt (CP-SCF) ... VWN-5
Hybrid DFT                              ... on
   Exchange mixing (SCF)                ...  0.710
   Exchange mixing (CP-SCF)             ...  0.710
   GGA exch. scaling(SCF)               ...  0.290
   GGA exch. scaling (CP-SCF)           ...  0.290
   GGA corr. scaling (SCF)              ...  0.540
   GGA corr. scaling (CP-SCF)           ...  0.540
Variables per vector in CP-SCF ... 660
Number of vectors sought       ... 1
Recalculating density on grid  ... done
Calculating the xc-kernel      ... done
     CP-SCF ITERATION   0: 
     CP-SCF ITERATION   1:      0.001511016302
     CP-SCF ITERATION   2:      0.000167159483
     CP-SCF ITERATION   3:      0.000015220272
     CP-SCF ITERATION   4:      0.000001896111
     CP-SCF ITERATION   5:      0.000000093566
     CP-SCF ITERATION   6:      0.000000000590
done
Finalizing the relaxed density                   ... done
Transforming P to the AO basis                   ... done
Storing the relaxed density                      ... done

------------------------------------
ENERGY WEIGHTED DENSITY FINALIZATION
------------------------------------

Gathering the parts of the W-matrix              ... done
Forming the Z-density                            ... done
Transforming Z to the AO basis                   ... done
Calculating G(Z)                                 ... done
Finalizing the W-matrix                          ... done
Transforming W to the AO basis and storing       ... done
Entering the RIJONX and RIJCOSX sections
Starting the three-index derivative integrals:
Operator 0  - Memory available             ...  5000 MB
Operator 0  - Memory needed per MO         ...   0.3 MB
Operator 0  - Number of orbitals per batch ... 1
Operator 0  - Number of batches            ... 1

OPERATOR  0   PASS   0:  MOs     0 ...    0 +    1 ...    1 +    2 ...    2 +    3 ...    3
                            +    4 ...    4 +    5 ...    5 +    6 ...    6 +    7 ...    7
                            +    8 ...    8 +    9 ...    9

----------------------------------
MP2 DERIVATIVE INTEGRAL GENERATION
----------------------------------


Input Correlated Electron Density   ... Au01N0_H.pmp2re
Input Energy Weighted Density       ... Au01N0_H.wmp2.tmp
Input SCF Electron Density          ... Au01N0_H.scfp

One-Electron Terms    ...
  ECP gradient                                           ... One-Electron Terms done
Prescreening matrices              ... done
Exchange-correlation gradient    ... done
Dispersion correction            ... done

                *********************************************
                * UNRELAXED MP2 DENSITY POPULATION ANALYSIS *
                *********************************************

------------------------------------------------------------------------------
                           ORCA POPULATION ANALYSIS
------------------------------------------------------------------------------
Input electron density              ... Au01N0_H.pmp2ur
BaseName (.gbw .S,...)              ... Au01N0_H

                    ********************************
                    * MULLIKEN POPULATION ANALYSIS *
                    ********************************

-----------------------
MULLIKEN ATOMIC CHARGES
-----------------------
   0 Au:   -0.012740
   1 H :    0.012740
Sum of atomic charges:   -0.0000000

--------------------------------
MULLIKEN REDUCED ORBITAL CHARGES
--------------------------------
  0 Aus       :     3.178814  s :     3.178814
      pz      :     2.076058  p :     6.095733
      px      :     2.009837
      py      :     2.009837
      dz2     :     1.748880  d :     9.662848
      dxz     :     1.972752
      dyz     :     1.972752
      dx2y2   :     1.984232
      dxy     :     1.984232
      f0      :     0.013817  f :     0.069965
      f+1     :     0.009116
      f-1     :     0.009116
      f+2     :     0.009523
      f-2     :     0.009523
      f+3     :     0.009435
      f-3     :     0.009435
      g0      :     0.000833  g :     0.005380
      g+1     :     0.000600
      g-1     :     0.000600
      g+2     :     0.000571
      g-2     :     0.000571
      g+3     :     0.000559
      g-3     :     0.000559
      g+4     :     0.000544
      g-4     :     0.000544
  1 H s       :     0.954536  s :     0.954536
      pz      :     0.004027  p :     0.027673
      px      :     0.011823
      py      :     0.011823
      dz2     :     0.001765  d :     0.005051
      dxz     :     0.001473
      dyz     :     0.001473
      dx2y2   :     0.000170
      dxy     :     0.000170


                     *******************************
                     * LOEWDIN POPULATION ANALYSIS *
                     *******************************

----------------------
LOEWDIN ATOMIC CHARGES
----------------------
   0 Au:    0.363575
   1 H :   -0.363575

-------------------------------
LOEWDIN REDUCED ORBITAL CHARGES
-------------------------------
  0 Aus       :     2.912066  s :     2.912066
      pz      :     2.050596  p :     6.062321
      px      :     2.005862
      py      :     2.005862
      dz2     :     1.751213  d :     9.582316
      dxz     :     1.931799
      dyz     :     1.931799
      dx2y2   :     1.983753
      dxy     :     1.983753
      f0      :     0.017473  f :     0.074415
      f+1     :     0.009520
      f-1     :     0.009520
      f+2     :     0.009515
      f-2     :     0.009515
      f+3     :     0.009435
      f-3     :     0.009435
      g0      :     0.000840  g :     0.005307
      g+1     :     0.000561
      g-1     :     0.000561
      g+2     :     0.000569
      g-2     :     0.000569
      g+3     :     0.000559
      g-3     :     0.000559
      g+4     :     0.000544
      g-4     :     0.000544
  1 H s       :     1.069920  s :     1.069920
      pz      :     0.156374  p :     0.250479
      px      :     0.047052
      py      :     0.047052
      dz2     :     0.020248  d :     0.043176
      dxz     :     0.010806
      dyz     :     0.010806
      dx2y2   :     0.000658
      dxy     :     0.000658


                      *****************************
                      * MAYER POPULATION ANALYSIS *
                      *****************************

  NA   - Mulliken gross atomic population
  ZA   - Total nuclear charge
  QA   - Mulliken gross atomic charge
  VA   - Mayer's total valence
  BVA  - Mayer's bonded valence
  FA   - Mayer's free valence

  ATOM       NA         ZA         QA         VA         BVA        FA
  0 Au    19.0127    19.0000    -0.0127     1.6985     1.0737     0.6248
  1 H      0.9873     1.0000     0.0127     1.1316     1.0737     0.0580

  Mayer bond orders larger than 0.100000
B(  0-Au,  1-H ) :   1.0737 


                *******************************************
                * RELAXED MP2 DENSITY POPULATION ANALYSIS *
                *******************************************

------------------------------------------------------------------------------
                           ORCA POPULATION ANALYSIS
------------------------------------------------------------------------------
Input electron density              ... Au01N0_H.pmp2re
BaseName (.gbw .S,...)              ... Au01N0_H

                    ********************************
                    * MULLIKEN POPULATION ANALYSIS *
                    ********************************

-----------------------
MULLIKEN ATOMIC CHARGES
-----------------------
   0 Au:   -0.090785
   1 H :    0.090785
Sum of atomic charges:   -0.0000000

--------------------------------
MULLIKEN REDUCED ORBITAL CHARGES
--------------------------------
  0 Aus       :     3.320474  s :     3.320474
      pz      :     2.050980  p :     6.070273
      px      :     2.009647
      py      :     2.009647
      dz2     :     1.719763  d :     9.625814
      dxz     :     1.968745
      dyz     :     1.968745
      dx2y2   :     1.984280
      dxy     :     1.984280
      f0      :     0.012960  f :     0.068803
      f+1     :     0.009036
      f-1     :     0.009036
      f+2     :     0.009450
      f-2     :     0.009450
      f+3     :     0.009435
      f-3     :     0.009435
      g0      :     0.000851  g :     0.005420
      g+1     :     0.000609
      g-1     :     0.000609
      g+2     :     0.000572
      g-2     :     0.000572
      g+3     :     0.000559
      g-3     :     0.000559
      g+4     :     0.000544
      g-4     :     0.000544
  1 H s       :     0.868533  s :     0.868533
      pz      :     0.003382  p :     0.035347
      px      :     0.015983
      py      :     0.015983
      dz2     :     0.001788  d :     0.005335
      dxz     :     0.001581
      dyz     :     0.001581
      dx2y2   :     0.000192
      dxy     :     0.000192


                     *******************************
                     * LOEWDIN POPULATION ANALYSIS *
                     *******************************

----------------------
LOEWDIN ATOMIC CHARGES
----------------------
   0 Au:    0.346742
   1 H :   -0.346742

-------------------------------
LOEWDIN REDUCED ORBITAL CHARGES
-------------------------------
  0 Aus       :     2.994783  s :     2.994783
      pz      :     2.018967  p :     6.030333
      px      :     2.005683
      py      :     2.005683
      dz2     :     1.726840  d :     9.550057
      dxz     :     1.927821
      dyz     :     1.927821
      dx2y2   :     1.983788
      dxy     :     1.983788
      f0      :     0.016400  f :     0.072775
      f+1     :     0.009312
      f-1     :     0.009312
      f+2     :     0.009441
      f-2     :     0.009441
      f+3     :     0.009435
      f-3     :     0.009435
      g0      :     0.000839  g :     0.005310
      g+1     :     0.000562
      g-1     :     0.000562
      g+2     :     0.000571
      g-2     :     0.000571
      g+3     :     0.000559
      g-3     :     0.000559
      g+4     :     0.000544
      g-4     :     0.000544
  1 H s       :     1.031308  s :     1.031308
      pz      :     0.169898  p :     0.272375
      px      :     0.051239
      py      :     0.051239
      dz2     :     0.019696  d :     0.043058
      dxz     :     0.010985
      dyz     :     0.010985
      dx2y2   :     0.000696
      dxy     :     0.000696


                      *****************************
                      * MAYER POPULATION ANALYSIS *
                      *****************************

  NA   - Mulliken gross atomic population
  ZA   - Total nuclear charge
  QA   - Mulliken gross atomic charge
  VA   - Mayer's total valence
  BVA  - Mayer's bonded valence
  FA   - Mayer's free valence

  ATOM       NA         ZA         QA         VA         BVA        FA
  0 Au    19.0908    19.0000    -0.0908     1.6718     1.0748     0.5971
  1 H      0.9092     1.0000     0.0908     1.1204     1.0748     0.0456

  Mayer bond orders larger than 0.100000
B(  0-Au,  1-H ) :   1.0748 


-------
TIMINGS
-------

Total time                :    2.866 sec
Integral trafo            :    0.121 sec (  4.2%)
I/O of integrals          :    0.000 sec (  0.0%)
K(i,j) Operators          :    0.000 sec (  0.0%)
T(i,j) pair energies      :    0.000 sec (  0.0%)
V-calculation             :    0.003 sec (  0.1%)
V**(-1/2)                 :    0.002 sec (  0.1%)
Gamma(ia|P)               :    0.000 sec (  0.0%)
Gamma-Trafo               :    0.001 sec (  0.0%)
D(virtual)                :    0.000 sec (  0.0%)
D(internal)               :    0.000 sec (  0.0%)
W(virtual)                :    0.000 sec (  0.0%)
W(internal)               :    0.001 sec (  0.0%)
L(virtual)                :    0.018 sec (  0.6%)
L(internal)               :    0.000 sec (  0.0%)
G(D)                      :    0.263 sec (  9.2%)
G(Z)                      :    0.248 sec (  8.6%)
Z-Vector Solution         :    1.509 sec ( 52.7%)
Z-Vector Solution         :    1.509 sec ( 52.7%)
3-Index Derivative 
+ Separable RIJ part      :    0.051 sec (  1.8%)
2-Index Derivative 
+ Separable RIJ part      :    0.001 sec (  0.0%)
Separable Gradient (X)    :    0.560 sec ( 19.6%)


---------------------------------------
MP2 TOTAL ENERGY:     -136.115071413 Eh
---------------------------------------

-----------------------------------
NORM OF THE MP2 GRADIENT:  0.002019
-----------------------------------


-------------------------------------------------------------------------------
                          DFT DISPERSION CORRECTION                            
                                                                               
                              DFTD3 V3.1  Rev 1                                
                          USING Becke-Johnson damping                          
-------------------------------------------------------------------------------
The DSD-BLYP/2013 functional is recognized
Active option DFTDOPT                   ...         4   

molecular C6(AA) [au] = 382.853542 


            DFT-D V3
 parameters
 s6 scaling factor         :     0.5700 
 a1 scaling factor         :     0.0000 
 s8 scaling factor         :     0.0000 
 a2 scaling factor         :     5.4000 
 ad hoc parameters k1-k3   :    16.0000     1.3333    -4.0000 

 Edisp/kcal,au: -0.438051558348  -0.000698079519 
 E6   /kcal   :  -0.438051558 
 E8   /kcal   :  -0.000000000 
 % E8         :   0.000000000 

-------------------------   ----------------
Dispersion correction           -0.000698080
-------------------------   ----------------


-------------------------   --------------------
FINAL SINGLE POINT ENERGY      -136.115769492273
-------------------------   --------------------

------------------------------------------------------------------------------
                         ORCA GEOMETRY RELAXATION STEP
------------------------------------------------------------------------------

Reading the OPT-File                    .... done
Getting information on internals        .... done
Copying old internal coords+grads       .... done
Making the new internal coordinates     .... (new redundants).... done
Validating the new internal coordinates .... (new redundants).... done
Calculating the B-matrix                .... done
Calculating the G,G- and P matrices     .... done
Transforming gradient to internals      .... done
Projecting the internal gradient        .... done
Number of atoms                         ....   2
Number of internal coordinates          ....   1
Current Energy                          ....  -136.115769492 Eh
Current gradient norm                   ....     0.002018514 Eh/bohr
Maximum allowed component of the step   ....  0.300
Current trust radius                    ....  0.300
Evaluating the initial hessian          ....  (Almloef) done
Projecting the Hessian                  .... done
Forming the augmented Hessian           .... done
Diagonalizing the augmented Hessian     .... done
Last element of RFO vector              ....  0.999902611
Lowest eigenvalues of augmented Hessian:
 -0.000019921
Length of the computed step             ....  0.013957338
The final length of the internal step   ....  0.013957338
Converting the step to cartesian space:
 Initial RMS(Int)=    0.0139573378
Transforming coordinates:
 Iter   0:  RMS(Cart)=    0.0040291364 RMS(Int)=    0.0139573378
 Iter   1:  RMS(Cart)=    0.0000000000 RMS(Int)=    0.0000000000
done
Storing new coordinates                 .... done

                                .--------------------.
          ----------------------|Geometry convergence|-------------------------
          Item                value                   Tolerance       Converged
          ---------------------------------------------------------------------
          RMS gradient        0.0014272973            0.0001000000      NO
          MAX gradient        0.0014272973            0.0003000000      NO
          RMS step            0.0139573378            0.0020000000      NO
          MAX step            0.0139573378            0.0040000000      NO
          ........................................................
          Max(Bonds)      0.0074      Max(Angles)    0.00
          Max(Dihed)        0.00      Max(Improp)    0.00
          ---------------------------------------------------------------------

The optimization has not yet converged - more geometry cycles are needed


    ---------------------------------------------------------------------------
                         Redundant Internal Coordinates
                            (Angstroem and degrees)

        Definition                    Value    dE/dq     Step     New-Value
    ----------------------------------------------------------------------------
     1. B(H   1,Au  0)                1.5227  0.001427 -0.0074    1.5153   
    ----------------------------------------------------------------------------

         *************************************************************
         *                GEOMETRY OPTIMIZATION CYCLE   2            *
         *************************************************************
---------------------------------
CARTESIAN COORDINATES (ANGSTROEM)
---------------------------------
  Au     0.000000    0.000000    0.015341
  H      0.000000    0.000000   -1.499998

----------------------------
CARTESIAN COORDINATES (A.U.)
----------------------------
  NO LB      ZA    FRAG     MASS         X           Y           Z
   0 Au   19.0000*   0   196.966    0.000000    0.000000    0.028990
   1 H     1.0000    0     1.008    0.000000    0.000000   -2.834586
* core charge reduced due to ECP

--------------------------------
INTERNAL COORDINATES (ANGSTROEM)
--------------------------------
 Au     0   0   0     0.000000000000     0.00000000     0.00000000
 H      1   0   0     1.515339094970     0.00000000     0.00000000

---------------------------
INTERNAL COORDINATES (A.U.)
---------------------------
 Au     0   0   0     0.000000000000     0.00000000     0.00000000
 H      1   0   0     2.863575889518     0.00000000     0.00000000



           ************************************************************
           *        Program running with 24 parallel MPI-processes    *
           *              working on a common directory               *
           ************************************************************
 One Electron integrals                  ... done
 Pre-screening matrix                    ... done


           ************************************************************
           *        Program running with 24 parallel MPI-processes    *
           *              working on a common directory               *
           ************************************************************

Diagonalization of the overlap matrix:
Smallest eigenvalue                        ... 2.304e-03
Time for diagonalization                   ...    0.003 sec
Threshold for overlap eigenvalues          ... 1.000e-08
Number of eigenvalues below threshold      ... 0
Time for construction of square roots      ...    0.001 sec
Total time needed                          ...    0.004 sec

-------------------
DFT GRID GENERATION
-------------------

General Integration Accuracy     IntAcc      ...  4.670
Radial Grid Type                 RadialGrid  ... Gauss-Chebyshev
Angular Grid (max. acc.)         AngularGrid ... Lebedev-302
Angular grid pruning method      GridPruning ... 3 (G Style)
Weight generation scheme         WeightScheme... Becke
Basis function cutoff            BFCut       ...    1.0000e-11
Integration weight cutoff        WCut        ...    1.0000e-14
Grids for H and He will be reduced by one unit

# of grid points (after initial pruning)     ...  15046 (   0.0 sec)
# of grid points (after weights+screening)   ...  15004 (   0.0 sec)
nearest neighbour list constructed           ...    0.0 sec
Grid point re-assignment to atoms done       ...    0.0 sec
Grid point division into batches done        ...    0.1 sec
Reduced shell lists constructed in    0.1 sec

Total number of grid points                  ...    15004
Total number of batches                      ...      236
Average number of points per batch           ...       63
Average number of grid points per atom       ...     7502
Average number of shells per batch           ...     2.09 ( 8.71%)
Average number of basis functions per batch  ...     4.45 ( 5.86%)
Average number of large shells per batch     ...     1.36 (65.22%)
Average number of large basis fcns per batch ...     3.73 (83.67%)
Average number of aux-shells per batch       ...     2.09 ( 3.67%)
Average number of aux functions per batch    ...     4.45 ( 1.68%)
Maximum spatial batch extension              ...  41.49, 37.74, 22.16 au
Average spatial batch extension              ...   1.24,  1.16,  0.83 au

Time for grid setup =    0.150 sec

--------------
SCF ITERATIONS
--------------
ITER       Energy         Delta-E        Max-DP      RMS-DP      [F,P]     Damp
  0   -135.8008392145   0.000000000000 0.00053435  0.00001292  0.0250099 0.7000
  1   -135.8009273432  -0.000088128780 0.00069428  0.00001570  0.0175831 0.7000
                               ***Turning on DIIS***
  2   -135.8008868652   0.000040478040 0.00226118  0.00004991  0.0123136 0.0000
  3   -135.8008492527   0.000037612507 0.00052783  0.00001787  0.0002895 0.0000
  4   -135.8008495647  -0.000000312042 0.00008870  0.00000369  0.0002233 0.0000
  5   -135.8008496585  -0.000000093788 0.00023163  0.00000738  0.0000683 0.0000
  6   -135.8008497182  -0.000000059651 0.00014708  0.00000472  0.0000372 0.0000
  7   -135.8008497337  -0.000000015493 0.00004582  0.00000119  0.0000102 0.0000
  8   -135.8008497345  -0.000000000809 0.00000812  0.00000025  0.0000055 0.0000
                 **** Energy Check signals convergence ****

               *****************************************************
               *                     SUCCESS                       *
               *           SCF CONVERGED AFTER   9 CYCLES          *
               *****************************************************

Total Energy       :         -135.80084973 Eh           -3695.32899 eV
  Last Energy change         ...   -1.0738e-10  Tolerance :   1.0000e-08
  Last MAX-Density change    ...    2.3861e-06  Tolerance :   1.0000e-07
             **** THE GBW FILE WAS UPDATED (Au01N0_H.gbw) ****
             **** DENSITY FILE WAS UPDATED (Au01N0_H.scfp) ****
             **** ENERGY FILE WAS UPDATED (Au01N0_H.en.tmp) ****
             **** THE GBW FILE WAS UPDATED (Au01N0_H.gbw) ****
             **** DENSITY FILE WAS UPDATED (Au01N0_H.scfp) ****
Total SCF time: 0 days 0 hours 0 min 1 sec 


           ************************************************************
           *        Program running with 24 parallel MPI-processes    *
           *              working on a common directory               *
           ************************************************************

------------------------------------------------------------------------------
                                ORCA  MP2 
------------------------------------------------------------------------------

Freezing NCore=0 chemical core electrons

----------------------
RI-MP2 ENERGY+GRADIENT
----------------------
Dimension of the basis                    ...   76
Memory devoted to MP2                     ... 5000 MB   
Data format for buffers                   ... DOUBLE
Compression type for matrix containers    ... UNCOMPRESSED
Scaling for aa/bb pairs                   ...   4.000e-01
Scaling for ab pairs                      ...   4.700e-01
Overall scaling of the MP2 energy         ...   1.000e+00
Calculating two index integrals           ... done (    0.004 sec)
Cholesky decomposition of the V-matrix    ... done
Cholesky decomposition of V**-1           ... done (    0.002 sec)

-----------------
RI-TRANSFORMATION (AUX index driven)
-----------------

Dimension of the orbital-basis         ... 76
Dimension of the aux-basis             ... 232
Transformation of internal MOs         ...    0-   9
Transformation of internal/external MOs...    0-   9 to   10-  75
Number Format for Storage              ... Double (8 Byte)
Integral mode                          ... Direct

First Phase: integral generation and transformation of MO indices
  Aux angular momentum 0               ... done (    0.000 sec)
  Aux angular momentum 1               ... done (    0.000 sec)
  Aux angular momentum 2               ... done (    0.001 sec)
  Aux angular momentum 3               ... done (    0.001 sec)
  Aux angular momentum 4               ... done (    0.001 sec)
  Aux angular momentum 5               ... done (    0.002 sec)
  Aux angular momentum 6               ... done (    0.002 sec)
Closing buffer VIJ ( 0.00 GB; CompressionRatio= 0.97)
Closing buffer VIA ( 0.00 GB; CompressionRatio= 1.00)
  Phase 1 completed in     0.078 sec
Second Phase: sorting and transformation of aux index

IJ-Transformation
Memory available                       ... 4997 MB 
Max. # MO pairs treated in a batch     ... 1    
# of internal orbitals                 ... 10
# batches for internal orbitals        ... 1
Closing buffer IJV ( 0.00 GB; CompressionRatio= 0.99)
(ij|v) transformation done in     0.001 sec

IA-Transformation
Memory available                       ... 4997 MB 
Max. # MO pairs treated in a batch     ... 1    
# of internal orbitals                 ... 10
# batches for internal orbitals        ... 1
Closing buffer IAV ( 0.00 GB; CompressionRatio= 1.00)
(ia|v) transformation done in     0.002 sec

  Phase 2 completed in     0.008 sec
RI-Integral transformation completed in     0.088 sec
Opening buffers                              ... done

Starting loop over batches of integrals:

Operator 0  - window                       ... (  0-  9)x( 10- 75)
Operator 0  - Memory available             ...  5000 MB
Operator 0  - Memory needed per MO         ...   0.2 MB
Operator 0  - Number of orbitals per batch ... 1
Operator 0  - Number of batches            ... 1

OPERATOR  0   PASS   0:  MOs     0 ...    0 +    1 ...    1 +    2 ...    2 +    3 ...    3
                            +    4 ...    4 +    5 ...    5 +    6 ...    6 +    7 ...    7
                            +    8 ...    8 +    9 ...    9
  Reading integrals       ... ok
Closing buffer GIPV ( 0.00 GB; CompressionRatio= 1.00)
Time spent in pair loops =     0.025 sec

-----------------------------------------------
 RI-MP2 CORRELATION ENERGY:     -0.314221589 Eh
-----------------------------------------------


---------------------
MP2 DENSITY FORMATION
---------------------

Completing the external part of the density      ... done
Storing the unrelaxed density                    ... done

Calculating the xc-kernel                        ... done
Calculating G(D)                                 ... done
Completing the Lagrangian                        ... done
Solving the Z-vector equations                   ... 

------------------------------------------------------------------------------
                           ORCA CP-SCF CALCULATION
------------------------------------------------------------------------------

Input orbitals are from        ... Au01N0_H.gbw
Input Perturbation             ... Au01N0_H.pin.tmp
Wavefunction output            ... Au01N0_H.pout.tmp
Perturbation mode              ... Real perturbation (singlet)
Solver                         ... POPLE
Max. number of iterations      ... 128
Convergence tolerance          ... 1.000e-08
Integral handling              ... Direct
Number of perturbations        ... 1
Number of operators            ... 1
Orbital ranges used for CP-SCF:
 Operator 0:  Orbitals   0...  9  to  10... 75
DFT calculation                         ... on
Exchange functional (SCF)               ... B88
Exchange functional (CP-SCF)            ... B88
   X-Alpha parameter    XAlpha (SCF)    ...  0.666667
   X-Alpha parameter    XAlpha (CP-SCF) ...  0.666667
   Becke's b parameter  XBeta (SCF)     ...  0.004200
   Becke's b parameter  XBeta (CP-SCF)  ...  0.004200
Correlation functional (SCF)            ... LYP
Correlation functional (CP-SCF)         ... LYP
 LDA part of GGA corr.  LDAOpt (SCF)    ... VWN-5
 LDA part of GGA corr.  LDAOpt (CP-SCF) ... VWN-5
Hybrid DFT                              ... on
   Exchange mixing (SCF)                ...  0.710
   Exchange mixing (CP-SCF)             ...  0.710
   GGA exch. scaling(SCF)               ...  0.290
   GGA exch. scaling (CP-SCF)           ...  0.290
   GGA corr. scaling (SCF)              ...  0.540
   GGA corr. scaling (CP-SCF)           ...  0.540
Variables per vector in CP-SCF ... 660
Number of vectors sought       ... 1
Recalculating density on grid  ... done
Calculating the xc-kernel      ... done
     CP-SCF ITERATION   0: 
     CP-SCF ITERATION   1:      0.001490835831
     CP-SCF ITERATION   2:      0.000163386872
     CP-SCF ITERATION   3:      0.000014798412
     CP-SCF ITERATION   4:      0.000001853012
     CP-SCF ITERATION   5:      0.000000092227
     CP-SCF ITERATION   6:      0.000000000582
done
Finalizing the relaxed density                   ... done
Transforming P to the AO basis                   ... done
Storing the relaxed density                      ... done

------------------------------------
ENERGY WEIGHTED DENSITY FINALIZATION
------------------------------------

Gathering the parts of the W-matrix              ... done
Forming the Z-density                            ... done
Transforming Z to the AO basis                   ... done
Calculating G(Z)                                 ... done
Finalizing the W-matrix                          ... done
Transforming W to the AO basis and storing       ... done
Entering the RIJONX and RIJCOSX sections
Starting the three-index derivative integrals:
Operator 0  - Memory available             ...  5000 MB
Operator 0  - Memory needed per MO         ...   0.3 MB
Operator 0  - Number of orbitals per batch ... 1
Operator 0  - Number of batches            ... 1

OPERATOR  0   PASS   0:  MOs     0 ...    0 +    1 ...    1 +    2 ...    2 +    3 ...    3
                            +    4 ...    4 +    5 ...    5 +    6 ...    6 +    7 ...    7
                            +    8 ...    8 +    9 ...    9

----------------------------------
MP2 DERIVATIVE INTEGRAL GENERATION
----------------------------------


Input Correlated Electron Density   ... Au01N0_H.pmp2re
Input Energy Weighted Density       ... Au01N0_H.wmp2.tmp
Input SCF Electron Density          ... Au01N0_H.scfp

One-Electron Terms    ...
  ECP gradient                                           ... One-Electron Terms done
Prescreening matrices              ... done
Exchange-correlation gradient    ... done
Dispersion correction            ... done

-------
TIMINGS
-------

Total time                :    2.985 sec
Integral trafo            :    0.100 sec (  3.4%)
I/O of integrals          :    0.000 sec (  0.0%)
K(i,j) Operators          :    0.000 sec (  0.0%)
T(i,j) pair energies      :    0.000 sec (  0.0%)
V-calculation             :    0.004 sec (  0.1%)
V**(-1/2)                 :    0.002 sec (  0.1%)
Gamma(ia|P)               :    0.000 sec (  0.0%)
Gamma-Trafo               :    0.001 sec (  0.0%)
D(virtual)                :    0.000 sec (  0.0%)
D(internal)               :    0.000 sec (  0.0%)
W(virtual)                :    0.000 sec (  0.0%)
W(internal)               :    0.001 sec (  0.0%)
L(virtual)                :    0.018 sec (  0.6%)
L(internal)               :    0.000 sec (  0.0%)
G(D)                      :    0.267 sec (  8.9%)
G(Z)                      :    0.248 sec (  8.3%)
Z-Vector Solution         :    1.620 sec ( 54.3%)
Z-Vector Solution         :    1.620 sec ( 54.3%)
3-Index Derivative 
+ Separable RIJ part      :    0.052 sec (  1.7%)
2-Index Derivative 
+ Separable RIJ part      :    0.001 sec (  0.0%)
Separable Gradient (X)    :    0.573 sec ( 19.2%)


---------------------------------------
MP2 TOTAL ENERGY:     -136.115071324 Eh
---------------------------------------

-----------------------------------
NORM OF THE MP2 GRADIENT:  0.002051
-----------------------------------


-------------------------------------------------------------------------------
                          DFT DISPERSION CORRECTION                            
                                                                               
                              DFTD3 V3.1  Rev 1                                
                          USING Becke-Johnson damping                          
-------------------------------------------------------------------------------
-------------------------   ----------------
Dispersion correction           -0.000698453
-------------------------   ----------------


-------------------------   --------------------
FINAL SINGLE POINT ENERGY      -136.115769776293
-------------------------   --------------------

------------------------------------------------------------------------------
                         ORCA GEOMETRY RELAXATION STEP
------------------------------------------------------------------------------

Reading the OPT-File                    .... done
Getting information on internals        .... done
Copying old internal coords+grads       .... done
Making the new internal coordinates     .... (new redundants).... done
Validating the new internal coordinates .... (new redundants).... done
Calculating the B-matrix                .... done
Calculating the G,G- and P matrices     .... done
Transforming gradient to internals      .... done
Projecting the internal gradient        .... done
Number of atoms                         ....   2
Number of internal coordinates          ....   1
Current Energy                          ....  -136.115769776 Eh
Current gradient norm                   ....     0.002050524 Eh/bohr
Maximum allowed component of the step   ....  0.300
Current trust radius                    ....  0.300
Updating the Hessian (BFGS)             .... done
Forming the augmented Hessian           .... done
Diagonalizing the augmented Hessian     .... done
Last element of RFO vector              ....  0.999975268
Lowest eigenvalues of augmented Hessian:
 -0.000010198
Length of the computed step             ....  0.007033220
The final length of the internal step   ....  0.007033220
Converting the step to cartesian space:
 Initial RMS(Int)=    0.0070332204
Transforming coordinates:
 Iter   0:  RMS(Cart)=    0.0020303158 RMS(Int)=    0.0070332204
 Iter   1:  RMS(Cart)=    0.0000000000 RMS(Int)=    0.0000000000
done
Storing new coordinates                 .... done

                                .--------------------.
          ----------------------|Geometry convergence|-------------------------
          Item                value                   Tolerance       Converged
          ---------------------------------------------------------------------
          Energy change      -0.0000002840            0.0000050000      YES
          RMS gradient        0.0014499317            0.0001000000      NO
          MAX gradient        0.0014499317            0.0003000000      NO
          RMS step            0.0070332204            0.0020000000      NO
          MAX step            0.0070332204            0.0040000000      NO
          ........................................................
          Max(Bonds)      0.0037      Max(Angles)    0.00
          Max(Dihed)        0.00      Max(Improp)    0.00
          ---------------------------------------------------------------------

The optimization has not yet converged - more geometry cycles are needed


    ---------------------------------------------------------------------------
                         Redundant Internal Coordinates
                            (Angstroem and degrees)

        Definition                    Value    dE/dq     Step     New-Value
    ----------------------------------------------------------------------------
     1. B(H   1,Au  0)                1.5153 -0.001450  0.0037    1.5191   
    ----------------------------------------------------------------------------

         *************************************************************
         *                GEOMETRY OPTIMIZATION CYCLE   3            *
         *************************************************************
---------------------------------
CARTESIAN COORDINATES (ANGSTROEM)
---------------------------------
  Au     0.000000    0.000000    0.017202
  H      0.000000    0.000000   -1.501859

----------------------------
CARTESIAN COORDINATES (A.U.)
----------------------------
  NO LB      ZA    FRAG     MASS         X           Y           Z
   0 Au   19.0000*   0   196.966    0.000000    0.000000    0.032507
   1 H     1.0000    0     1.008    0.000000    0.000000   -2.838102
* core charge reduced due to ECP

--------------------------------
INTERNAL COORDINATES (ANGSTROEM)
--------------------------------
 Au     0   0   0     0.000000000000     0.00000000     0.00000000
 H      1   0   0     1.519060914889     0.00000000     0.00000000

---------------------------
INTERNAL COORDINATES (A.U.)
---------------------------
 Au     0   0   0     0.000000000000     0.00000000     0.00000000
 H      1   0   0     2.870609109883     0.00000000     0.00000000



           ************************************************************
           *        Program running with 24 parallel MPI-processes    *
           *              working on a common directory               *
           ************************************************************
 One Electron integrals                  ... done
 Pre-screening matrix                    ... done


           ************************************************************
           *        Program running with 24 parallel MPI-processes    *
           *              working on a common directory               *
           ************************************************************

Diagonalization of the overlap matrix:
Smallest eigenvalue                        ... 2.338e-03
Time for diagonalization                   ...    0.003 sec
Threshold for overlap eigenvalues          ... 1.000e-08
Number of eigenvalues below threshold      ... 0
Time for construction of square roots      ...    0.001 sec
Total time needed                          ...    0.004 sec

-------------------
DFT GRID GENERATION
-------------------

General Integration Accuracy     IntAcc      ...  4.670
Radial Grid Type                 RadialGrid  ... Gauss-Chebyshev
Angular Grid (max. acc.)         AngularGrid ... Lebedev-302
Angular grid pruning method      GridPruning ... 3 (G Style)
Weight generation scheme         WeightScheme... Becke
Basis function cutoff            BFCut       ...    1.0000e-11
Integration weight cutoff        WCut        ...    1.0000e-14
Grids for H and He will be reduced by one unit

# of grid points (after initial pruning)     ...  15046 (   0.0 sec)
# of grid points (after weights+screening)   ...  15004 (   0.0 sec)
nearest neighbour list constructed           ...    0.0 sec
Grid point re-assignment to atoms done       ...    0.0 sec
Grid point division into batches done        ...    0.1 sec
Reduced shell lists constructed in    0.1 sec

Total number of grid points                  ...    15004
Total number of batches                      ...      235
Average number of points per batch           ...       63
Average number of grid points per atom       ...     7502
Average number of shells per batch           ...     2.09 ( 8.71%)
Average number of basis functions per batch  ...     4.45 ( 5.86%)
[...]
      pz      :     2.050790  p :     6.070125
      px      :     2.009668
      py      :     2.009668
      dz2     :     1.718395  d :     9.624108
      dxz     :     1.968584
      dyz     :     1.968584
      dx2y2   :     1.984273
      dxy     :     1.984272
      f0      :     0.012980  f :     0.068832
      f+1     :     0.009036
      f-1     :     0.009036
      f+2     :     0.009453
      f-2     :     0.009453
      f+3     :     0.009438
      f-3     :     0.009438
      g0      :     0.000855  g :     0.005425
      g+1     :     0.000609
      g-1     :     0.000609
      g+2     :     0.000573
      g-2     :     0.000573
      g+3     :     0.000559
      g-3     :     0.000559
      g+4     :     0.000544
      g-4     :     0.000544
  1 H s       :     0.867541  s :     0.867541
      pz      :     0.003371  p :     0.035614
      px      :     0.016121
      py      :     0.016121
      dz2     :     0.001798  d :     0.005398
      dxz     :     0.001604
      dyz     :     0.001604
      dx2y2   :     0.000195
      dxy     :     0.000195


                     *******************************
                     * LOEWDIN POPULATION ANALYSIS *
                     *******************************

----------------------
LOEWDIN ATOMIC CHARGES
----------------------
   0 Au:    0.349938
   1 H :   -0.349938

-------------------------------
LOEWDIN REDUCED ORBITAL CHARGES
-------------------------------
  0 Aus       :     2.995164  s :     2.995164
      pz      :     2.018193  p :     6.029464
      px      :     2.005636
      py      :     2.005636
      dz2     :     1.725400  d :     9.547271
      dxz     :     1.927167
      dyz     :     1.927167
      dx2y2   :     1.983768
      dxy     :     1.983768
      f0      :     0.016454  f :     0.072849
      f+1     :     0.009316
      f-1     :     0.009316
      f+2     :     0.009443
      f-2     :     0.009443
      f+3     :     0.009438
      f-3     :     0.009438
      g0      :     0.000843  g :     0.005314
      g+1     :     0.000562
      g-1     :     0.000562
      g+2     :     0.000571
      g-2     :     0.000571
      g+3     :     0.000559
      g-3     :     0.000559
      g+4     :     0.000544
      g-4     :     0.000544
  1 H s       :     1.031821  s :     1.031821
      pz      :     0.170741  p :     0.274216
      px      :     0.051738
      py      :     0.051738
      dz2     :     0.020071  d :     0.043900
      dxz     :     0.011203
      dyz     :     0.011203
      dx2y2   :     0.000712
      dxy     :     0.000712


                      *****************************
                      * MAYER POPULATION ANALYSIS *
                      *****************************

  NA   - Mulliken gross atomic population
  ZA   - Total nuclear charge
  QA   - Mulliken gross atomic charge
  VA   - Mayer's total valence
  BVA  - Mayer's bonded valence
  FA   - Mayer's free valence

  ATOM       NA         ZA         QA         VA         BVA        FA
  0 Au    19.0914    19.0000    -0.0914     1.6729     1.0755     0.5974
  1 H      0.9086     1.0000     0.0914     1.1211     1.0755     0.0456

  Mayer bond orders larger than 0.100000
B(  0-Au,  1-H ) :   1.0755 


-------
TIMINGS
-------

Total time                :    2.950 sec
Integral trafo            :    0.102 sec (  3.5%)
I/O of integrals          :    0.000 sec (  0.0%)
K(i,j) Operators          :    0.000 sec (  0.0%)
T(i,j) pair energies      :    0.000 sec (  0.0%)
V-calculation             :    0.005 sec (  0.2%)
V**(-1/2)                 :    0.002 sec (  0.1%)
Gamma(ia|P)               :    0.000 sec (  0.0%)
Gamma-Trafo               :    0.001 sec (  0.0%)
D(virtual)                :    0.000 sec (  0.0%)
D(internal)               :    0.000 sec (  0.0%)
W(virtual)                :    0.000 sec (  0.0%)
W(internal)               :    0.001 sec (  0.0%)
L(virtual)                :    0.018 sec (  0.6%)
L(internal)               :    0.000 sec (  0.0%)
G(D)                      :    0.262 sec (  8.9%)
G(Z)                      :    0.247 sec (  8.4%)
Z-Vector Solution         :    1.599 sec ( 54.2%)
Z-Vector Solution         :    1.599 sec ( 54.2%)
3-Index Derivative 
+ Separable RIJ part      :    0.051 sec (  1.7%)
2-Index Derivative 
+ Separable RIJ part      :    0.001 sec (  0.0%)
Separable Gradient (X)    :    0.579 sec ( 19.6%)


---------------------------------------
MP2 TOTAL ENERGY:     -136.115076245 Eh
---------------------------------------

-----------------------------------
NORM OF THE MP2 GRADIENT:  0.000007
-----------------------------------


-------------------------------------------------------------------------------
                          DFT DISPERSION CORRECTION                            
                                                                               
                              DFTD3 V3.1  Rev 1                                
                          USING Becke-Johnson damping                          
-------------------------------------------------------------------------------
The DSD-BLYP/2013 functional is recognized
Active option DFTDOPT                   ...         4   

molecular C6(AA) [au] = 382.847435 


            DFT-D V3
 parameters
 s6 scaling factor         :     0.5700 
 a1 scaling factor         :     0.0000 
 s8 scaling factor         :     0.0000 
 a2 scaling factor         :     5.4000 
 ad hoc parameters k1-k3   :    16.0000     1.3333    -4.0000 

 Edisp/kcal,au: -0.438169060350  -0.000698266770 
 E6   /kcal   :  -0.438169060 
 E8   /kcal   :  -0.000000000 
 % E8         :   0.000000000 

-------------------------   ----------------
Dispersion correction           -0.000698267
-------------------------   ----------------


-------------------------   --------------------
FINAL SINGLE POINT ENERGY      -136.115774511530
-------------------------   --------------------

                                *** OPTIMIZATION RUN DONE ***

                            ***************************************
                            *     ORCA property calculations      *
                            ***************************************

                                    ---------------------
                                    Active property flags
                                    ---------------------
   (+) Dipole Moment


------------------------------------------------------------------------------
                       ORCA ELECTRIC PROPERTIES CALCULATION
------------------------------------------------------------------------------

Dipole Moment Calculation                       ... on
Quadrupole Moment Calculation                   ... off
Polarizability Calculation                      ... off
GBWName                                         ... Au01N0_H.gbw
Electron density file                           ... Au01N0_H.scfp
The origin for moment calculation is the CENTER OF MASS  = ( 0.000000,  0.000000  0.017860)

-------------
DIPOLE MOMENT
-------------
                                X             Y             Z
Electronic contribution:     -0.00000       0.00000       3.39371
Nuclear contribution   :      0.00000       0.00000      -2.57823
                        -----------------------------------------
Total Dipole Moment    :     -0.00000       0.00000       0.81547
                        -----------------------------------------
Magnitude (a.u.)       :      0.81547
Magnitude (Debye)      :      2.07277



--------------------
Rotational spectrum 
--------------------
 
Rotational constants in cm-1:     0.000000     7.284871     7.284871 
Rotational constants in MHz :     0.000000 218394.943592 218394.943592 

 Dipole components along the rotational axes: 
x,y,z [a.u.] :     0.815474     0.000000    -0.000000 
x,y,z [Debye]:     2.072770     0.000000    -0.000000 

 

                         *** MP2 UNRELAXED DENSITY ***

------------------------------------------------------------------------------
                       ORCA ELECTRIC PROPERTIES CALCULATION
------------------------------------------------------------------------------

Dipole Moment Calculation                       ... on
Quadrupole Moment Calculation                   ... off
Polarizability Calculation                      ... off
GBWName                                         ... Au01N0_H.gbw
Electron density file                           ... Au01N0_H.pmp2ur
The origin for moment calculation is the CENTER OF MASS  = ( 0.000000,  0.000000  0.017860)

-------------
DIPOLE MOMENT
-------------
                                X             Y             Z
Electronic contribution:     -0.00000       0.00000       3.37000
Nuclear contribution   :      0.00000       0.00000      -2.57823
                        -----------------------------------------
Total Dipole Moment    :     -0.00000       0.00000       0.79176
                        -----------------------------------------
Magnitude (a.u.)       :      0.79176
Magnitude (Debye)      :      2.01250



--------------------
Rotational spectrum 
--------------------
 
Rotational constants in cm-1:     0.000000     7.284871     7.284871 
Rotational constants in MHz :     0.000000 218394.943592 218394.943592 

 Dipole components along the rotational axes: 
x,y,z [a.u.] :     0.791761     0.000000    -0.000000 
x,y,z [Debye]:     2.012496     0.000000    -0.000000 

 

                           *** MP2 RELAXED DENSITY ***

------------------------------------------------------------------------------
                       ORCA ELECTRIC PROPERTIES CALCULATION
------------------------------------------------------------------------------

Dipole Moment Calculation                       ... on
Quadrupole Moment Calculation                   ... off
Polarizability Calculation                      ... off
GBWName                                         ... Au01N0_H.gbw
Electron density file                           ... Au01N0_H.pmp2re
The origin for moment calculation is the CENTER OF MASS  = ( 0.000000,  0.000000  0.017860)

-------------
DIPOLE MOMENT
-------------
                                X             Y             Z
Electronic contribution:     -0.00000       0.00000       3.11035
Nuclear contribution   :      0.00000       0.00000      -2.57823
                        -----------------------------------------
Total Dipole Moment    :     -0.00000       0.00000       0.53212
                        -----------------------------------------
Magnitude (a.u.)       :      0.53212
Magnitude (Debye)      :      1.35254



--------------------
Rotational spectrum 
--------------------
 
Rotational constants in cm-1:     0.000000     7.284871     7.284871 
Rotational constants in MHz :     0.000000 218394.943592 218394.943592 

 Dipole components along the rotational axes: 
x,y,z [a.u.] :     0.532120     0.000000    -0.000000 
x,y,z [Debye]:     1.352540     0.000000    -0.000000 

 

----------------------------------------------------------------------------
                           ORCA NUMERICAL FREQUENCIES
                              (24-process run)
----------------------------------------------------------------------------

Number of atoms                ... 2
Central differences            ... used
Number of displacements        ... 12
Numerical increment            ... 5.000e-03 bohr
IR-spectrum generation         ... on
Raman-spectrum generation      ... off
Surface Crossing Hessian       ... off

 WARNING: There are more processes than displacements to do
  ====> : Reducing number of processes to   6

The output will be reduced. Please look at the following files:
SCF program output             ... >Au01N0_H.lastscf
Integral program output        ... >Au01N0_H.lastint
Gradient program output        ... >Au01N0_H.lastgrad
Dipole moment program output   ... >Au01N0_H.lastmom
AutoCI program output          ... >Au01N0_H.lastautoci


         <<< Energy and Gradient at the input geometry >>>

        <<< Energy and Gradient at displaced geometries >>>
             <<<Displacing   1/coordinate 3 (+)>>>
             <<<Displacing   1/coordinate 1 (+)>>>
             <<<Displacing   1/coordinate 2 (+)>>>
             <<<Displacing   2/coordinate 3 (+)>>>
             <<<Displacing   2/coordinate 1 (+)>>>
             <<<Displacing   2/coordinate 2 (+)>>>
             <<<Displacing   2/coordinate 2 (-)>>>
             <<<Displacing   1/coordinate 2 (-)>>>
             <<<Displacing   2/coordinate 1 (-)>>>
             <<<Displacing   1/coordinate 1 (-)>>>
             <<<Displacing   2/coordinate 3 (-)>>>
             <<<Displacing   1/coordinate 3 (-)>>>
Warning: T+R mode no 5 is zero 

-----------------------
VIBRATIONAL FREQUENCIES
-----------------------

Scaling factor for frequencies =  1.000000000 (already applied!)

   0:         0.00 cm**-1
   1:         0.00 cm**-1
   2:         0.00 cm**-1
   3:         0.00 cm**-1
   4:         0.00 cm**-1
   5:      2330.61 cm**-1


------------
NORMAL MODES
------------

These modes are the cartesian displacements weighted by the diagonal matrix
M(i,i)=1/sqrt(m[i]) where m[i] is the mass of the displaced atom
Thus, these vectors are normalized but *not* orthogonal

                  0          1          2          3          4          5    
      0       0.000000   0.000000   0.000000   0.000000   0.000000   0.000000
      1       0.000000   0.000000   0.000000   0.000000   0.000000   0.000000
      2       0.000000   0.000000   0.000000   0.000000   0.000000   0.005118
      3       0.000000   0.000000   0.000000   0.000000   0.000000   0.000000
      4       0.000000   0.000000   0.000000   0.000000   0.000000   0.000000
      5       0.000000   0.000000   0.000000   0.000000   0.000000  -0.999987


-----------
IR SPECTRUM  
-----------

 Mode    freq (cm**-1)   T**2         TX         TY         TZ
-------------------------------------------------------------------
   5:      2330.61   18.319097  ( -0.000032  -0.000012   4.280081)

The first frequency considered to be a vibration is 5
The total number of vibrations considered is 1


--------------------------
THERMOCHEMISTRY AT 298.15K
--------------------------

Temperature         ... 298.15 K
Pressure            ... 1.00 atm
Total Mass          ... 197.97 AMU
The molecule is recognized as being linear

Throughout the following assumptions are being made:
  (1) The electronic state is orbitally nondegenerate
  (2) There are no thermally accessible electronically excited states
  (3) Hindered rotations indicated by low frequency modes are not
      treated as such but are treated as vibrations and this may
      cause some error
  (4) All equations used are the standard statistical mechanics
      equations for an ideal gas
  (5) All vibrations are strictly harmonic

freq.    2330.61  E(vib)   ...       0.00 

------------
INNER ENERGY
------------

The inner energy is: U= E(el) + E(ZPE) + E(vib) + E(rot) + E(trans)
    E(el)   - is the total energy from the electronic structure calculation
              = E(kin-el) + E(nuc-el) + E(el-el) + E(nuc-nuc)
    E(ZPE)  - the the zero temperature vibrational energy from the frequency calculation
    E(vib)  - the the finite temperature correction to E(ZPE) due to population
              of excited vibrational states
    E(rot)  - is the rotational thermal energy
    E(trans)- is the translational thermal energy

Summary of contributions to the inner energy U:
Electronic energy                ...   -136.11577455 Eh
Zero point energy                ...      0.00530953 Eh       3.33 kcal/mol
Thermal vibrational correction   ...      0.00000014 Eh       0.00 kcal/mol
Thermal rotational correction    ...      0.00094418 Eh       0.59 kcal/mol
Thermal translational correction ...      0.00141627 Eh       0.89 kcal/mol
-----------------------------------------------------------------------
Total thermal energy                   -136.10810443 Eh


Summary of corrections to the electronic energy:
(perhaps to be used in another calculation)
Total thermal correction                  0.00236059 Eh       1.48 kcal/mol
Non-thermal (ZPE) correction              0.00530953 Eh       3.33 kcal/mol
-----------------------------------------------------------------------
Total correction                          0.00767012 Eh       4.81 kcal/mol


--------
ENTHALPY
--------

The enthalpy is H = U + kB*T
                kB is Boltzmann's constant
Total free energy                 ...   -136.10810443 Eh 
Thermal Enthalpy correction       ...      0.00094421 Eh       0.59 kcal/mol
-----------------------------------------------------------------------
Total Enthalpy                    ...   -136.10716023 Eh


Note: Rotational entropy computed according to Herzberg 
Infrared and Raman Spectra, Chapter V,1, Van Nostrand Reinhold, 1945 
Point Group:  Cinfv, Symmetry Number:   1  
Rotational constants in cm-1:     0.000000     7.284871     7.284871 

Vibrational entropy computed according to the QRRHO of S. Grimme
Chem.Eur.J. 2012 18 9955


-------
ENTROPY
-------

The entropy contributions are T*S = T*(S(el)+S(vib)+S(rot)+S(trans))
     S(el)   - electronic entropy
     S(vib)  - vibrational entropy
     S(rot)  - rotational entropy
     S(trans)- translational entropy
The entropies will be listed as mutliplied by the temperature to get
units of energy

Electronic entropy                ...      0.00000000 Eh      0.00 kcal/mol
Vibrational entropy               ...      0.00000015 Eh      0.00 kcal/mol
Rotational entropy                ...      0.00410531 Eh      2.58 kcal/mol
Translational entropy             ...      0.01983851 Eh     12.45 kcal/mol
-----------------------------------------------------------------------
Final entropy term                ...      0.02394397 Eh     15.03 kcal/mol

In case the symmetry of your molecule has not been determined correctly
or in case you have a reason to use a different symmetry number we print 
out the resulting rotational entropy values for sn=1,12 :
 --------------------------------------------------------
|  sn= 1 | S(rot)=             -inf Eh      -inf kcal/mol|
|  sn= 2 | S(rot)=             -inf Eh      -inf kcal/mol|
|  sn= 3 | S(rot)=             -inf Eh      -inf kcal/mol|
|  sn= 4 | S(rot)=             -inf Eh      -inf kcal/mol|
|  sn= 5 | S(rot)=             -inf Eh      -inf kcal/mol|
|  sn= 6 | S(rot)=             -inf Eh      -inf kcal/mol|
|  sn= 7 | S(rot)=             -inf Eh      -inf kcal/mol|
|  sn= 8 | S(rot)=             -inf Eh      -inf kcal/mol|
|  sn= 9 | S(rot)=             -inf Eh      -inf kcal/mol|
|  sn=10 | S(rot)=             -inf Eh      -inf kcal/mol|
|  sn=11 | S(rot)=             -inf Eh      -inf kcal/mol|
|  sn=12 | S(rot)=             -inf Eh      -inf kcal/mol|
 --------------------------------------------------------


-------------------
GIBBS FREE ENERGY
-------------------

The Gibbs free energy is G = H - T*S

Total enthalpy                    ...   -136.10716023 Eh 
Total entropy correction          ...     -0.02394397 Eh    -15.03 kcal/mol
-----------------------------------------------------------------------
Final Gibbs free energy         ...   -136.13110419 Eh

For completeness - the Gibbs free energy minus the electronic energy
G-E(el)                           ...     -0.01532964 Eh     -9.62 kcal/mol


Total Time for Numerical Frequencies  :        23.967 sec

Timings for individual modules:

Sum of individual times         ...       28.742 sec (=   0.479 min)
GTO integral calculation        ...        2.986 sec (=   0.050 min)  10.4 %
SCF iterations                  ...        8.482 sec (=   0.141 min)  29.5 %
MP2 module                      ...       17.160 sec (=   0.286 min)  59.7 %
Geometry relaxation             ...        0.115 sec (=   0.002 min)   0.4 %
                             ****ORCA TERMINATED NORMALLY****
TOTAL RUN TIME: 0 days 0 hours 0 minutes 48 seconds 621 msec
