
                                 *****************
                                 * O   R   C   A *
                                 *****************

           --- An Ab Initio, DFT and Semiempirical electronic structure package ---

                  #######################################################
                  #                        -***-                        #
                  #          Department of theory and spectroscopy      #
                  #               Directorship: Frank Neese             #
                  #        Max Planck Institute fuer Kohlenforschung    #
                  #                Kaiser Wilhelm Platz 1               #
                  #                 D-45470 Muelheim/Ruhr               #
                  #                      Germany                        #
                  #                                                     #
                  #                  All rights reserved                #
                  #                        -***-                        #
                  #######################################################


                         Program Version 4.2.0 -  RELEASE  -


 With contributions from (in alphabetic order):
   Daniel Aravena         : Magnetic Suceptibility
   Michael Atanasov       : Ab Initio Ligand Field Theory (pilot matlab implementation)
   Alexander A. Auer      : GIAO ZORA, VPT2
   Ute Becker             : Parallelization
   Giovanni Bistoni       : ED, misc. LED, open-shell LED, HFLED
   Martin Brehm           : Molecular dynamics
   Dmytro Bykov           : SCF Hessian
   Vijay G. Chilkuri      : MRCI spin determinant printing, contributions to CSF-ICE
   Dipayan Datta          : RHF DLPNO-CCSD density
   Achintya Kumar Dutta   : EOM-CC, STEOM-CC
   Dmitry Ganyushin       : Spin-Orbit,Spin-Spin,Magnetic field MRCI
   Miquel Garcia          : C-PCM Hessian, Gaussian charge scheme
   Yang Guo               : DLPNO-NEVPT2, CIM, IAO-localization
   Andreas Hansen         : Spin unrestricted coupled pair/coupled cluster methods
   Benjamin Helmich-Paris : CASSCF linear response (MC-RPA)
   Lee Huntington         : MR-EOM, pCC
   Robert Izsak           : Overlap fitted RIJCOSX, COSX-SCS-MP3, EOM
   Christian Kollmar      : KDIIS, OOCD, Brueckner-CCSD(T), CCSD density
   Simone Kossmann        : Meta GGA functionals, TD-DFT gradient, OOMP2, MP2 Hessian
   Martin Krupicka        : AUTO-CI
   Lucas Lang             : DCDCAS
   Dagmar Lenk            : GEPOL surface, SMD
   Dimitrios Liakos       : Extrapolation schemes; Compound Job, initial MDCI parallelization
   Dimitrios Manganas     : Further ROCIS development; embedding schemes
   Dimitrios Pantazis     : SARC Basis sets
   Taras Petrenko         : DFT Hessian,TD-DFT gradient, ASA, ECA, R-Raman, ABS, FL, XAS/XES, NRVS
   Peter Pinski           : DLPNO-MP2, DLPNO-MP2 Gradient
   Christoph Reimann      : Effective Core Potentials
   Marius Retegan         : Local ZFS, SOC
   Christoph Riplinger    : Optimizer, TS searches, QM/MM, DLPNO-CCSD(T), (RO)-DLPNO pert. Triples
   Tobias Risthaus        : Range-separated hybrids, TD-DFT gradient, RPA, STAB
   Michael Roemelt        : Original ROCIS implementation
   Masaaki Saitow         : Open-shell DLPNO-CCSD energy and density
   Barbara Sandhoefer     : DKH picture change effects
   Avijit Sen             : IP-ROCIS
   Kantharuban Sivalingam : CASSCF convergence, NEVPT2, FIC-MRCI
   Bernardo de Souza      : ESD, SOC TD-DFT
   Georgi Stoychev        : AutoAux, RI-MP2 NMR
   Willem Van den Heuvel  : Paramagnetic NMR
   Boris Wezisla          : Elementary symmetry handling
   Frank Wennmohs         : Technical directorship


 We gratefully acknowledge several colleagues who have allowed us to
 interface, adapt or use parts of their codes:
   Stefan Grimme, W. Hujo, H. Kruse,             : VdW corrections, initial TS optimization,
                  C. Bannwarth                     DFT functionals, gCP, sTDA/sTD-DF
   Ed Valeev, F. Pavosevic, A. Kumar             : LibInt (2-el integral package), F12 methods
   Garnet Chan, S. Sharma, J. Yang, R. Olivares  : DMRG
   Ulf Ekstrom                                   : XCFun DFT Library
   Mihaly Kallay                                 : mrcc  (arbitrary order and MRCC methods)
   Andreas Klamt, Michael Diedenhofen            : otool_cosmo (COSMO solvation model)
   Jiri Pittner, Ondrej Demel                    : Mk-CCSD
   Frank Weinhold                                : gennbo (NPA and NBO analysis)
   Christopher J. Cramer and Donald G. Truhlar   : smd solvation model
   Lars Goerigk                                  : TD-DFT with DH, B97 family of functionals
   V. Asgeirsson, H. Jonsson                     : NEB implementation
   FAccTs GmbH                                   : IRC, NEB, NEB-TS, Multilevel, MM, QM/MM, CI optimization
   S Lehtola, MJT Oliveira, MAL Marques          : LibXC Library


 Your calculation uses the libint2 library for the computation of 2-el integrals
 For citations please refer to: http://libint.valeyev.net

 Your ORCA version has been built with support for libXC version: 4.2.3
 For citations please refer to: https://tddft.org/programs/libxc/

 This ORCA versions uses:
   CBLAS   interface :  Fast vector & matrix operations
   LAPACKE interface :  Fast linear algebra routines
   SCALAPACK package :  Parallel linear algebra routines


Your calculation utilizes the atom-pairwise dispersion correction
with the Becke-Johnson damping scheme (D3BJ)
Cite in your paper:
S.Grimme, S.Ehrlich, L.Goerigk, J Comput Chem, (2011), 32, 1456–1465 
S.Grimme, J.Antony, S.Ehrlich and H.Krieg, J.Chem.Phys., 132, (2010), 154104 
   

----- Orbital basis set information -----
Your calculation utilizes the basis: def2-TZVPPD
   F. Weigend and R. Ahlrichs, Phys. Chem. Chem. Phys. 7, 3297 (2005).
   D. Rappoport and F. Furche, J. Chem. Phys. 133 134105 (2010).

----- AuxC basis set information -----
Your calculation utilizes the auxiliary basis: def2-TZVPPD/C
   A. Hellweg, C. Hattig, S. Hofener and W. Klopper, Theor. Chem. Acc. 117, 587 (2007).

----- AuxJK basis set information -----
Your calculation utilizes the auxiliary basis: def2/JK
   H-Ba, Hf-Rn: F. Weigend, J. Comput. Chem. 29, 167 (2008).

cite the ECPs for Au [Def2-ECP] as follows:
Ce-Yb(ecp-28): M. Dolg, H. Stoll, H.Preuss, J. Chem. Phys., 1989, 90, 1730-1734.
Y-Cd(ecp-28), Hf-Hg(ecp-46): D. Andrae,U. Haeussermann, M. Dolg, H. Stoll, H. Preuss, Theor. Chim. Acta, 1990, 77, 123-141.
In-Sb(ecp-28), Tl-Bi(ecp-46): B. Metz, H. Stoll, M. Dolg, J. Chem. Phys., 2000, 113, 2563-2569.
Te-Xe(ecp-28), Po-Rn(ecp-46): K. A. Peterson, D. Figgen, E. Goll, H. Stoll, M. Dolg, J. Chem. Phys., 2003, 119, 11113-11123.
Rb(ecp-28), Cs(ecp-46): T. Leininger, A. Nicklass, W. Kuechle, H. Stoll, M. Dolg, A. Bergner, Chem. Phys. Lett., 1996, 255, 274-280.
Sr(ecp-28), Ba(ecp-46): M. Kaupp, P. V. Schleyer, H. Stoll and H. Preuss, J. Chem. Phys., 1991, 94, 1360-1366.
La(ecp-46): M. Dolg, H. Stoll, A. Savin, H. Preuss, Theor. Chim. Acta, 1989, 75, 173-194.
Lu(ecp-28): X. Cao, M. Dolg, J. Chem. Phys., 2001, 115, 7348-7355.

ECP parameters for Au [Def2-ECP] have been obtained from:
TURBOMOLE (7.0.2)

================================================================================
                                        WARNINGS
                       Please study these warnings very carefully!
================================================================================


WARNING: The frozen-core approximation for MP2-gradient calculations is turned on by default.

WARNING: Geometry Optimization
  ===> : Switching off AutoStart
         For restart on a previous wavefunction, please use MOREAD

WARNING: There are different parametrizations of Gershom Martin's DSD-DFs
         for use with and without D3(BJ)!
         You are using the D3(BJ) parametrized version,
         consistent with the 2013 article (S. Kozuch and J. M. L. Martin, JCC 2013, 34, 2327)

WARNING: The frozen-core approximation is turned on by default for 
         the MP2 part of double-hybrid DFT.

INFO   : the flag for use of LIBINT has been found!

================================================================================
                                       INPUT FILE
================================================================================
NAME = Au03C1_D3H.in
|  1> #
|  2> # Au03C1_D3H ri-DSD-BLYP/2013-D3BJ/Def2-TZVPPD
|  3> #
|  4> ! rijk ri-dsd-blyp/2013 d3bj def2-tzvppd def2/jk def2-tzvppd/c grid4 nofinalgrid opt xyzfile numfreq
|  5> 
|  6> *xyz 1 1
|  7> Au       0.000000    1.501400   -0.000000 
|  8> Au       1.300251   -0.750700   -0.000000 
|  9> Au      -1.300251   -0.750700   -0.000000 
| 10> *
| 11> 
| 12> %maxcore 5000
| 13> 
| 14> %pal
| 15> nprocs = 24
| 16> end
| 17> 
| 18> 
| 19>                          ****END OF INPUT****
================================================================================

                       *****************************
                       * Geometry Optimization Run *
                       *****************************

Geometry optimization settings:
Update method            Update   .... BFGS
Choice of coordinates    CoordSys .... Z-matrix Internals
Initial Hessian          InHess   .... Almoef's Model

Convergence Tolerances:
Energy Change            TolE     ....  5.0000e-06 Eh
Max. Gradient            TolMAXG  ....  3.0000e-04 Eh/bohr
RMS Gradient             TolRMSG  ....  1.0000e-04 Eh/bohr
Max. Displacement        TolMAXD  ....  4.0000e-03 bohr
RMS Displacement         TolRMSD  ....  2.0000e-03 bohr
Strict Convergence                ....  False
------------------------------------------------------------------------------
                        ORCA OPTIMIZATION COORDINATE SETUP
------------------------------------------------------------------------------

The optimization will be done in new redundant internal coordinates
Making redundant internal coordinates   ...  (new redundants) done
Evaluating the initial hessian          ...  (Almloef) done
Evaluating the coordinates              ...  done
Calculating the B-matrix                .... done
Calculating the G-matrix                .... done
Diagonalizing the G-matrix              .... done
The first mode is                       ....    3
The number of degrees of freedom        ....    3

    -----------------------------------------------------------------
                    Redundant Internal Coordinates


    -----------------------------------------------------------------
         Definition                    Initial Value    Approx d2E/dq
    -----------------------------------------------------------------
      1. B(Au  1,Au  0)                  2.6005         0.014179   
      2. B(Au  2,Au  1)                  2.6005         0.014179   
      3. B(Au  2,Au  0)                  2.6005         0.014179   
      4. A(Au  1,Au  0,Au  2)           60.0000         0.157470   
      5. A(Au  0,Au  1,Au  2)           60.0000         0.157470   
      6. A(Au  0,Au  2,Au  1)           60.0000         0.157470   
    -----------------------------------------------------------------

Number of atoms                         .... 3
Number of degrees of freedom            .... 6

         *************************************************************
         *                GEOMETRY OPTIMIZATION CYCLE   1            *
         *************************************************************
---------------------------------
CARTESIAN COORDINATES (ANGSTROEM)
---------------------------------
  Au     0.000000    1.501400   -0.000000
  Au     1.300251   -0.750700   -0.000000
  Au    -1.300251   -0.750700   -0.000000

----------------------------
CARTESIAN COORDINATES (A.U.)
----------------------------
  NO LB      ZA    FRAG     MASS         X           Y           Z
   0 Au   19.0000*   0   196.966    0.000000    2.837235   -0.000000
   1 Au   19.0000*   0   196.966    2.457118   -1.418617   -0.000000
   2 Au   19.0000*   0   196.966   -2.457118   -1.418617   -0.000000
* core charge reduced due to ECP

--------------------------------
INTERNAL COORDINATES (ANGSTROEM)
--------------------------------
 Au     0   0   0     0.000000000000     0.00000000     0.00000000
 Au     1   0   0     2.600501311863     0.00000000     0.00000000
 Au     1   2   0     2.600501311863    60.00001751     0.00000000

---------------------------
INTERNAL COORDINATES (A.U.)
---------------------------
 Au     0   0   0     0.000000000000     0.00000000     0.00000000
 Au     1   0   0     4.914235290324     0.00000000     0.00000000
 Au     1   2   0     4.914235290324    60.00001751     0.00000000

---------------------
BASIS SET INFORMATION
---------------------
There are 1 groups of distinct atoms

 Group   1 Type Au  : 8s8p6d2f1g contracted to 6s5p3d2f1g pattern {311111/41111/411/11/1}

Atom   0Au   basis set group =>   1
Atom   1Au   basis set group =>   1
Atom   2Au   basis set group =>   1
---------------------------------
AUXILIARY/C BASIS SET INFORMATION
---------------------------------
There are 1 groups of distinct atoms

 Group   1 Type Au  : 9s9p8d5f4g3h1i contracted to 9s9p8d5f4g3h1i pattern {111111111/111111111/11111111/11111/1111/111/1}

Atom   0Au   basis set group =>   1
Atom   1Au   basis set group =>   1
Atom   2Au   basis set group =>   1
----------------------------------
AUXILIARY/JK BASIS SET INFORMATION
----------------------------------
There are 1 groups of distinct atoms

 Group   1 Type Au  : 13s12p11d9f5g3h2i contracted to 13s11p10d8f4g3h2i pattern {1111111111111/21111111111/2111111111/21111111/2111/111/11}

Atom   0Au   basis set group =>   1
Atom   1Au   basis set group =>   1
Atom   2Au   basis set group =>   1
-------------------------
ECP PARAMETER INFORMATION
-------------------------

 Group 1, Type Au ECP Def2-ECP (replacing 60 core electrons, lmax=3)

Atom   0Au   ECP group =>   1
Atom   1Au   ECP group =>   1
Atom   2Au   ECP group =>   1



           ************************************************************
           *        Program running with 24 parallel MPI-processes    *
           *              working on a common directory               *
           ************************************************************
------------------------------------------------------------------------------
                           ORCA GTO INTEGRAL CALCULATION
                           -- RI-GTO INTEGRALS CHOSEN --
------------------------------------------------------------------------------

                         BASIS SET STATISTICS AND STARTUP INFO

Gaussian basis set:
 # of primitive gaussian shells          ...   75
 # of primitive gaussian functions       ...  255
 # of contracted shells                  ...   51
 # of contracted basis functions         ...  177
 Highest angular momentum                ...    4
 Maximum contraction depth               ...    4
Auxiliary gaussian basis set:
 # of primitive gaussian shells          ...  165
 # of primitive gaussian functions       ...  813
 # of contracted shells                  ...  153
 # of contracted aux-basis functions     ...  741
 Highest angular momentum                ...    6
 Maximum contraction depth               ...    2
Ratio of auxiliary to basis functions    ...  4.19
Integral package used                  ... LIBINT
 One Electron integrals                  
   ECP integrals                         ... done
 Ordering auxiliary basis shells         ... done
 Integral threshhold             Thresh  ...  2.500e-11
 Primitive cut-off               TCut    ...  2.500e-12
 Pre-screening matrix                    ... done
 Shell pair data                         ... 
 Ordering of the shell pairs             ... done (   0.000 sec) 1296 of 1326 pairs
 Determination of significant pairs      ... done (   0.000 sec)
 Creation of shell pair data             ... done (   0.000 sec)
 Storage of shell pair data              ... done (   0.006 sec)
 Shell pair data done in (   0.006 sec)
 Computing two index integrals           ... done
 Cholesky decomposition of the V-matrix  ... done


Timings:
 Total evaluation time                   ...   0.740 sec (  0.012 min)
 One electron matrix time                ...   0.418 sec (  0.007 min) = 56.5%
 Schwartz matrix evaluation time         ...   0.140 sec (  0.002 min) = 18.9%
 Two index repulsion integral time       ...   0.138 sec (  0.002 min) = 18.6%
 Cholesky decomposition of V             ...   0.009 sec (  0.000 min) =  1.2%
 Three index repulsion integral time     ...   0.000 sec (  0.000 min) =  0.0%



           ************************************************************
           *        Program running with 24 parallel MPI-processes    *
           *              working on a common directory               *
           ************************************************************
-------------------------------------------------------------------------------
                                 ORCA SCF
-------------------------------------------------------------------------------

------------
SCF SETTINGS
------------
Hamiltonian:
 Density Functional     Method          .... DFT(GTOs)
 Exchange Functional    Exchange        .... B88
   X-Alpha parameter    XAlpha          ....  0.666667
   Becke's b parameter  XBeta           ....  0.004200
 Correlation Functional Correlation     .... LYP
 LDA part of GGA corr.  LDAOpt          .... VWN-5
 Gradients option       PostSCFGGA      .... off
 Hybrid DFT is turned on
   Fraction HF Exchange ScalHFX         ....  0.710000
   Scaling of DF-GGA-X  ScalDFX         ....  0.290000
   Scaling of DF-GGA-C  ScalDFC         ....  0.540000
   Scaling of DF-LDA-C  ScalLDAC        ....  0.540000
   Perturbative correction              ....  1.000000
   Density functional embedding theory  .... OFF
 RI-approximation to the Coulomb term is turned on
   Number of auxiliary basis functions  .... 741
   RI-JK (J+K treated both via RI)      .... on


General Settings:
 Integral files         IntName         .... Au03C1_D3H
 Hartree-Fock type      HFTyp           .... RHF
 Total Charge           Charge          ....    1
 Multiplicity           Mult            ....    1
 Number of Electrons    NEL             ....   56
 Basis Dimension        Dim             ....  177
 Nuclear Repulsion      ENuc            ....    220.3801487905 Eh

Convergence Acceleration:
 DIIS                   CNVDIIS         .... on
   Start iteration      DIISMaxIt       ....    12
   Startup error        DIISStart       ....  0.200000
   # of expansion vecs  DIISMaxEq       ....     5
   Bias factor          DIISBfac        ....   1.050
   Max. coefficient     DIISMaxC        ....  10.000
 Newton-Raphson         CNVNR           .... off
 SOSCF                  CNVSOSCF        .... off
 Level Shifting         CNVShift        .... on
   Level shift para.    LevelShift      ....    0.2500
   Turn off err/grad.   ShiftErr        ....    0.0010
 Zerner damping         CNVZerner       .... off
 Static damping         CNVDamp         .... on
   Fraction old density DampFac         ....    0.7000
   Max. Damping (<1)    DampMax         ....    0.9800
   Min. Damping (>=0)   DampMin         ....    0.0000
   Turn off err/grad.   DampErr         ....    0.1000
 Fernandez-Rico         CNVRico         .... off

SCF Procedure:
 Maximum # iterations   MaxIter         ....   125
 SCF integral mode      SCFMode         .... Direct
   Integral package                     .... LIBINT
 Reset frequency        DirectResetFreq ....    20
 Integral Threshold     Thresh          ....  2.500e-11 Eh
 Primitive CutOff       TCut            ....  2.500e-12 Eh

Convergence Tolerance:
 Convergence Check Mode ConvCheckMode   .... Total+1el-Energy
 Convergence forced     ConvForced      .... 0
 Energy Change          TolE            ....  1.000e-08 Eh
 1-El. energy change                    ....  1.000e-05 Eh
 DIIS Error             TolErr          ....  5.000e-07


Diagonalization of the overlap matrix:
Smallest eigenvalue                        ... 1.610e-03
Time for diagonalization                   ...    0.007 sec
Threshold for overlap eigenvalues          ... 1.000e-08
Number of eigenvalues below threshold      ... 0
Time for construction of square roots      ...    0.004 sec
Total time needed                          ...    0.011 sec

-------------------
DFT GRID GENERATION
-------------------

General Integration Accuracy     IntAcc      ...  4.670
Radial Grid Type                 RadialGrid  ... Gauss-Chebyshev
Angular Grid (max. acc.)         AngularGrid ... Lebedev-302
Angular grid pruning method      GridPruning ... 3 (G Style)
Weight generation scheme         WeightScheme... Becke
Basis function cutoff            BFCut       ...    1.0000e-11
Integration weight cutoff        WCut        ...    1.0000e-14
Grids for H and He will be reduced by one unit

# of grid points (after initial pruning)     ...  34956 (   0.0 sec)
# of grid points (after weights+screening)   ...  34814 (   0.0 sec)
nearest neighbour list constructed           ...    0.0 sec
Grid point re-assignment to atoms done       ...    0.0 sec
Grid point division into batches done        ...    0.3 sec
Reduced shell lists constructed in    0.4 sec

Total number of grid points                  ...    34814
Total number of batches                      ...      545
Average number of points per batch           ...       63
Average number of grid points per atom       ...    11605
Average number of shells per batch           ...     5.00 ( 9.80%)
Average number of basis functions per batch  ...    13.17 ( 7.44%)
Average number of large shells per batch     ...     3.08 (61.67%)
Average number of large basis fcns per batch ...     7.25 (55.06%)
Average number of aux-shells per batch       ...     5.00 ( 3.27%)
Average number of aux functions per batch    ...    13.17 ( 1.78%)
Maximum spatial batch extension              ...  27.50, 22.87, 24.85 au
Average spatial batch extension              ...   0.74,  0.63,  0.66 au

Time for grid setup =    0.411 sec

------------------------------
INITIAL GUESS: MODEL POTENTIAL
------------------------------
Loading Hartree-Fock densities                     ... done
  calling /sw/apps/orca/orca_4_2_0_linux_x86-64_openmpi314/orca Au03C1_D3H_atom79.inp > Au03C1_D3H_atom79.out in order to generate an atomic fitting density for atom 0 (Au with ECP) on-the-fly... 
    atom 0 (Au), assumed electronic state with S=2: 1s2 2s2 2p6 3s2 3p6 4s2 3d10 4p6 5s2 4d10 5p6 6s1 4f14 5d10           ... done
Calculating cut-offs                               ... done
Setting up the integral package                    ... done
Initializing the effective Hamiltonian             ... done
Starting the Coulomb interaction                   ... done (   0.0 sec)
Reading the grid                                   ... done
Mapping shells                                     ... done
Starting the XC term evaluation                    ... done (   0.0 sec)
  promolecular density results
     # of electrons  =    237.007576824
     EX              =  -1102.082810276
     EC              =     -1.454231719
     EX+EC           =  -1103.537041995
Transforming the Hamiltonian                       ... done (   0.0 sec)
Diagonalizing the Hamiltonian                      ... done (   0.0 sec)
Back transforming the eigenvectors                 ... done (   0.0 sec)
Now organizing SCF variables                       ... done
                      ------------------
                      INITIAL GUESS DONE (   1.4 sec)
                      ------------------
--------------
SCF ITERATIONS
--------------
ITER       Energy         Delta-E        Max-DP      RMS-DP      [F,P]     Damp
  0   -405.1871274276   0.000000000000 0.23670053  0.00324536  0.5529242 0.7000
  1   -405.1652311585   0.021896269168 0.19402374  0.00269711  0.4068252 0.7000
  2   -405.2721295898  -0.106898431366 0.13653510  0.00189465  0.2817700 0.7000
                               ***Turning on DIIS***
  3   -405.3863317430  -0.114202153180 0.09479988  0.00132312  0.1945674 0.7000
  4   -405.4554541429  -0.069122399858 0.06663100  0.00096726  0.1348658 0.7000
  5   -405.4901072349  -0.034653092056 0.16206808  0.00244676  0.0942890 0.0000
  6   -405.4902190601  -0.000111825168 0.00625764  0.00027046  0.0203669 0.0000
  7   -405.4925912774  -0.002372217325 0.00373359  0.00009570  0.0030789 0.0000
  8   -405.4927077850  -0.000116507573 0.00168227  0.00004127  0.0010586 0.0000
  9   -405.4927233472  -0.000015562185 0.00095191  0.00002730  0.0004660 0.0000
 10   -405.4927275493  -0.000004202159 0.00045506  0.00001159  0.0002006 0.0000
 11   -405.4927281903  -0.000000640933 0.00019827  0.00000436  0.0000567 0.0000
 12   -405.4927282934  -0.000000103162 0.00010156  0.00000204  0.0000267 0.0000
 13   -405.4927283115  -0.000000018059 0.00003023  0.00000061  0.0000069 0.0000
 14   -405.4927283127  -0.000000001230 0.00000196  0.00000005  0.0000012 0.0000
                            ***DIIS convergence achieved***

               *****************************************************
               *                     SUCCESS                       *
               *           SCF CONVERGED AFTER  15 CYCLES          *
               *****************************************************


----------------
TOTAL SCF ENERGY
----------------

Total Energy       :         -405.49272831 Eh          -11034.01810 eV

Components:
Nuclear Repulsion  :          220.38014879 Eh            5996.84872 eV
Electronic Energy  :         -625.87287710 Eh          -17030.86682 eV
One Electron Energy:        -1145.72744932 Eh          -31176.82890 eV
Two Electron Energy:          519.85457222 Eh           14145.96208 eV

Virial components:
Potential Energy   :         -543.57174088 Eh          -14791.33905 eV
Kinetic Energy     :          138.07901256 Eh            3757.32095 eV
Virial Ratio       :            3.93667170


DFT components:
N(Alpha)           :       27.999993129919 electrons
N(Beta)            :       27.999993129919 electrons
N(Total)           :       55.999986259838 electrons
E(X)               :      -10.547829480151 Eh       
E(C)               :       -1.108633408075 Eh       
E(XC)              :      -11.656462888226 Eh       
DFET-embed. en.    :        0.000000000000 Eh       

---------------
SCF CONVERGENCE
---------------

  Last Energy change         ...   -2.1544e-11  Tolerance :   1.0000e-08
  Last MAX-Density change    ...    6.9605e-07  Tolerance :   1.0000e-07
  Last RMS-Density change    ...    2.4006e-08  Tolerance :   5.0000e-09
  Last DIIS Error            ...    6.4305e-07  Tolerance :   5.0000e-07

             **** THE GBW FILE WAS UPDATED (Au03C1_D3H.gbw) ****
             **** DENSITY FILE WAS UPDATED (Au03C1_D3H.scfp) ****
             **** ENERGY FILE WAS UPDATED (Au03C1_D3H.en.tmp) ****
             **** THE GBW FILE WAS UPDATED (Au03C1_D3H.gbw) ****
             **** DENSITY FILE WAS UPDATED (Au03C1_D3H.scfp) ****
----------------
ORBITAL ENERGIES
----------------

  NO   OCC          E(Eh)            E(eV) 
   0   2.0000      -4.702591      -127.9640 
   1   2.0000      -4.701858      -127.9441 
   2   2.0000      -4.701857      -127.9440 
   3   2.0000      -2.801661       -76.2371 
   4   2.0000      -2.794200       -76.0340 
   5   2.0000      -2.794198       -76.0340 
   6   2.0000      -2.787190       -75.8433 
   7   2.0000      -2.786897       -75.8353 
   8   2.0000      -2.786891       -75.8352 
   9   2.0000      -2.786452       -75.8232 
  10   2.0000      -2.785966       -75.8100 
  11   2.0000      -2.785965       -75.8099 
  12   2.0000      -0.694456       -18.8971 
  13   2.0000      -0.662146       -18.0179 
  14   2.0000      -0.662145       -18.0179 
  15   2.0000      -0.655949       -17.8493 
  16   2.0000      -0.629396       -17.1267 
  17   2.0000      -0.623704       -16.9719 
  18   2.0000      -0.623702       -16.9718 
  19   2.0000      -0.588910       -16.0251 
  20   2.0000      -0.588910       -16.0251 
  21   2.0000      -0.582492       -15.8504 
  22   2.0000      -0.578532       -15.7426 
  23   2.0000      -0.578531       -15.7426 
  24   2.0000      -0.578422       -15.7397 
  25   2.0000      -0.578417       -15.7395 
  26   2.0000      -0.539201       -14.6724 
  27   2.0000      -0.516526       -14.0554 
  28   0.0000      -0.230772        -6.2796 
  29   0.0000      -0.230772        -6.2796 
  30   0.0000      -0.149178        -4.0593 
  31   0.0000      -0.116248        -3.1633 
  32   0.0000      -0.100070        -2.7230 
  33   0.0000      -0.100070        -2.7230 
  34   0.0000      -0.057890        -1.5753 
  35   0.0000      -0.057890        -1.5753 
  36   0.0000      -0.019760        -0.5377 
  37   0.0000      -0.019760        -0.5377 
  38   0.0000       0.001244         0.0338 
  39   0.0000       0.060850         1.6558 
  40   0.0000       0.073802         2.0082 
  41   0.0000       0.082200         2.2368 
  42   0.0000       0.096007         2.6125 
  43   0.0000       0.096008         2.6125 
  44   0.0000       0.143511         3.9051 
  45   0.0000       0.143512         3.9051 
  46   0.0000       0.143865         3.9148 
  47   0.0000       0.143866         3.9148 
  48   0.0000       0.194229         5.2852 
  49   0.0000       0.218460         5.9446 
  50   0.0000       0.218461         5.9446 
  51   0.0000       0.218570         5.9476 
  52   0.0000       0.244361         6.6494 
  53   0.0000       0.244361         6.6494 
  54   0.0000       0.250280         6.8105 
  55   0.0000       0.292438         7.9576 
  56   0.0000       0.292439         7.9577 
  57   0.0000       0.321569         8.7503 
  58   0.0000       0.362836         9.8733 
  59   0.0000       0.362836         9.8733 
  60   0.0000       0.376670        10.2497 
  61   0.0000       0.376671        10.2497 
  62   0.0000       0.393464        10.7067 
  63   0.0000       0.481123        13.0920 
  64   0.0000       0.481595        13.1049 
  65   0.0000       0.481597        13.1049 
  66   0.0000       0.758154        20.6304 
  67   0.0000       0.861975        23.4555 
  68   0.0000       0.865051        23.5392 
  69   0.0000       0.865052        23.5393 
  70   0.0000       0.871832        23.7237 
  71   0.0000       0.952226        25.9114 
  72   0.0000       0.952226        25.9114 
  73   0.0000       1.017894        27.6983 
  74   0.0000       1.046289        28.4710 
  75   0.0000       1.046297        28.4712 
  76   0.0000       1.047168        28.4949 
  77   0.0000       1.047173        28.4950 
  78   0.0000       1.049644        28.5623 
  79   0.0000       1.071083        29.1457 
  80   0.0000       1.071084        29.1457 
  81   0.0000       1.110704        30.2238 
  82   0.0000       1.125870        30.6365 
  83   0.0000       1.125873        30.6366 
  84   0.0000       1.177828        32.0503 
  85   0.0000       1.204894        32.7868 
  86   0.0000       1.204896        32.7869 
  87   0.0000       1.295377        35.2490 
  88   0.0000       1.311478        35.6871 
  89   0.0000       1.311478        35.6871 
  90   0.0000       1.314703        35.7749 
  91   0.0000       1.327260        36.1166 
  92   0.0000       1.327260        36.1166 
  93   0.0000       1.352767        36.8107 
  94   0.0000       1.352770        36.8107 
  95   0.0000       1.410042        38.3692 
  96   0.0000       1.435760        39.0690 
  97   0.0000       1.438150        39.1341 
  98   0.0000       1.450700        39.4755 
  99   0.0000       1.450702        39.4756 
 100   0.0000       1.485178        40.4138 
 101   0.0000       1.485180        40.4138 
 102   0.0000       1.500575        40.8327 
 103   0.0000       1.581886        43.0453 
 104   0.0000       1.599324        43.5198 
 105   0.0000       1.599327        43.5199 
 106   0.0000       1.656573        45.0776 
 107   0.0000       1.656582        45.0779 
 108   0.0000       1.885699        51.3125 
 109   0.0000       1.885705        51.3126 
 110   0.0000       2.108521        57.3758 
 111   0.0000       2.173254        59.1373 
 112   0.0000       2.708436        73.7003 
 113   0.0000       2.708439        73.7004 
 114   0.0000       3.535328        96.2012 
 115   0.0000       3.565934        97.0340 
 116   0.0000       3.588457        97.6469 
 117   0.0000       3.588481        97.6475 
 118   0.0000       3.628267        98.7302 
 119   0.0000       3.647078        99.2420 
 120   0.0000       3.647125        99.2433 
 121   0.0000       3.709782       100.9483 
 122   0.0000       3.709855       100.9503 
 123   0.0000       3.728509       101.4579 
 124   0.0000       3.748290       101.9962 
 125   0.0000       3.754609       102.1681 
 126   0.0000       3.754629       102.1687 
 127   0.0000       3.863689       105.1363 
 128   0.0000       3.886827       105.7659 
 129   0.0000       3.886882       105.7674 
 130   0.0000       3.889999       105.8522 
 131   0.0000       3.890157       105.8565 
 132   0.0000       3.967927       107.9728 
 133   0.0000       3.968045       107.9760 
 134   0.0000       4.030243       109.6685 
 135   0.0000       4.189541       114.0032 
 136   0.0000       4.189657       114.0064 
 137   0.0000       4.193912       114.1222 
 138   0.0000       4.196966       114.2053 
 139   0.0000       4.197081       114.2084 
 140   0.0000       4.199268       114.2679 
 141   0.0000       4.204330       114.4056 
 142   0.0000       4.204439       114.4086 
 143   0.0000       4.204523       114.4109 
 144   0.0000       4.204817       114.4189 
 145   0.0000       4.208011       114.5058 
 146   0.0000       4.208042       114.5066 
 147   0.0000       4.211034       114.5881 
 148   0.0000       4.211576       114.6028 
 149   0.0000       4.211939       114.6127 
 150   0.0000       4.211987       114.6140 
 151   0.0000       4.212136       114.6180 
 152   0.0000       4.212209       114.6200 
 153   0.0000       4.219290       114.8127 
 154   0.0000       4.259822       115.9156 
 155   0.0000       4.267233       116.1173 
 156   0.0000       4.267234       116.1173 
 157   0.0000       4.278441       116.4223 
 158   0.0000       4.278453       116.4226 
 159   0.0000       4.420089       120.2767 
 160   0.0000       4.420102       120.2771 
 161   0.0000       4.552138       123.8700 
 162   0.0000      27.144738       738.6459 
 163   0.0000      27.334993       743.8230 
 164   0.0000      27.335046       743.8244 
 165   0.0000      27.427918       746.3516 
 166   0.0000      27.546727       749.5845 
 167   0.0000      27.546739       749.5849 
 168   0.0000      29.117612       792.3305 
 169   0.0000      29.835178       811.8565 
 170   0.0000      29.835204       811.8572 
 171   0.0000      43.925735      1195.2800 
 172   0.0000      44.456503      1209.7230 
 173   0.0000      44.456504      1209.7230 
 174   0.0000     203.146259      5527.8907 
 175   0.0000     203.375305      5534.1234 
 176   0.0000     203.375307      5534.1234 

                    ********************************
                    * MULLIKEN POPULATION ANALYSIS *
                    ********************************

-----------------------
MULLIKEN ATOMIC CHARGES
-----------------------
   0 Au:    0.333322
   1 Au:    0.333339
   2 Au:    0.333338
Sum of atomic charges:    1.0000000

--------------------------------
MULLIKEN REDUCED ORBITAL CHARGES
--------------------------------
  0 Aus       :     2.665422  s :     2.665422
      pz      :     2.009293  p :     6.107311
      px      :     2.016089
      py      :     2.081929
      dz2     :     1.979843  d :     9.884145
      dxz     :     1.996182
      dyz     :     1.991622
      dx2y2   :     1.976007
      dxy     :     1.940491
      f0      :     0.000984  f :     0.009635
      f+1     :     0.000548
      f-1     :     0.001420
      f+2     :     0.000589
      f-2     :     0.001279
      f+3     :     0.002542
      f-3     :     0.002273
      g0      :     0.000014  g :     0.000165
      g+1     :     0.000008
      g-1     :     0.000021
      g+2     :     0.000011
      g-2     :     0.000019
      g+3     :     0.000017
      g-3     :     0.000004
      g+4     :     0.000033
      g-4     :     0.000037
  1 Aus       :     2.665411  s :     2.665411
      pz      :     2.009293  p :     6.107308
      px      :     2.065469
      py      :     2.032546
      dz2     :     1.979845  d :     9.884141
      dxz     :     1.992762
      dyz     :     1.995042
      dx2y2   :     1.949365
      dxy     :     1.967127
      f0      :     0.000984  f :     0.009635
      f+1     :     0.001202
      f-1     :     0.000766
      f+2     :     0.001107
      f-2     :     0.000762
      f+3     :     0.002542
      f-3     :     0.002273
      g0      :     0.000014  g :     0.000165
      g+1     :     0.000017
      g-1     :     0.000011
      g+2     :     0.000017
      g-2     :     0.000013
      g+3     :     0.000017
      g-3     :     0.000004
      g+4     :     0.000036
      g-4     :     0.000034
  2 Aus       :     2.665412  s :     2.665412
      pz      :     2.009293  p :     6.107308
      px      :     2.065469
      py      :     2.032546
      dz2     :     1.979845  d :     9.884141
      dxz     :     1.992762
      dyz     :     1.995042
      dx2y2   :     1.949365
      dxy     :     1.967127
      f0      :     0.000984  f :     0.009635
      f+1     :     0.001202
      f-1     :     0.000766
      f+2     :     0.001107
      f-2     :     0.000762
      f+3     :     0.002542
      f-3     :     0.002273
      g0      :     0.000014  g :     0.000165
      g+1     :     0.000017
      g-1     :     0.000011
      g+2     :     0.000017
      g-2     :     0.000013
      g+3     :     0.000017
      g-3     :     0.000004
      g+4     :     0.000036
      g-4     :     0.000034


                     *******************************
                     * LOEWDIN POPULATION ANALYSIS *
                     *******************************

----------------------
LOEWDIN ATOMIC CHARGES
----------------------
   0 Au:    0.333329
   1 Au:    0.333335
   2 Au:    0.333335

-------------------------------
LOEWDIN REDUCED ORBITAL CHARGES
-------------------------------
  0 Aus       :     2.529797  s :     2.529797
      pz      :     2.013862  p :     6.197703
      px      :     2.032625
      py      :     2.151216
      dz2     :     1.997511  d :     9.920778
      dxz     :     1.994514
      dyz     :     1.986926
      dx2y2   :     1.980586
      dxy     :     1.961240
      f0      :     0.001595  f :     0.018139
      f+1     :     0.001156
      f-1     :     0.002668
      f+2     :     0.000842
      f-2     :     0.002191
      f+3     :     0.006047
      f-3     :     0.003639
      g0      :     0.000021  g :     0.000254
      g+1     :     0.000010
      g-1     :     0.000027
      g+2     :     0.000017
      g-2     :     0.000033
      g+3     :     0.000026
      g-3     :     0.000004
      g+4     :     0.000048
      g-4     :     0.000067
  1 Aus       :     2.529796  s :     2.529796
      pz      :     2.013862  p :     6.197702
      px      :     2.121568
      py      :     2.062271
      dz2     :     1.997512  d :     9.920775
      dxz     :     1.988823
      dyz     :     1.992618
      dx2y2   :     1.966072
      dxy     :     1.975750
      f0      :     0.001595  f :     0.018139
      f+1     :     0.002290
      f-1     :     0.001534
      f+2     :     0.001854
      f-2     :     0.001180
      f+3     :     0.006047
      f-3     :     0.003639
      g0      :     0.000021  g :     0.000254
      g+1     :     0.000023
      g-1     :     0.000015
      g+2     :     0.000029
      g-2     :     0.000021
      g+3     :     0.000026
      g-3     :     0.000004
      g+4     :     0.000062
      g-4     :     0.000053
  2 Aus       :     2.529796  s :     2.529796
      pz      :     2.013862  p :     6.197702
      px      :     2.121568
      py      :     2.062271
      dz2     :     1.997512  d :     9.920775
      dxz     :     1.988823
      dyz     :     1.992618
      dx2y2   :     1.966072
      dxy     :     1.975750
      f0      :     0.001595  f :     0.018139
      f+1     :     0.002290
      f-1     :     0.001534
      f+2     :     0.001854
      f-2     :     0.001180
      f+3     :     0.006047
      f-3     :     0.003639
      g0      :     0.000021  g :     0.000254
      g+1     :     0.000023
      g-1     :     0.000015
      g+2     :     0.000029
      g-2     :     0.000021
      g+3     :     0.000026
      g-3     :     0.000004
      g+4     :     0.000062
      g-4     :     0.000053


                      *****************************
                      * MAYER POPULATION ANALYSIS *
                      *****************************

  NA   - Mulliken gross atomic population
  ZA   - Total nuclear charge
  QA   - Mulliken gross atomic charge
  VA   - Mayer's total valence
  BVA  - Mayer's bonded valence
  FA   - Mayer's free valence

  ATOM       NA         ZA         QA         VA         BVA        FA
  0 Au    18.6667    19.0000     0.3333     1.1609     1.1609     0.0000
  1 Au    18.6667    19.0000     0.3333     1.1609     1.1609    -0.0000
  2 Au    18.6667    19.0000     0.3333     1.1609     1.1609    -0.0000

  Mayer bond orders larger than 0.100000
B(  0-Au,  1-Au) :   0.5804 B(  0-Au,  2-Au) :   0.5804 B(  1-Au,  2-Au) :   0.5804 


-------
TIMINGS
-------

Total SCF time: 0 days 0 hours 0 min 5 sec 

Total time                  ....       5.780 sec
Sum of individual times     ....       5.645 sec  ( 97.7%)

Fock matrix formation       ....       4.131 sec  ( 71.5%)
  XC integration            ....       0.647 sec  ( 15.7% of F)
    Basis function eval.    ....       0.083 sec  ( 12.9% of XC)
    Density eval.           ....       0.060 sec  (  9.2% of XC)
    XC-Functional eval.     ....       0.020 sec  (  3.0% of XC)
    XC-Potential eval.      ....       0.089 sec  ( 13.8% of XC)
Diagonalization             ....       0.068 sec  (  1.2%)
Density matrix formation    ....       0.010 sec  (  0.2%)
Population analysis         ....       0.005 sec  (  0.1%)
Initial guess               ....       0.989 sec  ( 17.1%)
Orbital Transformation      ....       0.000 sec  (  0.0%)
Orbital Orthonormalization  ....       0.000 sec  (  0.0%)
DIIS solution               ....       0.030 sec  (  0.5%)
Grid generation             ....       0.411 sec  (  7.1%)


           ************************************************************
           *        Program running with 24 parallel MPI-processes    *
           *              working on a common directory               *
           ************************************************************

------------------------------------------------------------------------------
                                ORCA  MP2 
------------------------------------------------------------------------------

Freezing NCore=0 chemical core electrons

----------------------
RI-MP2 ENERGY+GRADIENT
----------------------
Dimension of the basis                    ...  177
Memory devoted to MP2                     ... 5000 MB   
Data format for buffers                   ... DOUBLE
Compression type for matrix containers    ... UNCOMPRESSED
Scaling for aa/bb pairs                   ...   4.000e-01
Scaling for ab pairs                      ...   4.700e-01
Overall scaling of the MP2 energy         ...   1.000e+00
Calculating two index integrals           ... done (    0.010 sec)
Cholesky decomposition of the V-matrix    ... done
Cholesky decomposition of V**-1           ... done (    0.011 sec)

-----------------
RI-TRANSFORMATION (AUX index driven)
-----------------

Dimension of the orbital-basis         ... 177
Dimension of the aux-basis             ... 579
Transformation of internal MOs         ...    0-  27
Transformation of internal/external MOs...    0-  27 to   28- 176
Number Format for Storage              ... Double (8 Byte)
Integral mode                          ... Direct

First Phase: integral generation and transformation of MO indices
  Aux angular momentum 0               ... done (    0.002 sec)
  Aux angular momentum 1               ... done (    0.003 sec)
  Aux angular momentum 2               ... done (    0.002 sec)
  Aux angular momentum 3               ... done (    0.004 sec)
  Aux angular momentum 4               ... done (    0.005 sec)
  Aux angular momentum 5               ... done (    0.008 sec)
  Aux angular momentum 6               ... done (    0.012 sec)
Closing buffer VIJ ( 0.00 GB; CompressionRatio= 1.00)
Closing buffer VIA ( 0.02 GB; CompressionRatio= 1.00)
  Phase 1 completed in     0.109 sec
Second Phase: sorting and transformation of aux index

IJ-Transformation
Memory available                       ... 4991 MB 
Max. # MO pairs treated in a batch     ... 2    
# of internal orbitals                 ... 28
# batches for internal orbitals        ... 1
Closing buffer IJV ( 0.00 GB; CompressionRatio= 1.00)
(ij|v) transformation done in     0.004 sec

IA-Transformation
Memory available                       ... 4991 MB 
Max. # MO pairs treated in a batch     ... 2    
# of internal orbitals                 ... 28
# batches for internal orbitals        ... 1
Closing buffer IAV ( 0.00 GB; CompressionRatio= 1.00)
(ia|v) transformation done in     0.013 sec

  Phase 2 completed in     0.041 sec
RI-Integral transformation completed in     0.152 sec
Opening buffers                              ... done

Starting loop over batches of integrals:

Operator 0  - window                       ... (  0- 27)x( 28-176)
Operator 0  - Memory available             ...  5000 MB
Operator 0  - Memory needed per MO         ...   1.3 MB
Operator 0  - Number of orbitals per batch ... 2
Operator 0  - Number of batches            ... 1

OPERATOR  0   PASS   0:  MOs     0 ...    1 +    2 ...    3 +    4 ...    5 +    6 ...    7
                            +    8 ...    9 +   10 ...   11 +   12 ...   13 +   14 ...   15
                            +   16 ...   17 +   18 ...   19 +   20 ...   21 +   22 ...   23
                            +   24 ...   25 +   26 ...   27
  Reading integrals       ... ok
Closing buffer GIPV ( 0.00 GB; CompressionRatio= 1.00)
Time spent in pair loops =     0.466 sec

-----------------------------------------------
 RI-MP2 CORRELATION ENERGY:     -0.886890983 Eh
-----------------------------------------------


---------------------
MP2 DENSITY FORMATION
---------------------

Completing the external part of the density      ... done
Storing the unrelaxed density                    ... done

Calculating the xc-kernel                        ... done
Calculating G(D)                                 ... done
Completing the Lagrangian                        ... done
Solving the Z-vector equations                   ... 

------------------------------------------------------------------------------
                           ORCA CP-SCF CALCULATION
------------------------------------------------------------------------------

Input orbitals are from        ... Au03C1_D3H.gbw
Input Perturbation             ... Au03C1_D3H.pin.tmp
Wavefunction output            ... Au03C1_D3H.pout.tmp
Perturbation mode              ... Real perturbation (singlet)
Solver                         ... POPLE
Max. number of iterations      ... 128
Convergence tolerance          ... 1.000e-08
Integral handling              ... Direct
Number of perturbations        ... 1
Number of operators            ... 1
Orbital ranges used for CP-SCF:
 Operator 0:  Orbitals   0... 27  to  28...176
DFT calculation                         ... on
Exchange functional (SCF)               ... B88
Exchange functional (CP-SCF)            ... B88
   X-Alpha parameter    XAlpha (SCF)    ...  0.666667
   X-Alpha parameter    XAlpha (CP-SCF) ...  0.666667
   Becke's b parameter  XBeta (SCF)     ...  0.004200
   Becke's b parameter  XBeta (CP-SCF)  ...  0.004200
Correlation functional (SCF)            ... LYP
Correlation functional (CP-SCF)         ... LYP
 LDA part of GGA corr.  LDAOpt (SCF)    ... VWN-5
 LDA part of GGA corr.  LDAOpt (CP-SCF) ... VWN-5
Hybrid DFT                              ... on
   Exchange mixing (SCF)                ...  0.710
   Exchange mixing (CP-SCF)             ...  0.710
   GGA exch. scaling(SCF)               ...  0.290
   GGA exch. scaling (CP-SCF)           ...  0.290
   GGA corr. scaling (SCF)              ...  0.540
   GGA corr. scaling (CP-SCF)           ...  0.540
Variables per vector in CP-SCF ... 4172
Number of vectors sought       ... 1
Recalculating density on grid  ... done
Calculating the xc-kernel      ... done
     CP-SCF ITERATION   0: 
     CP-SCF ITERATION   1:      0.000810964660
     CP-SCF ITERATION   2:      0.000301964129
     CP-SCF ITERATION   3:      0.000021011802
     CP-SCF ITERATION   4:      0.000001089403
     CP-SCF ITERATION   5:      0.000000054346
     CP-SCF ITERATION   6:      0.000000000985
done
Finalizing the relaxed density                   ... done
Transforming P to the AO basis                   ... done
Storing the relaxed density                      ... done

------------------------------------
ENERGY WEIGHTED DENSITY FINALIZATION
------------------------------------

Gathering the parts of the W-matrix              ... done
Forming the Z-density                            ... done
Transforming Z to the AO basis                   ... done
Calculating G(Z)                                 ... done
Finalizing the W-matrix                          ... done
Transforming W to the AO basis and storing       ... done
Entering the RIJONX and RIJCOSX sections
Starting the three-index derivative integrals:
Operator 0  - Memory available             ...  5000 MB
Operator 0  - Memory needed per MO         ...   1.6 MB
Operator 0  - Number of orbitals per batch ... 2
Operator 0  - Number of batches            ... 1

OPERATOR  0   PASS   0:  MOs     0 ...    1 +    2 ...    3 +    4 ...    5 +    6 ...    7
                            +    8 ...    9 +   10 ...   11 +   12 ...   13 +   14 ...   15
                            +   16 ...   17 +   18 ...   19 +   20 ...   21 +   22 ...   23
                            +   24 ...   25 +   26 ...   27

----------------------------------
MP2 DERIVATIVE INTEGRAL GENERATION
----------------------------------


Input Correlated Electron Density   ... Au03C1_D3H.pmp2re
Input Energy Weighted Density       ... Au03C1_D3H.wmp2.tmp
Input SCF Electron Density          ... Au03C1_D3H.scfp

One-Electron Terms    ...
  ECP gradient                                           ... One-Electron Terms done
Prescreening matrices              ... done
Exchange-correlation gradient    ... done
Dispersion correction            ... done

                *********************************************
                * UNRELAXED MP2 DENSITY POPULATION ANALYSIS *
                *********************************************

------------------------------------------------------------------------------
                           ORCA POPULATION ANALYSIS
------------------------------------------------------------------------------
Input electron density              ... Au03C1_D3H.pmp2ur
BaseName (.gbw .S,...)              ... Au03C1_D3H

                    ********************************
                    * MULLIKEN POPULATION ANALYSIS *
                    ********************************

-----------------------
MULLIKEN ATOMIC CHARGES
-----------------------
   0 Au:    0.333322
   1 Au:    0.333339
   2 Au:    0.333338
Sum of atomic charges:    1.0000000

--------------------------------
MULLIKEN REDUCED ORBITAL CHARGES
--------------------------------
  0 Aus       :     2.661664  s :     2.661664
      pz      :     2.016440  p :     6.121704
      px      :     2.023155
      py      :     2.082109
      dz2     :     1.964133  d :     9.804180
      dxz     :     1.980787
      dyz     :     1.976249
      dx2y2   :     1.960127
      dxy     :     1.922884
      f0      :     0.010157  f :     0.073835
      f+1     :     0.009723
      f-1     :     0.010493
      f+2     :     0.009786
      f-2     :     0.010488
      f+3     :     0.011665
      f-3     :     0.011523
      g0      :     0.000576  g :     0.005295
      g+1     :     0.000565
      g-1     :     0.000591
      g+2     :     0.000578
      g-2     :     0.000586
      g+3     :     0.000590
      g-3     :     0.000575
      g+4     :     0.000615
      g-4     :     0.000618
  1 Aus       :     2.661654  s :     2.661654
      pz      :     2.016440  p :     6.121701
      px      :     2.067371
      py      :     2.037890
      dz2     :     1.964135  d :     9.804176
      dxz     :     1.977383
      dyz     :     1.979653
      dx2y2   :     1.932189
      dxy     :     1.950816
      f0      :     0.010157  f :     0.073835
      f+1     :     0.010300
      f-1     :     0.009916
      f+2     :     0.010313
      f-2     :     0.009961
      f+3     :     0.011665
      f-3     :     0.011523
      g0      :     0.000576  g :     0.005295
      g+1     :     0.000585
      g-1     :     0.000572
      g+2     :     0.000584
      g-2     :     0.000580
      g+3     :     0.000590
      g-3     :     0.000575
      g+4     :     0.000617
      g-4     :     0.000615
  2 Aus       :     2.661655  s :     2.661655
      pz      :     2.016440  p :     6.121701
      px      :     2.067371
      py      :     2.037890
      dz2     :     1.964135  d :     9.804176
      dxz     :     1.977383
      dyz     :     1.979653
      dx2y2   :     1.932189
      dxy     :     1.950816
      f0      :     0.010157  f :     0.073835
      f+1     :     0.010300
      f-1     :     0.009916
      f+2     :     0.010313
      f-2     :     0.009961
      f+3     :     0.011665
      f-3     :     0.011523
      g0      :     0.000576  g :     0.005295
      g+1     :     0.000585
      g-1     :     0.000572
      g+2     :     0.000584
      g-2     :     0.000580
      g+3     :     0.000590
      g-3     :     0.000575
      g+4     :     0.000617
      g-4     :     0.000615


                     *******************************
                     * LOEWDIN POPULATION ANALYSIS *
                     *******************************

----------------------
LOEWDIN ATOMIC CHARGES
----------------------
   0 Au:    0.333329
   1 Au:    0.333335
   2 Au:    0.333335

-------------------------------
LOEWDIN REDUCED ORBITAL CHARGES
-------------------------------
  0 Aus       :     2.523626  s :     2.523626
      pz      :     2.020715  p :     6.212108
      px      :     2.040394
      py      :     2.150999
      dz2     :     1.982069  d :     9.842532
      dxz     :     1.979200
      dyz     :     1.971680
      dx2y2   :     1.964913
      dxy     :     1.944670
      f0      :     0.010802  f :     0.083003
      f+1     :     0.010390
      f-1     :     0.011896
      f+2     :     0.010047
      f-2     :     0.011441
      f+3     :     0.015498
      f-3     :     0.012930
      g0      :     0.000585  g :     0.005402
      g+1     :     0.000568
      g-1     :     0.000599
      g+2     :     0.000585
      g-2     :     0.000603
      g+3     :     0.000601
      g-3     :     0.000576
      g+4     :     0.000632
      g-4     :     0.000654
  1 Aus       :     2.523625  s :     2.523625
      pz      :     2.020715  p :     6.212107
      px      :     2.123348
      py      :     2.068044
      dz2     :     1.982070  d :     9.842528
      dxz     :     1.973560
      dyz     :     1.977320
      dx2y2   :     1.949726
      dxy     :     1.959852
      f0      :     0.010802  f :     0.083003
      f+1     :     0.011519
      f-1     :     0.010766
      f+2     :     0.011092
      f-2     :     0.010396
      f+3     :     0.015498
      f-3     :     0.012930
      g0      :     0.000585  g :     0.005402
      g+1     :     0.000592
      g-1     :     0.000576
      g+2     :     0.000598
      g-2     :     0.000589
      g+3     :     0.000601
      g-3     :     0.000576
      g+4     :     0.000648
      g-4     :     0.000638
  2 Aus       :     2.523625  s :     2.523625
      pz      :     2.020715  p :     6.212107
      px      :     2.123348
      py      :     2.068044
      dz2     :     1.982070  d :     9.842528
      dxz     :     1.973560
      dyz     :     1.977320
      dx2y2   :     1.949726
      dxy     :     1.959852
      f0      :     0.010802  f :     0.083003
      f+1     :     0.011519
      f-1     :     0.010766
      f+2     :     0.011092
      f-2     :     0.010396
      f+3     :     0.015498
      f-3     :     0.012930
      g0      :     0.000585  g :     0.005402
      g+1     :     0.000592
      g-1     :     0.000576
      g+2     :     0.000598
      g-2     :     0.000589
      g+3     :     0.000601
      g-3     :     0.000576
      g+4     :     0.000648
      g-4     :     0.000638


                      *****************************
                      * MAYER POPULATION ANALYSIS *
                      *****************************

  NA   - Mulliken gross atomic population
  ZA   - Total nuclear charge
  QA   - Mulliken gross atomic charge
  VA   - Mayer's total valence
  BVA  - Mayer's bonded valence
  FA   - Mayer's free valence

  ATOM       NA         ZA         QA         VA         BVA        FA
  0 Au    18.6667    19.0000     0.3333     1.6976     1.0877     0.6100
  1 Au    18.6667    19.0000     0.3333     1.6976     1.0877     0.6100
  2 Au    18.6667    19.0000     0.3333     1.6976     1.0877     0.6100

  Mayer bond orders larger than 0.100000
B(  0-Au,  1-Au) :   0.5438 B(  0-Au,  2-Au) :   0.5438 B(  1-Au,  2-Au) :   0.5438 



                *******************************************
                * RELAXED MP2 DENSITY POPULATION ANALYSIS *
                *******************************************

------------------------------------------------------------------------------
                           ORCA POPULATION ANALYSIS
------------------------------------------------------------------------------
Input electron density              ... Au03C1_D3H.pmp2re
BaseName (.gbw .S,...)              ... Au03C1_D3H

                    ********************************
                    * MULLIKEN POPULATION ANALYSIS *
                    ********************************

-----------------------
MULLIKEN ATOMIC CHARGES
-----------------------
   0 Au:    0.333321
   1 Au:    0.333340
   2 Au:    0.333339
Sum of atomic charges:    1.0000000

--------------------------------
MULLIKEN REDUCED ORBITAL CHARGES
--------------------------------
  0 Aus       :     2.706636  s :     2.706636
      pz      :     2.019641  p :     6.111317
      px      :     2.028067
      py      :     2.063610
      dz2     :     1.958360  d :     9.768892
      dxz     :     1.979539
      dyz     :     1.974047
      dx2y2   :     1.954946
      dxy     :     1.902000
      f0      :     0.010250  f :     0.074520
      f+1     :     0.009767
      f-1     :     0.010557
      f+2     :     0.009832
      f-2     :     0.010590
      f+3     :     0.011823
      f-3     :     0.011700
      g0      :     0.000579  g :     0.005314
      g+1     :     0.000566
      g-1     :     0.000594
      g+2     :     0.000580
      g-2     :     0.000588
      g+3     :     0.000592
      g-3     :     0.000576
      g+4     :     0.000617
      g-4     :     0.000622
  1 Aus       :     2.706625  s :     2.706625
      pz      :     2.019641  p :     6.111314
      px      :     2.054724
      py      :     2.036949
      dz2     :     1.958362  d :     9.768887
      dxz     :     1.975421
      dyz     :     1.978167
      dx2y2   :     1.915229
      dxy     :     1.941708
      f0      :     0.010250  f :     0.074520
      f+1     :     0.010359
      f-1     :     0.009965
      f+2     :     0.010400
      f-2     :     0.010021
      f+3     :     0.011823
      f-3     :     0.011700
      g0      :     0.000579  g :     0.005314
      g+1     :     0.000587
      g-1     :     0.000573
      g+2     :     0.000586
      g-2     :     0.000582
      g+3     :     0.000592
      g-3     :     0.000576
      g+4     :     0.000621
      g-4     :     0.000618
  2 Aus       :     2.706626  s :     2.706626
      pz      :     2.019641  p :     6.111315
      px      :     2.054724
      py      :     2.036949
      dz2     :     1.958362  d :     9.768887
      dxz     :     1.975421
      dyz     :     1.978167
      dx2y2   :     1.915229
      dxy     :     1.941708
      f0      :     0.010250  f :     0.074520
      f+1     :     0.010359
      f-1     :     0.009965
      f+2     :     0.010400
      f-2     :     0.010021
      f+3     :     0.011823
      f-3     :     0.011700
      g0      :     0.000579  g :     0.005314
      g+1     :     0.000587
      g-1     :     0.000573
      g+2     :     0.000586
      g-2     :     0.000582
      g+3     :     0.000592
      g-3     :     0.000576
      g+4     :     0.000621
      g-4     :     0.000618


                     *******************************
                     * LOEWDIN POPULATION ANALYSIS *
                     *******************************

----------------------
LOEWDIN ATOMIC CHARGES
----------------------
   0 Au:    0.333328
   1 Au:    0.333336
   2 Au:    0.333336

-------------------------------
LOEWDIN REDUCED ORBITAL CHARGES
-------------------------------
  0 Aus       :     2.549039  s :     2.549039
      pz      :     2.023583  p :     6.208703
      px      :     2.046966
      py      :     2.138154
      dz2     :     1.980128  d :     9.819801
      dxz     :     1.978217
      dyz     :     1.969577
      dx2y2   :     1.961084
      dxy     :     1.930796
      f0      :     0.010879  f :     0.083708
      f+1     :     0.010435
      f-1     :     0.011945
      f+2     :     0.010086
      f-2     :     0.011537
      f+3     :     0.015744
      f-3     :     0.013083
      g0      :     0.000587  g :     0.005420
      g+1     :     0.000569
      g-1     :     0.000602
      g+2     :     0.000586
      g-2     :     0.000605
      g+3     :     0.000602
      g-3     :     0.000576
      g+4     :     0.000634
      g-4     :     0.000658
  1 Aus       :     2.549038  s :     2.549038
      pz      :     2.023583  p :     6.208701
      px      :     2.115357
      py      :     2.069761
      dz2     :     1.980130  d :     9.819797
      dxz     :     1.971737
      dyz     :     1.976057
      dx2y2   :     1.938362
      dxy     :     1.953511
      f0      :     0.010879  f :     0.083708
      f+1     :     0.011567
      f-1     :     0.010812
      f+2     :     0.011174
      f-2     :     0.010449
      f+3     :     0.015744
      f-3     :     0.013083
      g0      :     0.000587  g :     0.005420
      g+1     :     0.000594
      g-1     :     0.000577
      g+2     :     0.000600
      g-2     :     0.000591
      g+3     :     0.000602
      g-3     :     0.000576
      g+4     :     0.000652
      g-4     :     0.000640
  2 Aus       :     2.549038  s :     2.549038
      pz      :     2.023583  p :     6.208701
      px      :     2.115357
      py      :     2.069761
      dz2     :     1.980130  d :     9.819797
      dxz     :     1.971737
      dyz     :     1.976057
      dx2y2   :     1.938362
      dxy     :     1.953511
      f0      :     0.010879  f :     0.083708
      f+1     :     0.011567
      f-1     :     0.010812
      f+2     :     0.011174
      f-2     :     0.010449
      f+3     :     0.015744
      f-3     :     0.013083
      g0      :     0.000587  g :     0.005420
      g+1     :     0.000594
      g-1     :     0.000577
      g+2     :     0.000600
      g-2     :     0.000591
      g+3     :     0.000602
      g-3     :     0.000576
      g+4     :     0.000652
      g-4     :     0.000640


                      *****************************
                      * MAYER POPULATION ANALYSIS *
                      *****************************

  NA   - Mulliken gross atomic population
  ZA   - Total nuclear charge
  QA   - Mulliken gross atomic charge
  VA   - Mayer's total valence
  BVA  - Mayer's bonded valence
  FA   - Mayer's free valence

  ATOM       NA         ZA         QA         VA         BVA        FA
  0 Au    18.6667    19.0000     0.3333     1.7689     1.1733     0.5956
  1 Au    18.6667    19.0000     0.3333     1.7689     1.1733     0.5956
  2 Au    18.6667    19.0000     0.3333     1.7689     1.1733     0.5956

  Mayer bond orders larger than 0.100000
B(  0-Au,  1-Au) :   0.5867 B(  0-Au,  2-Au) :   0.5867 B(  1-Au,  2-Au) :   0.5867 



-------
TIMINGS
-------

Total time                :   16.419 sec
Integral trafo            :    0.164 sec (  1.0%)
I/O of integrals          :    0.003 sec (  0.0%)
K(i,j) Operators          :    0.028 sec (  0.2%)
T(i,j) pair energies      :    0.006 sec (  0.0%)
V-calculation             :    0.010 sec (  0.1%)
V**(-1/2)                 :    0.011 sec (  0.1%)
Gamma(ia|P)               :    0.021 sec (  0.1%)
Gamma-Trafo               :    0.011 sec (  0.1%)
D(virtual)                :    0.001 sec (  0.0%)
D(internal)               :    0.013 sec (  0.1%)
W(virtual)                :    0.001 sec (  0.0%)
W(internal)               :    0.046 sec (  0.3%)
L(virtual)                :    0.274 sec (  1.7%)
L(internal)               :    0.002 sec (  0.0%)
G(D)                      :    1.110 sec (  6.8%)
G(Z)                      :    1.044 sec (  6.4%)
Z-Vector Solution         :    5.762 sec ( 35.1%)
Z-Vector Solution         :    5.762 sec ( 35.1%)
3-Index Derivative 
+ Separable RIJ part      :    1.764 sec ( 10.7%)
2-Index Derivative 
+ Separable RIJ part      :    0.009 sec (  0.1%)
Separable Gradient (X)    :    5.702 sec ( 34.7%)


---------------------------------------
MP2 TOTAL ENERGY:     -406.379619295 Eh
---------------------------------------

-----------------------------------
NORM OF THE MP2 GRADIENT:  0.002109
-----------------------------------


-------------------------------------------------------------------------------
                          DFT DISPERSION CORRECTION                            
                                                                               
                              DFTD3 V3.1  Rev 1                                
                          USING Becke-Johnson damping                          
-------------------------------------------------------------------------------
The DSD-BLYP/2013 functional is recognized
Active option DFTDOPT                   ...         4   

molecular C6(AA) [au] = 2854.409636 


            DFT-D V3
 parameters
 s6 scaling factor         :     0.5700 
 a1 scaling factor         :     0.0000 
 s8 scaling factor         :     0.0000 
 a2 scaling factor         :     5.4000 
 ad hoc parameters k1-k3   :    16.0000     1.3333    -4.0000 

 Edisp/kcal,au: -8.753314946844  -0.013949293795 
 E6   /kcal   :  -8.753314947 
 E8   /kcal   :  -0.000000000 
 % E8         :   0.000000000 

-------------------------   ----------------
Dispersion correction           -0.013949294
-------------------------   ----------------


-------------------------   --------------------
FINAL SINGLE POINT ENERGY      -406.393568589121
-------------------------   --------------------

------------------------------------------------------------------------------
                         ORCA GEOMETRY RELAXATION STEP
------------------------------------------------------------------------------

Reading the OPT-File                    .... done
Getting information on internals        .... done
Copying old internal coords+grads       .... done
Making the new internal coordinates     .... (new redundants).... done
Validating the new internal coordinates .... (new redundants).... done
Calculating the B-matrix                .... done
Calculating the G,G- and P matrices     .... done
Transforming gradient to internals      .... done
Projecting the internal gradient        .... done
Number of atoms                         ....   3
Number of internal coordinates          ....   6
Current Energy                          ....  -406.393568589 Eh
Current gradient norm                   ....     0.002108623 Eh/bohr
Maximum allowed component of the step   ....  0.300
Current trust radius                    ....  0.300
Evaluating the initial hessian          ....  (Almloef) done
Projecting the Hessian                  .... done
Forming the augmented Hessian           .... done
Diagonalizing the augmented Hessian     .... done
Last element of RFO vector              ....  0.996387185
Lowest eigenvalues of augmented Hessian:
 -0.000103763  0.014282550  0.030012252  0.030012254 1000.000000000
Length of the computed step             ....  0.085234838
The final length of the internal step   ....  0.085234838
Converting the step to cartesian space:
 Initial RMS(Int)=    0.0347969770
Transforming coordinates:
 Iter   0:  RMS(Cart)=    0.0164034693 RMS(Int)=    0.0347969767
 Iter   1:  RMS(Cart)=    0.0000000401 RMS(Int)=    0.0000000638
done
Storing new coordinates                 .... done

                                .--------------------.
          ----------------------|Geometry convergence|-------------------------
          Item                value                   Tolerance       Converged
          ---------------------------------------------------------------------
          RMS gradient        0.0004969918            0.0001000000      NO
          MAX gradient        0.0007060760            0.0003000000      NO
          RMS step            0.0347969770            0.0020000000      NO
          MAX step            0.0493175000            0.0040000000      NO
          ........................................................
          Max(Bonds)      0.0261      Max(Angles)    0.00
          Max(Dihed)        0.00      Max(Improp)    0.00
          ---------------------------------------------------------------------

The optimization has not yet converged - more geometry cycles are needed


    ---------------------------------------------------------------------------
                         Redundant Internal Coordinates
                            (Angstroem and degrees)

        Definition                    Value    dE/dq     Step     New-Value
    ----------------------------------------------------------------------------
     1. B(Au  1,Au  0)                2.6005  0.000701 -0.0260    2.5745   
     2. B(Au  2,Au  1)                2.6005  0.000706 -0.0261    2.5744   
     3. B(Au  2,Au  0)                2.6005  0.000701 -0.0260    2.5745   
     4. A(Au  1,Au  0,Au  2)           60.00  0.000001   -0.00     60.00   
     5. A(Au  0,Au  1,Au  2)           60.00 -0.000001    0.00     60.00   
     6. A(Au  0,Au  2,Au  1)           60.00 -0.000001    0.00     60.00   
    ----------------------------------------------------------------------------

         *************************************************************
         *                GEOMETRY OPTIMIZATION CYCLE   2            *
         *************************************************************
---------------------------------
CARTESIAN COORDINATES (ANGSTROEM)
---------------------------------
  Au     0.000000    1.486398    0.000000
  Au     1.287202   -0.743199    0.000000
  Au    -1.287202   -0.743199    0.000000

----------------------------
CARTESIAN COORDINATES (A.U.)
----------------------------
  NO LB      ZA    FRAG     MASS         X           Y           Z
   0 Au   19.0000*   0   196.966    0.000000    2.808885    0.000000
   1 Au   19.0000*   0   196.966    2.432460   -1.404442    0.000000
   2 Au   19.0000*   0   196.966   -2.432460   -1.404443    0.000000
* core charge reduced due to ECP

--------------------------------
INTERNAL COORDINATES (ANGSTROEM)
--------------------------------
 Au     0   0   0     0.000000000000     0.00000000     0.00000000
 Au     1   0   0     2.574488593135     0.00000000     0.00000000
 Au     2   1   0     2.574404366313    60.00108679     0.00000000

---------------------------
INTERNAL COORDINATES (A.U.)
---------------------------
 Au     0   0   0     0.000000000000     0.00000000     0.00000000
 Au     1   0   0     4.865078375929     0.00000000     0.00000000
 Au     2   1   0     4.864919210303    60.00108679     0.00000000



           ************************************************************
           *        Program running with 24 parallel MPI-processes    *
           *              working on a common directory               *
           ************************************************************
 One Electron integrals                  ... done
 Pre-screening matrix                    ... done


           ************************************************************
           *        Program running with 24 parallel MPI-processes    *
           *              working on a common directory               *
           ************************************************************

Diagonalization of the overlap matrix:
Smallest eigenvalue                        ... 1.531e-03
Time for diagonalization                   ...    0.006 sec
Threshold for overlap eigenvalues          ... 1.000e-08
Number of eigenvalues below threshold      ... 0
Time for construction of square roots      ...    0.003 sec
Total time needed                          ...    0.009 sec

-------------------
DFT GRID GENERATION
-------------------

General Integration Accuracy     IntAcc      ...  4.670
Radial Grid Type                 RadialGrid  ... Gauss-Chebyshev
Angular Grid (max. acc.)         AngularGrid ... Lebedev-302
Angular grid pruning method      GridPruning ... 3 (G Style)
Weight generation scheme         WeightScheme... Becke
Basis function cutoff            BFCut       ...    1.0000e-11
Integration weight cutoff        WCut        ...    1.0000e-14
Grids for H and He will be reduced by one unit

# of grid points (after initial pruning)     ...  34956 (   0.0 sec)
# of grid points (after weights+screening)   ...  34814 (   0.0 sec)
nearest neighbour list constructed           ...    0.0 sec
Grid point re-assignment to atoms done       ...    0.0 sec
Grid point division into batches done        ...    0.3 sec
Reduced shell lists constructed in    0.4 sec

Total number of grid points                  ...    34814
Total number of batches                      ...      545
Average number of points per batch           ...       63
Average number of grid points per atom       ...    11605
Average number of shells per batch           ...     5.00 ( 9.80%)
Average number of basis functions per batch  ...    13.17 ( 7.44%)
Average number of large shells per batch     ...     3.08 (61.67%)
Average number of large basis fcns per batch ...     7.25 (55.06%)
Average number of aux-shells per batch       ...     5.00 ( 3.27%)
Average number of aux functions per batch    ...    13.17 ( 1.78%)
Maximum spatial batch extension              ...  27.45, 22.82, 24.85 au
Average spatial batch extension              ...   0.74,  0.63,  0.66 au

Time for grid setup =    0.397 sec

--------------
SCF ITERATIONS
--------------
ITER       Energy         Delta-E        Max-DP      RMS-DP      [F,P]     Damp
  0   -405.4901073636   0.000000000000 0.00096300  0.00002654  0.0545859 0.7000
  1   -405.4893281734   0.000779190212 0.00120107  0.00002897  0.0383378 0.7000
                               ***Turning on DIIS***
  2   -405.4891717498   0.000156423621 0.00371074  0.00008139  0.0268414 0.0000
  3   -405.4902470186  -0.001075268859 0.00063386  0.00002506  0.0008500 0.0000
  4   -405.4902481136  -0.000001094965 0.00025479  0.00001039  0.0009299 0.0000
  5   -405.4902515404  -0.000003426804 0.00013101  0.00000367  0.0000573 0.0000
  6   -405.4902516246  -0.000000084250 0.00008252  0.00000211  0.0000418 0.0000
  7   -405.4902516542  -0.000000029598 0.00009026  0.00000185  0.0000177 0.0000
  8   -405.4902516659  -0.000000011650 0.00002218  0.00000040  0.0000054 0.0000
  9   -405.4902516665  -0.000000000570 0.00000348  0.00000007  0.0000011 0.0000
                 **** Energy Check signals convergence ****

               *****************************************************
               *                     SUCCESS                       *
               *           SCF CONVERGED AFTER  10 CYCLES          *
               *****************************************************

Total Energy       :         -405.49025167 Eh          -11033.95070 eV
  Last Energy change         ...   -2.8990e-11  Tolerance :   1.0000e-08
  Last MAX-Density change    ...    7.4108e-07  Tolerance :   1.0000e-07
             **** THE GBW FILE WAS UPDATED (Au03C1_D3H.gbw) ****
             **** DENSITY FILE WAS UPDATED (Au03C1_D3H.scfp) ****
             **** ENERGY FILE WAS UPDATED (Au03C1_D3H.en.tmp) ****
             **** THE GBW FILE WAS UPDATED (Au03C1_D3H.gbw) ****
             **** DENSITY FILE WAS UPDATED (Au03C1_D3H.scfp) ****
Total SCF time: 0 days 0 hours 0 min 3 sec 


           ************************************************************
           *        Program running with 24 parallel MPI-processes    *
           *              working on a common directory               *
           ************************************************************

------------------------------------------------------------------------------
                                ORCA  MP2 
------------------------------------------------------------------------------

Freezing NCore=0 chemical core electrons

----------------------
RI-MP2 ENERGY+GRADIENT
----------------------
Dimension of the basis                    ...  177
Memory devoted to MP2                     ... 5000 MB   
Data format for buffers                   ... DOUBLE
Compression type for matrix containers    ... UNCOMPRESSED
Scaling for aa/bb pairs                   ...   4.000e-01
Scaling for ab pairs                      ...   4.700e-01
Overall scaling of the MP2 energy         ...   1.000e+00
Calculating two index integrals           ... done (    0.015 sec)
Cholesky decomposition of the V-matrix    ... done
Cholesky decomposition of V**-1           ... done (    0.012 sec)

-----------------
RI-TRANSFORMATION (AUX index driven)
-----------------

Dimension of the orbital-basis         ... 177
Dimension of the aux-basis             ... 579
Transformation of internal MOs         ...    0-  27
Transformation of internal/external MOs...    0-  27 to   28- 176
Number Format for Storage              ... Double (8 Byte)
Integral mode                          ... Direct

First Phase: integral generation and transformation of MO indices
  Aux angular momentum 0               ... done (    0.002 sec)
  Aux angular momentum 1               ... done (    0.003 sec)
  Aux angular momentum 2               ... done (    0.002 sec)
  Aux angular momentum 3               ... done (    0.004 sec)
  Aux angular momentum 4               ... done (    0.005 sec)
  Aux angular momentum 5               ... done (    0.008 sec)
  Aux angular momentum 6               ... done (    0.012 sec)
Closing buffer VIJ ( 0.00 GB; CompressionRatio= 1.00)
Closing buffer VIA ( 0.02 GB; CompressionRatio= 1.00)
  Phase 1 completed in     0.145 sec
Second Phase: sorting and transformation of aux index

IJ-Transformation
Memory available                       ... 4991 MB 
Max. # MO pairs treated in a batch     ... 2    
# of internal orbitals                 ... 28
# batches for internal orbitals        ... 1
[...]
      f+2     :     0.011217
      f-2     :     0.010477
      f+3     :     0.015856
      f-3     :     0.013159
      g0      :     0.000587  g :     0.005428
      g+1     :     0.000595
      g-1     :     0.000578
      g+2     :     0.000601
      g-2     :     0.000592
      g+3     :     0.000603
      g-3     :     0.000576
      g+4     :     0.000654
      g-4     :     0.000642
  2 Aus       :     2.548877  s :     2.548877
      pz      :     2.023732  p :     6.209306
      px      :     2.115546
      py      :     2.070028
      dz2     :     1.980022  d :     9.818986
      dxz     :     1.971591
      dyz     :     1.975957
      dx2y2   :     1.938153
      dxy     :     1.953262
      f0      :     0.010915  f :     0.084067
      f+1     :     0.011603
      f-1     :     0.010840
      f+2     :     0.011217
      f-2     :     0.010477
      f+3     :     0.015856
      f-3     :     0.013159
      g0      :     0.000587  g :     0.005428
      g+1     :     0.000595
      g-1     :     0.000578
      g+2     :     0.000601
      g-2     :     0.000592
      g+3     :     0.000603
      g-3     :     0.000576
      g+4     :     0.000654
      g-4     :     0.000642


                      *****************************
                      * MAYER POPULATION ANALYSIS *
                      *****************************

  NA   - Mulliken gross atomic population
  ZA   - Total nuclear charge
  QA   - Mulliken gross atomic charge
  VA   - Mayer's total valence
  BVA  - Mayer's bonded valence
  FA   - Mayer's free valence

  ATOM       NA         ZA         QA         VA         BVA        FA
  0 Au    18.6667    19.0000     0.3333     1.7712     1.1754     0.5958
  1 Au    18.6667    19.0000     0.3333     1.7712     1.1755     0.5958
  2 Au    18.6667    19.0000     0.3333     1.7712     1.1755     0.5958

  Mayer bond orders larger than 0.100000
B(  0-Au,  1-Au) :   0.5877 B(  0-Au,  2-Au) :   0.5877 B(  1-Au,  2-Au) :   0.5877 



-------
TIMINGS
-------

Total time                :   16.629 sec
Integral trafo            :    0.163 sec (  1.0%)
I/O of integrals          :    0.003 sec (  0.0%)
K(i,j) Operators          :    0.028 sec (  0.2%)
T(i,j) pair energies      :    0.006 sec (  0.0%)
V-calculation             :    0.011 sec (  0.1%)
V**(-1/2)                 :    0.015 sec (  0.1%)
Gamma(ia|P)               :    0.021 sec (  0.1%)
Gamma-Trafo               :    0.010 sec (  0.1%)
D(virtual)                :    0.001 sec (  0.0%)
D(internal)               :    0.014 sec (  0.1%)
W(virtual)                :    0.001 sec (  0.0%)
W(internal)               :    0.046 sec (  0.3%)
L(virtual)                :    0.276 sec (  1.7%)
L(internal)               :    0.002 sec (  0.0%)
G(D)                      :    1.122 sec (  6.7%)
G(Z)                      :    1.048 sec (  6.3%)
Z-Vector Solution         :    5.903 sec ( 35.5%)
Z-Vector Solution         :    5.903 sec ( 35.5%)
3-Index Derivative 
+ Separable RIJ part      :    1.657 sec ( 10.0%)
2-Index Derivative 
+ Separable RIJ part      :    0.008 sec (  0.0%)
Separable Gradient (X)    :    5.765 sec ( 34.7%)


---------------------------------------
MP2 TOTAL ENERGY:     -406.379578046 Eh
---------------------------------------

-----------------------------------
NORM OF THE MP2 GRADIENT:  0.000017
-----------------------------------


-------------------------------------------------------------------------------
                          DFT DISPERSION CORRECTION                            
                                                                               
                              DFTD3 V3.1  Rev 1                                
                          USING Becke-Johnson damping                          
-------------------------------------------------------------------------------
The DSD-BLYP/2013 functional is recognized
Active option DFTDOPT                   ...         4   

molecular C6(AA) [au] = 2854.409485 


            DFT-D V3
 parameters
 s6 scaling factor         :     0.5700 
 a1 scaling factor         :     0.0000 
 s8 scaling factor         :     0.0000 
 a2 scaling factor         :     5.4000 
 ad hoc parameters k1-k3   :    16.0000     1.3333    -4.0000 

 Edisp/kcal,au: -8.784851778589  -0.013999550930 
 E6   /kcal   :  -8.784851779 
 E8   /kcal   :  -0.000000000 
 % E8         :   0.000000000 

-------------------------   ----------------
Dispersion correction           -0.013999551
-------------------------   ----------------


-------------------------   --------------------
FINAL SINGLE POINT ENERGY      -406.393577597358
-------------------------   --------------------

                                *** OPTIMIZATION RUN DONE ***

                            ***************************************
                            *     ORCA property calculations      *
                            ***************************************

                                    ---------------------
                                    Active property flags
                                    ---------------------
   (+) Dipole Moment


------------------------------------------------------------------------------
                       ORCA ELECTRIC PROPERTIES CALCULATION
------------------------------------------------------------------------------

Dipole Moment Calculation                       ... on
Quadrupole Moment Calculation                   ... off
Polarizability Calculation                      ... off
GBWName                                         ... Au03C1_D3H.gbw
Electron density file                           ... Au03C1_D3H.scfp
The origin for moment calculation is the CENTER OF MASS  = (-0.000000,  0.000000  0.000000)

-------------
DIPOLE MOMENT
-------------
                                X             Y             Z
Electronic contribution:      0.00000      -0.00001       0.00000
Nuclear contribution   :      0.00000      -0.00000       0.00000
                        -----------------------------------------
Total Dipole Moment    :      0.00000      -0.00001       0.00000
                        -----------------------------------------
Magnitude (a.u.)       :      0.00001
Magnitude (Debye)      :      0.00002



--------------------
Rotational spectrum 
--------------------
 
Rotational constants in cm-1:     0.025396     0.025396     0.012698 
Rotational constants in MHz :   761.353478   761.340974   380.673613 

 Dipole components along the rotational axes: 
x,y,z [a.u.] :     0.000007    -0.000000     0.000000 
x,y,z [Debye]:     0.000019    -0.000000     0.000000 

 

                         *** MP2 UNRELAXED DENSITY ***

------------------------------------------------------------------------------
                       ORCA ELECTRIC PROPERTIES CALCULATION
------------------------------------------------------------------------------

Dipole Moment Calculation                       ... on
Quadrupole Moment Calculation                   ... off
Polarizability Calculation                      ... off
GBWName                                         ... Au03C1_D3H.gbw
Electron density file                           ... Au03C1_D3H.pmp2ur
The origin for moment calculation is the CENTER OF MASS  = (-0.000000,  0.000000  0.000000)

-------------
DIPOLE MOMENT
-------------
                                X             Y             Z
Electronic contribution:      0.00000      -0.00001       0.00000
Nuclear contribution   :      0.00000      -0.00000       0.00000
                        -----------------------------------------
Total Dipole Moment    :      0.00000      -0.00001       0.00000
                        -----------------------------------------
Magnitude (a.u.)       :      0.00001
Magnitude (Debye)      :      0.00002



--------------------
Rotational spectrum 
--------------------
 
Rotational constants in cm-1:     0.025396     0.025396     0.012698 
Rotational constants in MHz :   761.353478   761.340974   380.673613 

 Dipole components along the rotational axes: 
x,y,z [a.u.] :     0.000008    -0.000000     0.000000 
x,y,z [Debye]:     0.000020    -0.000000     0.000000 

 

                           *** MP2 RELAXED DENSITY ***

------------------------------------------------------------------------------
                       ORCA ELECTRIC PROPERTIES CALCULATION
------------------------------------------------------------------------------

Dipole Moment Calculation                       ... on
Quadrupole Moment Calculation                   ... off
Polarizability Calculation                      ... off
GBWName                                         ... Au03C1_D3H.gbw
Electron density file                           ... Au03C1_D3H.pmp2re
The origin for moment calculation is the CENTER OF MASS  = (-0.000000,  0.000000  0.000000)

-------------
DIPOLE MOMENT
-------------
                                X             Y             Z
Electronic contribution:      0.00000      -0.00001       0.00000
Nuclear contribution   :      0.00000      -0.00000       0.00000
                        -----------------------------------------
Total Dipole Moment    :      0.00000      -0.00001       0.00000
                        -----------------------------------------
Magnitude (a.u.)       :      0.00001
Magnitude (Debye)      :      0.00002



--------------------
Rotational spectrum 
--------------------
 
Rotational constants in cm-1:     0.025396     0.025396     0.012698 
Rotational constants in MHz :   761.353478   761.340974   380.673613 

 Dipole components along the rotational axes: 
x,y,z [a.u.] :     0.000009    -0.000000     0.000000 
x,y,z [Debye]:     0.000024    -0.000000     0.000000 

 

----------------------------------------------------------------------------
                           ORCA NUMERICAL FREQUENCIES
                              (24-process run)
----------------------------------------------------------------------------

Number of atoms                ... 3
Central differences            ... used
Number of displacements        ... 18
Numerical increment            ... 5.000e-03 bohr
IR-spectrum generation         ... on
Raman-spectrum generation      ... off
Surface Crossing Hessian       ... off

 WARNING: There are more processes than displacements to do
  ====> : Reducing number of processes to   9

The output will be reduced. Please look at the following files:
SCF program output             ... >Au03C1_D3H.lastscf
Integral program output        ... >Au03C1_D3H.lastint
Gradient program output        ... >Au03C1_D3H.lastgrad
Dipole moment program output   ... >Au03C1_D3H.lastmom
AutoCI program output          ... >Au03C1_D3H.lastautoci


         <<< Energy and Gradient at the input geometry >>>

        <<< Energy and Gradient at displaced geometries >>>
             <<<Displacing   1/coordinate 1 (+)>>>
             <<<Displacing   2/coordinate 1 (+)>>>
             <<<Displacing   2/coordinate 3 (+)>>>
             <<<Displacing   1/coordinate 3 (+)>>>
             <<<Displacing   3/coordinate 2 (+)>>>
             <<<Displacing   2/coordinate 2 (+)>>>
             <<<Displacing   1/coordinate 2 (+)>>>
             <<<Displacing   3/coordinate 1 (+)>>>
             <<<Displacing   3/coordinate 3 (+)>>>
             <<<Displacing   2/coordinate 3 (-)>>>
             <<<Displacing   1/coordinate 3 (-)>>>
             <<<Displacing   1/coordinate 1 (-)>>>
             <<<Displacing   3/coordinate 3 (-)>>>
             <<<Displacing   2/coordinate 1 (-)>>>
             <<<Displacing   1/coordinate 2 (-)>>>
             <<<Displacing   2/coordinate 2 (-)>>>
             <<<Displacing   3/coordinate 1 (-)>>>
             <<<Displacing   3/coordinate 2 (-)>>>

-----------------------
VIBRATIONAL FREQUENCIES
-----------------------

Scaling factor for frequencies =  1.000000000 (already applied!)

   0:         0.00 cm**-1
   1:         0.00 cm**-1
   2:         0.00 cm**-1
   3:         0.00 cm**-1
   4:         0.00 cm**-1
   5:         0.00 cm**-1
   6:       120.78 cm**-1
   7:       122.20 cm**-1
   8:       187.14 cm**-1


------------
NORMAL MODES
------------

These modes are the cartesian displacements weighted by the diagonal matrix
M(i,i)=1/sqrt(m[i]) where m[i] is the mass of the displaced atom
Thus, these vectors are normalized but *not* orthogonal

                  0          1          2          3          4          5    
      0       0.000000   0.000000   0.000000   0.000000   0.000000   0.000000
      1       0.000000   0.000000   0.000000   0.000000   0.000000   0.000000
      2       0.000000   0.000000   0.000000   0.000000   0.000000   0.000000
      3       0.000000   0.000000   0.000000   0.000000   0.000000   0.000000
      4       0.000000   0.000000   0.000000   0.000000   0.000000   0.000000
      5       0.000000   0.000000   0.000000   0.000000   0.000000   0.000000
      6       0.000000   0.000000   0.000000   0.000000   0.000000   0.000000
      7       0.000000   0.000000   0.000000   0.000000   0.000000   0.000000
      8       0.000000   0.000000   0.000000   0.000000   0.000000   0.000000
                   6          7          8    
      0       0.000232   0.577348  -0.000002
      1       0.577885  -0.000230   0.576815
      2       0.000000   0.000000   0.000000
      3      -0.499653  -0.288472   0.500464
      4      -0.288742   0.500117  -0.288410
      5       0.000000   0.000000   0.000000
      6       0.499421  -0.288876  -0.500462
      7      -0.289143  -0.499887  -0.288406
      8       0.000000   0.000000   0.000000


-----------
IR SPECTRUM  
-----------

 Mode    freq (cm**-1)   T**2         TX         TY         TZ
-------------------------------------------------------------------
   6:       120.78    0.624749  ( -0.000324   0.790410   0.000001)
   7:       122.20    0.650546  ( -0.806564  -0.000322   0.000001)
   8:       187.14    0.000000  ( -0.000001  -0.000687  -0.000003)

The first frequency considered to be a vibration is 6
The total number of vibrations considered is 3


--------------------------
THERMOCHEMISTRY AT 298.15K
--------------------------

Temperature         ... 298.15 K
Pressure            ... 1.00 atm
Total Mass          ... 590.90 AMU

Throughout the following assumptions are being made:
  (1) The electronic state is orbitally nondegenerate
  (2) There are no thermally accessible electronically excited states
  (3) Hindered rotations indicated by low frequency modes are not
      treated as such but are treated as vibrations and this may
      cause some error
  (4) All equations used are the standard statistical mechanics
      equations for an ideal gas
  (5) All vibrations are strictly harmonic

freq.     120.78  E(vib)   ...       0.44 
freq.     122.20  E(vib)   ...       0.43 
freq.     187.14  E(vib)   ...       0.36 

------------
INNER ENERGY
------------

The inner energy is: U= E(el) + E(ZPE) + E(vib) + E(rot) + E(trans)
    E(el)   - is the total energy from the electronic structure calculation
              = E(kin-el) + E(nuc-el) + E(el-el) + E(nuc-nuc)
    E(ZPE)  - the the zero temperature vibrational energy from the frequency calculation
    E(vib)  - the the finite temperature correction to E(ZPE) due to population
              of excited vibrational states
    E(rot)  - is the rotational thermal energy
    E(trans)- is the translational thermal energy

Summary of contributions to the inner energy U:
Electronic energy                ...   -406.39357730 Eh
Zero point energy                ...      0.00097988 Eh       0.61 kcal/mol
Thermal vibrational correction   ...      0.00196984 Eh       1.24 kcal/mol
Thermal rotational correction    ...      0.00141627 Eh       0.89 kcal/mol
Thermal translational correction ...      0.00141627 Eh       0.89 kcal/mol
-----------------------------------------------------------------------
Total thermal energy                   -406.38779503 Eh


Summary of corrections to the electronic energy:
(perhaps to be used in another calculation)
Total thermal correction                  0.00480238 Eh       3.01 kcal/mol
Non-thermal (ZPE) correction              0.00097988 Eh       0.61 kcal/mol
-----------------------------------------------------------------------
Total correction                          0.00578226 Eh       3.63 kcal/mol


--------
ENTHALPY
--------

The enthalpy is H = U + kB*T
                kB is Boltzmann's constant
Total free energy                 ...   -406.38779503 Eh 
Thermal Enthalpy correction       ...      0.00094421 Eh       0.59 kcal/mol
-----------------------------------------------------------------------
Total Enthalpy                    ...   -406.38685082 Eh


Note: Rotational entropy computed according to Herzberg 
Infrared and Raman Spectra, Chapter V,1, Van Nostrand Reinhold, 1945 
Point Group:  C2v, Symmetry Number:   2  
Rotational constants in cm-1:     0.025396     0.025396     0.012698 

Vibrational entropy computed according to the QRRHO of S. Grimme
Chem.Eur.J. 2012 18 9955


-------
ENTROPY
-------

The entropy contributions are T*S = T*(S(el)+S(vib)+S(rot)+S(trans))
     S(el)   - electronic entropy
     S(vib)  - vibrational entropy
     S(rot)  - rotational entropy
     S(trans)- translational entropy
The entropies will be listed as mutliplied by the temperature to get
units of energy

Electronic entropy                ...      0.00000000 Eh      0.00 kcal/mol
Vibrational entropy               ...      0.00387060 Eh      2.43 kcal/mol
Rotational entropy                ...      0.01438579 Eh      9.03 kcal/mol
Translational entropy             ...      0.02138721 Eh     13.42 kcal/mol
-----------------------------------------------------------------------
Final entropy term                ...      0.03964360 Eh     24.88 kcal/mol

In case the symmetry of your molecule has not been determined correctly
or in case you have a reason to use a different symmetry number we print 
out the resulting rotational entropy values for sn=1,12 :
 --------------------------------------------------------
|  sn= 1 | S(rot)=       0.01504025 Eh      9.44 kcal/mol|
|  sn= 2 | S(rot)=       0.01438579 Eh      9.03 kcal/mol|
|  sn= 3 | S(rot)=       0.01400296 Eh      8.79 kcal/mol|
|  sn= 4 | S(rot)=       0.01373133 Eh      8.62 kcal/mol|
|  sn= 5 | S(rot)=       0.01352065 Eh      8.48 kcal/mol|
|  sn= 6 | S(rot)=       0.01334850 Eh      8.38 kcal/mol|
|  sn= 7 | S(rot)=       0.01320295 Eh      8.28 kcal/mol|
|  sn= 8 | S(rot)=       0.01307688 Eh      8.21 kcal/mol|
|  sn= 9 | S(rot)=       0.01296567 Eh      8.14 kcal/mol|
|  sn=10 | S(rot)=       0.01286619 Eh      8.07 kcal/mol|
|  sn=11 | S(rot)=       0.01277620 Eh      8.02 kcal/mol|
|  sn=12 | S(rot)=       0.01269404 Eh      7.97 kcal/mol|
 --------------------------------------------------------


-------------------
GIBBS FREE ENERGY
-------------------

The Gibbs free energy is G = H - T*S

Total enthalpy                    ...   -406.38685082 Eh 
Total entropy correction          ...     -0.03964360 Eh    -24.88 kcal/mol
-----------------------------------------------------------------------
Final Gibbs free energy         ...   -406.42649443 Eh

For completeness - the Gibbs free energy minus the electronic energy
G-E(el)                           ...     -0.03291713 Eh    -20.66 kcal/mol


Total Time for Numerical Frequencies  :       291.119 sec

Timings for individual modules:

Sum of individual times         ...      109.489 sec (=   1.825 min)
GTO integral calculation        ...        5.480 sec (=   0.091 min)   5.0 %
SCF iterations                  ...       18.287 sec (=   0.305 min)  16.7 %
MP2 module                      ...       85.597 sec (=   1.427 min)  78.2 %
Geometry relaxation             ...        0.124 sec (=   0.002 min)   0.1 %
                             ****ORCA TERMINATED NORMALLY****
TOTAL RUN TIME: 0 days 0 hours 6 minutes 21 seconds 428 msec
