
                                 *****************
                                 * O   R   C   A *
                                 *****************

           --- An Ab Initio, DFT and Semiempirical electronic structure package ---

                  #######################################################
                  #                        -***-                        #
                  #          Department of theory and spectroscopy      #
                  #               Directorship: Frank Neese             #
                  #        Max Planck Institute fuer Kohlenforschung    #
                  #                Kaiser Wilhelm Platz 1               #
                  #                 D-45470 Muelheim/Ruhr               #
                  #                      Germany                        #
                  #                                                     #
                  #                  All rights reserved                #
                  #                        -***-                        #
                  #######################################################


                         Program Version 4.2.0 -  RELEASE  -


 With contributions from (in alphabetic order):
   Daniel Aravena         : Magnetic Suceptibility
   Michael Atanasov       : Ab Initio Ligand Field Theory (pilot matlab implementation)
   Alexander A. Auer      : GIAO ZORA, VPT2
   Ute Becker             : Parallelization
   Giovanni Bistoni       : ED, misc. LED, open-shell LED, HFLED
   Martin Brehm           : Molecular dynamics
   Dmytro Bykov           : SCF Hessian
   Vijay G. Chilkuri      : MRCI spin determinant printing, contributions to CSF-ICE
   Dipayan Datta          : RHF DLPNO-CCSD density
   Achintya Kumar Dutta   : EOM-CC, STEOM-CC
   Dmitry Ganyushin       : Spin-Orbit,Spin-Spin,Magnetic field MRCI
   Miquel Garcia          : C-PCM Hessian, Gaussian charge scheme
   Yang Guo               : DLPNO-NEVPT2, CIM, IAO-localization
   Andreas Hansen         : Spin unrestricted coupled pair/coupled cluster methods
   Benjamin Helmich-Paris : CASSCF linear response (MC-RPA)
   Lee Huntington         : MR-EOM, pCC
   Robert Izsak           : Overlap fitted RIJCOSX, COSX-SCS-MP3, EOM
   Christian Kollmar      : KDIIS, OOCD, Brueckner-CCSD(T), CCSD density
   Simone Kossmann        : Meta GGA functionals, TD-DFT gradient, OOMP2, MP2 Hessian
   Martin Krupicka        : AUTO-CI
   Lucas Lang             : DCDCAS
   Dagmar Lenk            : GEPOL surface, SMD
   Dimitrios Liakos       : Extrapolation schemes; Compound Job, initial MDCI parallelization
   Dimitrios Manganas     : Further ROCIS development; embedding schemes
   Dimitrios Pantazis     : SARC Basis sets
   Taras Petrenko         : DFT Hessian,TD-DFT gradient, ASA, ECA, R-Raman, ABS, FL, XAS/XES, NRVS
   Peter Pinski           : DLPNO-MP2, DLPNO-MP2 Gradient
   Christoph Reimann      : Effective Core Potentials
   Marius Retegan         : Local ZFS, SOC
   Christoph Riplinger    : Optimizer, TS searches, QM/MM, DLPNO-CCSD(T), (RO)-DLPNO pert. Triples
   Tobias Risthaus        : Range-separated hybrids, TD-DFT gradient, RPA, STAB
   Michael Roemelt        : Original ROCIS implementation
   Masaaki Saitow         : Open-shell DLPNO-CCSD energy and density
   Barbara Sandhoefer     : DKH picture change effects
   Avijit Sen             : IP-ROCIS
   Kantharuban Sivalingam : CASSCF convergence, NEVPT2, FIC-MRCI
   Bernardo de Souza      : ESD, SOC TD-DFT
   Georgi Stoychev        : AutoAux, RI-MP2 NMR
   Willem Van den Heuvel  : Paramagnetic NMR
   Boris Wezisla          : Elementary symmetry handling
   Frank Wennmohs         : Technical directorship


 We gratefully acknowledge several colleagues who have allowed us to
 interface, adapt or use parts of their codes:
   Stefan Grimme, W. Hujo, H. Kruse,             : VdW corrections, initial TS optimization,
                  C. Bannwarth                     DFT functionals, gCP, sTDA/sTD-DF
   Ed Valeev, F. Pavosevic, A. Kumar             : LibInt (2-el integral package), F12 methods
   Garnet Chan, S. Sharma, J. Yang, R. Olivares  : DMRG
   Ulf Ekstrom                                   : XCFun DFT Library
   Mihaly Kallay                                 : mrcc  (arbitrary order and MRCC methods)
   Andreas Klamt, Michael Diedenhofen            : otool_cosmo (COSMO solvation model)
   Jiri Pittner, Ondrej Demel                    : Mk-CCSD
   Frank Weinhold                                : gennbo (NPA and NBO analysis)
   Christopher J. Cramer and Donald G. Truhlar   : smd solvation model
   Lars Goerigk                                  : TD-DFT with DH, B97 family of functionals
   V. Asgeirsson, H. Jonsson                     : NEB implementation
   FAccTs GmbH                                   : IRC, NEB, NEB-TS, Multilevel, MM, QM/MM, CI optimization
   S Lehtola, MJT Oliveira, MAL Marques          : LibXC Library


 Your calculation uses the libint2 library for the computation of 2-el integrals
 For citations please refer to: http://libint.valeyev.net

 Your ORCA version has been built with support for libXC version: 4.2.3
 For citations please refer to: https://tddft.org/programs/libxc/

 This ORCA versions uses:
   CBLAS   interface :  Fast vector & matrix operations
   LAPACKE interface :  Fast linear algebra routines
   SCALAPACK package :  Parallel linear algebra routines


Your calculation utilizes the atom-pairwise dispersion correction
with the Becke-Johnson damping scheme (D3BJ)
Cite in your paper:
S.Grimme, S.Ehrlich, L.Goerigk, J Comput Chem, (2011), 32, 1456–1465 
S.Grimme, J.Antony, S.Ehrlich and H.Krieg, J.Chem.Phys., 132, (2010), 154104 
   

----- Orbital basis set information -----
Your calculation utilizes the basis: def2-TZVPPD
   F. Weigend and R. Ahlrichs, Phys. Chem. Chem. Phys. 7, 3297 (2005).
   D. Rappoport and F. Furche, J. Chem. Phys. 133 134105 (2010).

----- AuxC basis set information -----
Your calculation utilizes the auxiliary basis: def2-TZVPPD/C
   A. Hellweg, C. Hattig, S. Hofener and W. Klopper, Theor. Chem. Acc. 117, 587 (2007).

----- AuxJK basis set information -----
Your calculation utilizes the auxiliary basis: def2/JK
   H-Ba, Hf-Rn: F. Weigend, J. Comput. Chem. 29, 167 (2008).

cite the ECPs for Au [Def2-ECP] as follows:
Ce-Yb(ecp-28): M. Dolg, H. Stoll, H.Preuss, J. Chem. Phys., 1989, 90, 1730-1734.
Y-Cd(ecp-28), Hf-Hg(ecp-46): D. Andrae,U. Haeussermann, M. Dolg, H. Stoll, H. Preuss, Theor. Chim. Acta, 1990, 77, 123-141.
In-Sb(ecp-28), Tl-Bi(ecp-46): B. Metz, H. Stoll, M. Dolg, J. Chem. Phys., 2000, 113, 2563-2569.
Te-Xe(ecp-28), Po-Rn(ecp-46): K. A. Peterson, D. Figgen, E. Goll, H. Stoll, M. Dolg, J. Chem. Phys., 2003, 119, 11113-11123.
Rb(ecp-28), Cs(ecp-46): T. Leininger, A. Nicklass, W. Kuechle, H. Stoll, M. Dolg, A. Bergner, Chem. Phys. Lett., 1996, 255, 274-280.
Sr(ecp-28), Ba(ecp-46): M. Kaupp, P. V. Schleyer, H. Stoll and H. Preuss, J. Chem. Phys., 1991, 94, 1360-1366.
La(ecp-46): M. Dolg, H. Stoll, A. Savin, H. Preuss, Theor. Chim. Acta, 1989, 75, 173-194.
Lu(ecp-28): X. Cao, M. Dolg, J. Chem. Phys., 2001, 115, 7348-7355.

ECP parameters for Au [Def2-ECP] have been obtained from:
TURBOMOLE (7.0.2)

================================================================================
                                        WARNINGS
                       Please study these warnings very carefully!
================================================================================


WARNING: your system is open-shell and RHF/RKS was chosen
  ===> : WILL SWITCH to UHF/UKS


WARNING: The frozen-core approximation for MP2-gradient calculations is turned on by default.

WARNING: Geometry Optimization
  ===> : Switching off AutoStart
         For restart on a previous wavefunction, please use MOREAD

WARNING: There are different parametrizations of Gershom Martin's DSD-DFs
         for use with and without D3(BJ)!
         You are using the D3(BJ) parametrized version,
         consistent with the 2013 article (S. Kozuch and J. M. L. Martin, JCC 2013, 34, 2327)

WARNING: The frozen-core approximation is turned on by default for 
         the MP2 part of double-hybrid DFT.

INFO   : the flag for use of LIBINT has been found!

================================================================================
                                       INPUT FILE
================================================================================
NAME = Au03N0_D3H.in
|  1> #
|  2> # Au03N0_D3H ri-DSD-BLYP/2013-D3BJ/Def2-TZVPPD
|  3> #
|  4> ! rijk ri-dsd-blyp/2013 d3bj def2-tzvppd def2/jk def2-tzvppd/c grid4 nofinalgrid opt xyzfile numfreq
|  5> 
|  6> *xyz 0 2
|  7> Au       0.000000    1.515176   -0.000000 
|  8> Au       1.312181   -0.757588    0.000000 
|  9> Au      -1.312181   -0.757588   -0.000000 
| 10> *
| 11> 
| 12> %maxcore 5000
| 13> 
| 14> %pal
| 15> nprocs = 24
| 16> end
| 17> 
| 18> 
| 19>                          ****END OF INPUT****
================================================================================

                       *****************************
                       * Geometry Optimization Run *
                       *****************************

Geometry optimization settings:
Update method            Update   .... BFGS
Choice of coordinates    CoordSys .... Z-matrix Internals
Initial Hessian          InHess   .... Almoef's Model

Convergence Tolerances:
Energy Change            TolE     ....  5.0000e-06 Eh
Max. Gradient            TolMAXG  ....  3.0000e-04 Eh/bohr
RMS Gradient             TolRMSG  ....  1.0000e-04 Eh/bohr
Max. Displacement        TolMAXD  ....  4.0000e-03 bohr
RMS Displacement         TolRMSD  ....  2.0000e-03 bohr
Strict Convergence                ....  False
------------------------------------------------------------------------------
                        ORCA OPTIMIZATION COORDINATE SETUP
------------------------------------------------------------------------------

The optimization will be done in new redundant internal coordinates
Making redundant internal coordinates   ...  (new redundants) done
Evaluating the initial hessian          ...  (Almloef) done
Evaluating the coordinates              ...  done
Calculating the B-matrix                .... done
Calculating the G-matrix                .... done
Diagonalizing the G-matrix              .... done
The first mode is                       ....    3
The number of degrees of freedom        ....    3

    -----------------------------------------------------------------
                    Redundant Internal Coordinates


    -----------------------------------------------------------------
         Definition                    Initial Value    Approx d2E/dq
    -----------------------------------------------------------------
      1. B(Au  1,Au  0)                  2.6244         0.012989   
      2. B(Au  2,Au  1)                  2.6244         0.012989   
      3. B(Au  2,Au  0)                  2.6244         0.012989   
      4. A(Au  1,Au  0,Au  2)           60.0000         0.154807   
      5. A(Au  0,Au  1,Au  2)           60.0000         0.154807   
      6. A(Au  0,Au  2,Au  1)           60.0000         0.154807   
    -----------------------------------------------------------------

Number of atoms                         .... 3
Number of degrees of freedom            .... 6

         *************************************************************
         *                GEOMETRY OPTIMIZATION CYCLE   1            *
         *************************************************************
---------------------------------
CARTESIAN COORDINATES (ANGSTROEM)
---------------------------------
  Au     0.000000    1.515176   -0.000000
  Au     1.312181   -0.757588    0.000000
  Au    -1.312181   -0.757588   -0.000000

----------------------------
CARTESIAN COORDINATES (A.U.)
----------------------------
  NO LB      ZA    FRAG     MASS         X           Y           Z
   0 Au   19.0000*   0   196.966    0.000000    2.863268   -0.000000
   1 Au   19.0000*   0   196.966    2.479663   -1.431634    0.000000
   2 Au   19.0000*   0   196.966   -2.479663   -1.431634   -0.000000
* core charge reduced due to ECP

--------------------------------
INTERNAL COORDINATES (ANGSTROEM)
--------------------------------
 Au     0   0   0     0.000000000000     0.00000000     0.00000000
 Au     1   0   0     2.624361860807     0.00000000     0.00000000
 Au     1   2   0     2.624361860807    60.00000351     0.00000000

---------------------------
INTERNAL COORDINATES (A.U.)
---------------------------
 Au     0   0   0     0.000000000000     0.00000000     0.00000000
 Au     1   0   0     4.959325193233     0.00000000     0.00000000
 Au     1   2   0     4.959325193233    60.00000351     0.00000000

---------------------
BASIS SET INFORMATION
---------------------
There are 1 groups of distinct atoms

 Group   1 Type Au  : 8s8p6d2f1g contracted to 6s5p3d2f1g pattern {311111/41111/411/11/1}

Atom   0Au   basis set group =>   1
Atom   1Au   basis set group =>   1
Atom   2Au   basis set group =>   1
---------------------------------
AUXILIARY/C BASIS SET INFORMATION
---------------------------------
There are 1 groups of distinct atoms

 Group   1 Type Au  : 9s9p8d5f4g3h1i contracted to 9s9p8d5f4g3h1i pattern {111111111/111111111/11111111/11111/1111/111/1}

Atom   0Au   basis set group =>   1
Atom   1Au   basis set group =>   1
Atom   2Au   basis set group =>   1
----------------------------------
AUXILIARY/JK BASIS SET INFORMATION
----------------------------------
There are 1 groups of distinct atoms

 Group   1 Type Au  : 13s12p11d9f5g3h2i contracted to 13s11p10d8f4g3h2i pattern {1111111111111/21111111111/2111111111/21111111/2111/111/11}

Atom   0Au   basis set group =>   1
Atom   1Au   basis set group =>   1
Atom   2Au   basis set group =>   1
-------------------------
ECP PARAMETER INFORMATION
-------------------------

 Group 1, Type Au ECP Def2-ECP (replacing 60 core electrons, lmax=3)

Atom   0Au   ECP group =>   1
Atom   1Au   ECP group =>   1
Atom   2Au   ECP group =>   1



           ************************************************************
           *        Program running with 24 parallel MPI-processes    *
           *              working on a common directory               *
           ************************************************************
------------------------------------------------------------------------------
                           ORCA GTO INTEGRAL CALCULATION
                           -- RI-GTO INTEGRALS CHOSEN --
------------------------------------------------------------------------------

                         BASIS SET STATISTICS AND STARTUP INFO

Gaussian basis set:
 # of primitive gaussian shells          ...   75
 # of primitive gaussian functions       ...  255
 # of contracted shells                  ...   51
 # of contracted basis functions         ...  177
 Highest angular momentum                ...    4
 Maximum contraction depth               ...    4
Auxiliary gaussian basis set:
 # of primitive gaussian shells          ...  165
 # of primitive gaussian functions       ...  813
 # of contracted shells                  ...  153
 # of contracted aux-basis functions     ...  741
 Highest angular momentum                ...    6
 Maximum contraction depth               ...    2
Ratio of auxiliary to basis functions    ...  4.19
Integral package used                  ... LIBINT
 One Electron integrals                  
   ECP integrals                         ... done
 Ordering auxiliary basis shells         ... done
 Integral threshhold             Thresh  ...  2.500e-11
 Primitive cut-off               TCut    ...  2.500e-12
 Pre-screening matrix                    ... done
 Shell pair data                         ... 
 Ordering of the shell pairs             ... done (   0.000 sec) 1296 of 1326 pairs
 Determination of significant pairs      ... done (   0.000 sec)
 Creation of shell pair data             ... done (   0.000 sec)
 Storage of shell pair data              ... done (   0.007 sec)
 Shell pair data done in (   0.007 sec)
 Computing two index integrals           ... done
 Cholesky decomposition of the V-matrix  ... done


Timings:
 Total evaluation time                   ...   0.719 sec (  0.012 min)
 One electron matrix time                ...   0.393 sec (  0.007 min) = 54.7%
 Schwartz matrix evaluation time         ...   0.140 sec (  0.002 min) = 19.5%
 Two index repulsion integral time       ...   0.136 sec (  0.002 min) = 18.9%
 Cholesky decomposition of V             ...   0.009 sec (  0.000 min) =  1.2%
 Three index repulsion integral time     ...   0.000 sec (  0.000 min) =  0.0%



           ************************************************************
           *        Program running with 24 parallel MPI-processes    *
           *              working on a common directory               *
           ************************************************************
-------------------------------------------------------------------------------
                                 ORCA SCF
-------------------------------------------------------------------------------

------------
SCF SETTINGS
------------
Hamiltonian:
 Density Functional     Method          .... DFT(GTOs)
 Exchange Functional    Exchange        .... B88
   X-Alpha parameter    XAlpha          ....  0.666667
   Becke's b parameter  XBeta           ....  0.004200
 Correlation Functional Correlation     .... LYP
 LDA part of GGA corr.  LDAOpt          .... VWN-5
 Gradients option       PostSCFGGA      .... off
 Hybrid DFT is turned on
   Fraction HF Exchange ScalHFX         ....  0.710000
   Scaling of DF-GGA-X  ScalDFX         ....  0.290000
   Scaling of DF-GGA-C  ScalDFC         ....  0.540000
   Scaling of DF-LDA-C  ScalLDAC        ....  0.540000
   Perturbative correction              ....  1.000000
   Density functional embedding theory  .... OFF
 RI-approximation to the Coulomb term is turned on
   Number of auxiliary basis functions  .... 741
   RI-JK (J+K treated both via RI)      .... on


General Settings:
 Integral files         IntName         .... Au03N0_D3H
 Hartree-Fock type      HFTyp           .... UHF
 Total Charge           Charge          ....    0
 Multiplicity           Mult            ....    2
 Number of Electrons    NEL             ....   57
 Basis Dimension        Dim             ....  177
 Nuclear Repulsion      ENuc            ....    218.3764803991 Eh

Convergence Acceleration:
 DIIS                   CNVDIIS         .... on
   Start iteration      DIISMaxIt       ....    12
   Startup error        DIISStart       ....  0.200000
   # of expansion vecs  DIISMaxEq       ....     5
   Bias factor          DIISBfac        ....   1.050
   Max. coefficient     DIISMaxC        ....  10.000
 Newton-Raphson         CNVNR           .... off
 SOSCF                  CNVSOSCF        .... off
 Level Shifting         CNVShift        .... on
   Level shift para.    LevelShift      ....    0.2500
   Turn off err/grad.   ShiftErr        ....    0.0010
 Zerner damping         CNVZerner       .... off
 Static damping         CNVDamp         .... on
   Fraction old density DampFac         ....    0.7000
   Max. Damping (<1)    DampMax         ....    0.9800
   Min. Damping (>=0)   DampMin         ....    0.0000
   Turn off err/grad.   DampErr         ....    0.1000
 Fernandez-Rico         CNVRico         .... off

SCF Procedure:
 Maximum # iterations   MaxIter         ....   125
 SCF integral mode      SCFMode         .... Direct
   Integral package                     .... LIBINT
 Reset frequency        DirectResetFreq ....    20
 Integral Threshold     Thresh          ....  2.500e-11 Eh
 Primitive CutOff       TCut            ....  2.500e-12 Eh

Convergence Tolerance:
 Convergence Check Mode ConvCheckMode   .... Total+1el-Energy
 Convergence forced     ConvForced      .... 0
 Energy Change          TolE            ....  1.000e-08 Eh
 1-El. energy change                    ....  1.000e-05 Eh
 DIIS Error             TolErr          ....  5.000e-07


Diagonalization of the overlap matrix:
Smallest eigenvalue                        ... 1.685e-03
Time for diagonalization                   ...    0.006 sec
Threshold for overlap eigenvalues          ... 1.000e-08
Number of eigenvalues below threshold      ... 0
Time for construction of square roots      ...    0.003 sec
Total time needed                          ...    0.010 sec

-------------------
DFT GRID GENERATION
-------------------

General Integration Accuracy     IntAcc      ...  4.670
Radial Grid Type                 RadialGrid  ... Gauss-Chebyshev
Angular Grid (max. acc.)         AngularGrid ... Lebedev-302
Angular grid pruning method      GridPruning ... 3 (G Style)
Weight generation scheme         WeightScheme... Becke
Basis function cutoff            BFCut       ...    1.0000e-11
Integration weight cutoff        WCut        ...    1.0000e-14
Grids for H and He will be reduced by one unit

# of grid points (after initial pruning)     ...  34956 (   0.0 sec)
# of grid points (after weights+screening)   ...  34814 (   0.0 sec)
nearest neighbour list constructed           ...    0.0 sec
Grid point re-assignment to atoms done       ...    0.0 sec
Grid point division into batches done        ...    0.3 sec
Reduced shell lists constructed in    0.3 sec

Total number of grid points                  ...    34814
Total number of batches                      ...      545
Average number of points per batch           ...       63
Average number of grid points per atom       ...    11605
Average number of shells per batch           ...     5.00 ( 9.80%)
Average number of basis functions per batch  ...    13.17 ( 7.44%)
Average number of large shells per batch     ...     3.00 (60.00%)
Average number of large basis fcns per batch ...     6.92 (52.53%)
Average number of aux-shells per batch       ...     5.00 ( 3.27%)
Average number of aux functions per batch    ...    13.17 ( 1.78%)
Maximum spatial batch extension              ...  27.54, 22.91, 24.85 au
Average spatial batch extension              ...   0.73,  0.63,  0.66 au

Time for grid setup =    0.392 sec

------------------------------
INITIAL GUESS: MODEL POTENTIAL
------------------------------
Loading Hartree-Fock densities                     ... done
  calling /sw/apps/orca/orca_4_2_0_linux_x86-64_openmpi314/orca Au03N0_D3H_atom79.inp > Au03N0_D3H_atom79.out in order to generate an atomic fitting density for atom 0 (Au with ECP) on-the-fly... 
    atom 0 (Au), assumed electronic state with S=2: 1s2 2s2 2p6 3s2 3p6 4s2 3d10 4p6 5s2 4d10 5p6 6s1 4f14 5d10           ... done
Calculating cut-offs                               ... done
Setting up the integral package                    ... done
Initializing the effective Hamiltonian             ... done
Starting the Coulomb interaction                   ... done (   0.0 sec)
Reading the grid                                   ... done
Mapping shells                                     ... done
Starting the XC term evaluation                    ... done (   0.0 sec)
  promolecular density results
     # of electrons  =    237.007571951
     EX              =  -1102.075473764
     EC              =     -1.453342287
     EX+EC           =  -1103.528816051
Transforming the Hamiltonian                       ... done (   0.0 sec)
Diagonalizing the Hamiltonian                      ... done (   0.0 sec)
Back transforming the eigenvectors                 ... done (   0.0 sec)
Now organizing SCF variables                       ... done
                      ------------------
                      INITIAL GUESS DONE (   1.5 sec)
                      ------------------
--------------
SCF ITERATIONS
--------------
ITER       Energy         Delta-E        Max-DP      RMS-DP      [F,P]     Damp
  0   -405.3672787054   0.000000000000 0.14813671  0.00182990  0.5515973 0.7000
  1   -405.2653264662   0.101952239115 0.11920281  0.00153628  0.4037409 0.7000
  2   -405.3841941693  -0.118867703071 0.07895536  0.00104845  0.2780709 0.7000
                               ***Turning on DIIS***
  3   -405.5473515600  -0.163157390711 0.05115243  0.00070538  0.1914777 0.7000
  4   -405.6563266349  -0.108975074825 0.03447798  0.00051277  0.1328652 0.7000
  5   -405.7171596519  -0.060833017080 0.09325226  0.00137483  0.0933939 0.0000
  6   -405.7054492692   0.011710382740 0.01229587  0.00017764  0.0217113 0.0000
  7   -405.7092037816  -0.003754512426 0.00481700  0.00009281  0.0079724 0.0000
  8   -405.7098032005  -0.000599418837 0.00408728  0.00005335  0.0030662 0.0000
  9   -405.7099419480  -0.000138747516 0.00208272  0.00002562  0.0015322 0.0000
 10   -405.7099664940  -0.000024545985 0.00142898  0.00002429  0.0004275 0.0000
 11   -405.7099779535  -0.000011459497 0.00047851  0.00001248  0.0002593 0.0000
 12   -405.7099821750  -0.000004221515 0.00027572  0.00000688  0.0001011 0.0000
 13   -405.7099839366  -0.000001761606 0.00027563  0.00000625  0.0000405 0.0000
 14   -405.7099851971  -0.000001260502 0.00043777  0.00000932  0.0000346 0.0000
 15   -405.7099864232  -0.000001226136 0.00025186  0.00000514  0.0000182 0.0000
 16   -405.7099867641  -0.000000340884 0.00018693  0.00000370  0.0000102 0.0000
 17   -405.7099868622  -0.000000098132 0.00004980  0.00000084  0.0000045 0.0000
                 **** Energy Check signals convergence ****

               *****************************************************
               *                     SUCCESS                       *
               *           SCF CONVERGED AFTER  18 CYCLES          *
               *****************************************************


----------------
TOTAL SCF ENERGY
----------------

Total Energy       :         -405.70998687 Eh          -11039.93000 eV

Components:
Nuclear Repulsion  :          218.37648040 Eh            5942.32613 eV
Electronic Energy  :         -624.08646727 Eh          -16982.25614 eV
One Electron Energy:        -1152.94194433 Eh          -31373.14528 eV
Two Electron Energy:          528.85547706 Eh           14390.88915 eV

Virial components:
Potential Energy   :         -543.75067219 Eh          -14796.20802 eV
Kinetic Energy     :          138.04068532 Eh            3756.27801 eV
Virial Ratio       :            3.93906094


DFT components:
N(Alpha)           :       28.999993362649 electrons
N(Beta)            :       27.999992911321 electrons
N(Total)           :       56.999986273970 electrons
E(X)               :      -10.592181307416 Eh       
E(C)               :       -1.120213258240 Eh       
E(XC)              :      -11.712394565656 Eh       
DFET-embed. en.    :        0.000000000000 Eh       

---------------
SCF CONVERGENCE
---------------

  Last Energy change         ...   -6.2510e-09  Tolerance :   1.0000e-08
  Last MAX-Density change    ...    2.1985e-05  Tolerance :   1.0000e-07
  Last RMS-Density change    ...    3.7198e-07  Tolerance :   5.0000e-09
  Last DIIS Error            ...    4.6087e-06  Tolerance :   5.0000e-07

             **** THE GBW FILE WAS UPDATED (Au03N0_D3H.gbw) ****
             **** DENSITY FILE WAS UPDATED (Au03N0_D3H.scfp) ****
             **** ENERGY FILE WAS UPDATED (Au03N0_D3H.en.tmp) ****
----------------------
UHF SPIN CONTAMINATION
----------------------

Warning: in a DFT calculation there is little theoretical justification to 
         calculate <S**2> as in Hartree-Fock theory. We will do it anyways
         but you should keep in mind that the values have only limited relevance

Expectation value of <S**2>     :     0.789613
Ideal value S*(S+1) for S=0.5   :     0.750000
Deviation                       :     0.039613

             **** THE GBW FILE WAS UPDATED (Au03N0_D3H.gbw) ****
             **** DENSITY FILE WAS UPDATED (Au03N0_D3H.scfp) ****
----------------
ORBITAL ENERGIES
----------------
                 SPIN UP ORBITALS
  NO   OCC          E(Eh)            E(eV) 
   0   1.0000      -4.514064      -122.8339 
   1   1.0000      -4.513620      -122.8219 
   2   1.0000      -4.492059      -122.2352 
   3   1.0000      -2.609287       -71.0023 
   4   1.0000      -2.602112       -70.8071 
   5   1.0000      -2.601353       -70.7864 
   6   1.0000      -2.598305       -70.7035 
   7   1.0000      -2.597540       -70.6826 
   8   1.0000      -2.597465       -70.6806 
   9   1.0000      -2.579611       -70.1948 
  10   1.0000      -2.576281       -70.1042 
  11   1.0000      -2.572689       -70.0064 
  12   1.0000      -0.498384       -13.5617 
  13   1.0000      -0.469075       -12.7642 
  14   1.0000      -0.461170       -12.5491 
  15   1.0000      -0.459534       -12.5046 
  16   1.0000      -0.435693       -11.8558 
  17   1.0000      -0.432353       -11.7649 
  18   1.0000      -0.425335       -11.5740 
  19   1.0000      -0.400267       -10.8918 
  20   1.0000      -0.393190       -10.6993 
  21   1.0000      -0.390995       -10.6395 
  22   1.0000      -0.384205       -10.4547 
  23   1.0000      -0.380136       -10.3440 
  24   1.0000      -0.378314       -10.2945 
  25   1.0000      -0.376881       -10.2554 
  26   1.0000      -0.348353        -9.4792 
  27   1.0000      -0.340933        -9.2772 
  28   1.0000      -0.200988        -5.4692 
  29   0.0000      -0.073962        -2.0126 
  30   0.0000       0.005651         0.1538 
  31   0.0000       0.022703         0.6178 
  32   0.0000       0.043141         1.1739 
  33   0.0000       0.044773         1.2183 
  34   0.0000       0.081110         2.2071 
  35   0.0000       0.083151         2.2627 
  36   0.0000       0.103082         2.8050 
  37   0.0000       0.105105         2.8600 
  38   0.0000       0.133365         3.6291 
  39   0.0000       0.213526         5.8103 
  40   0.0000       0.225185         6.1276 
  41   0.0000       0.230982         6.2853 
  42   0.0000       0.242378         6.5954 
  43   0.0000       0.245225         6.6729 
  44   0.0000       0.288353         7.8465 
  45   0.0000       0.292279         7.9533 
  46   0.0000       0.294190         8.0053 
  47   0.0000       0.299276         8.1437 
  48   0.0000       0.363530         9.8922 
  49   0.0000       0.373840        10.1727 
  50   0.0000       0.382110        10.3977 
  51   0.0000       0.389172        10.5899 
  52   0.0000       0.400978        10.9112 
  53   0.0000       0.405853        11.0438 
  54   0.0000       0.418204        11.3799 
  55   0.0000       0.456794        12.4300 
  56   0.0000       0.460950        12.5431 
  57   0.0000       0.486031        13.2256 
  58   0.0000       0.523659        14.2495 
  59   0.0000       0.533172        14.5084 
  60   0.0000       0.541519        14.7355 
  61   0.0000       0.545390        14.8408 
  62   0.0000       0.560623        15.2553 
  63   0.0000       0.644081        17.5263 
  64   0.0000       0.651328        17.7235 
  65   0.0000       0.652468        17.7545 
  66   0.0000       0.954229        25.9659 
  67   0.0000       1.049819        28.5670 
  68   0.0000       1.053143        28.6575 
  69   0.0000       1.059962        28.8430 
  70   0.0000       1.071599        29.1597 
  71   0.0000       1.146250        31.1911 
  72   0.0000       1.152701        31.3666 
  73   0.0000       1.212025        32.9809 
  74   0.0000       1.220205        33.2035 
  75   0.0000       1.225884        33.3580 
  76   0.0000       1.230152        33.4741 
  77   0.0000       1.231873        33.5210 
  78   0.0000       1.238949        33.7135 
  79   0.0000       1.260489        34.2997 
  80   0.0000       1.262841        34.3637 
  81   0.0000       1.296797        35.2876 
  82   0.0000       1.310631        35.6641 
  83   0.0000       1.325729        36.0749 
  84   0.0000       1.364385        37.1268 
  85   0.0000       1.388445        37.7815 
  86   0.0000       1.391800        37.8728 
  87   0.0000       1.480633        40.2901 
  88   0.0000       1.492599        40.6157 
  89   0.0000       1.498569        40.7781 
  90   0.0000       1.503989        40.9256 
  91   0.0000       1.509996        41.0891 
  92   0.0000       1.518677        41.3253 
  93   0.0000       1.537583        41.8398 
  94   0.0000       1.542657        41.9778 
  95   0.0000       1.598515        43.4978 
  96   0.0000       1.622441        44.1489 
  97   0.0000       1.627979        44.2995 
  98   0.0000       1.636894        44.5421 
  99   0.0000       1.643588        44.7243 
 100   0.0000       1.667774        45.3824 
 101   0.0000       1.673130        45.5282 
 102   0.0000       1.688628        45.9499 
 103   0.0000       1.765035        48.0291 
 104   0.0000       1.778332        48.3909 
 105   0.0000       1.785108        48.5753 
 106   0.0000       1.831666        49.8422 
 107   0.0000       1.841977        50.1227 
 108   0.0000       2.054538        55.9068 
 109   0.0000       2.062519        56.1240 
 110   0.0000       2.275695        61.9248 
 111   0.0000       2.352307        64.0095 
 112   0.0000       2.878571        78.3299 
 113   0.0000       2.889052        78.6151 
 114   0.0000       3.730918       101.5234 
 115   0.0000       3.762332       102.3783 
 116   0.0000       3.780720       102.8786 
 117   0.0000       3.788817       103.0990 
 118   0.0000       3.825108       104.0865 
 119   0.0000       3.837107       104.4130 
 120   0.0000       3.849029       104.7374 
 121   0.0000       3.896025       106.0162 
 122   0.0000       3.912308       106.4593 
 123   0.0000       3.922685       106.7417 
 124   0.0000       3.928989       106.9132 
 125   0.0000       3.940644       107.2304 
 126   0.0000       3.944428       107.3333 
 127   0.0000       4.053055       110.2892 
 128   0.0000       4.074828       110.8817 
 129   0.0000       4.077819       110.9631 
 130   0.0000       4.084179       111.1362 
 131   0.0000       4.085279       111.1661 
 132   0.0000       4.163927       113.3062 
 133   0.0000       4.167976       113.4164 
 134   0.0000       4.230518       115.1182 
 135   0.0000       4.385757       119.3425 
 136   0.0000       4.387591       119.3924 
 137   0.0000       4.388723       119.4232 
 138   0.0000       4.390766       119.4788 
 139   0.0000       4.392841       119.5353 
 140   0.0000       4.393478       119.5526 
 141   0.0000       4.398878       119.6996 
 142   0.0000       4.400001       119.7301 
 143   0.0000       4.400741       119.7503 
 144   0.0000       4.401389       119.7679 
 145   0.0000       4.401530       119.7717 
 146   0.0000       4.402068       119.7864 
 147   0.0000       4.403482       119.8248 
 148   0.0000       4.404802       119.8607 
 149   0.0000       4.408672       119.9661 
 150   0.0000       4.420887       120.2985 
 151   0.0000       4.421003       120.3016 
 152   0.0000       4.426006       120.4377 
 153   0.0000       4.426470       120.4504 
 154   0.0000       4.443590       120.9162 
 155   0.0000       4.461375       121.4002 
 156   0.0000       4.462793       121.4388 
 157   0.0000       4.464560       121.4869 
 158   0.0000       4.471267       121.6694 
 159   0.0000       4.593589       124.9979 
 160   0.0000       4.601458       125.2120 
 161   0.0000       4.717430       128.3678 
 162   0.0000      27.347733       744.1697 
 163   0.0000      27.520742       748.8775 
 164   0.0000      27.532599       749.2001 
 165   0.0000      27.633205       751.9377 
 166   0.0000      27.718680       754.2636 
 167   0.0000      27.735351       754.7173 
 168   0.0000      29.204017       794.6817 
 169   0.0000      29.844269       812.1038 
 170   0.0000      29.857389       812.4609 
 171   0.0000      44.113127      1200.3792 
 172   0.0000      44.625077      1214.3101 
 173   0.0000      44.640780      1214.7374 
 174   0.0000     203.337354      5533.0907 
 175   0.0000     203.554623      5539.0029 
 176   0.0000     203.570448      5539.4335 

                 SPIN DOWN ORBITALS
  NO   OCC          E(Eh)            E(eV) 
   0   1.0000      -4.513331      -122.8140 
   1   1.0000      -4.512899      -122.8022 
   2   1.0000      -4.487438      -122.1094 
   3   1.0000      -2.609107       -70.9974 
   4   1.0000      -2.600655       -70.7674 
   5   1.0000      -2.600237       -70.7561 
   6   1.0000      -2.598218       -70.7011 
   7   1.0000      -2.598068       -70.6970 
   8   1.0000      -2.597481       -70.6810 
   9   1.0000      -2.574304       -70.0504 
  10   1.0000      -2.573092       -70.0174 
  11   1.0000      -2.571051       -69.9619 
  12   1.0000      -0.493457       -13.4277 
  13   1.0000      -0.468180       -12.7398 
  14   1.0000      -0.458904       -12.4874 
  15   1.0000      -0.452181       -12.3045 
  16   1.0000      -0.431975       -11.7546 
  17   1.0000      -0.431069       -11.7300 
  18   1.0000      -0.423009       -11.5107 
  19   1.0000      -0.400036       -10.8855 
  20   1.0000      -0.394502       -10.7350 
  21   1.0000      -0.390402       -10.6234 
  22   1.0000      -0.379849       -10.3362 
  23   1.0000      -0.375954       -10.2302 
  24   1.0000      -0.369596       -10.0572 
  25   1.0000      -0.368294       -10.0218 
  26   1.0000      -0.337212        -9.1760 
  27   1.0000      -0.325472        -8.8566 
  28   0.0000      -0.064572        -1.7571 
  29   0.0000      -0.037381        -1.0172 
  30   0.0000       0.011602         0.3157 
  31   0.0000       0.035803         0.9743 
  32   0.0000       0.060919         1.6577 
  33   0.0000       0.061194         1.6652 
  34   0.0000       0.081679         2.2226 
  35   0.0000       0.093417         2.5420 
  36   0.0000       0.103383         2.8132 
  37   0.0000       0.114856         3.1254 
  38   0.0000       0.136463         3.7134 
  39   0.0000       0.214197         5.8286 
  40   0.0000       0.227586         6.1929 
  41   0.0000       0.238422         6.4878 
  42   0.0000       0.255591         6.9550 
  43   0.0000       0.255759         6.9596 
  44   0.0000       0.290194         7.8966 
  45   0.0000       0.296180         8.0595 
  46   0.0000       0.303073         8.2470 
  47   0.0000       0.311891         8.4870 
  48   0.0000       0.368957        10.0398 
  49   0.0000       0.382291        10.4027 
  50   0.0000       0.386085        10.5059 
  51   0.0000       0.393071        10.6960 
  52   0.0000       0.405177        11.0254 
  53   0.0000       0.419237        11.4080 
  54   0.0000       0.422197        11.4886 
  55   0.0000       0.461415        12.5557 
  56   0.0000       0.468099        12.7376 
  57   0.0000       0.490100        13.3363 
  58   0.0000       0.525806        14.3079 
  59   0.0000       0.539907        14.6916 
  60   0.0000       0.545464        14.8428 
  61   0.0000       0.551423        15.0050 
  62   0.0000       0.566930        15.4269 
  63   0.0000       0.645214        17.5572 
  64   0.0000       0.656602        17.8671 
  65   0.0000       0.657767        17.8987 
  66   0.0000       0.957746        26.0616 
  67   0.0000       1.051495        28.6126 
  68   0.0000       1.060006        28.8442 
  69   0.0000       1.066212        29.0131 
  70   0.0000       1.074047        29.2263 
  71   0.0000       1.148785        31.2600 
  72   0.0000       1.156908        31.4811 
  73   0.0000       1.214231        33.0409 
  74   0.0000       1.221475        33.2380 
  75   0.0000       1.229021        33.4434 
  76   0.0000       1.234604        33.5953 
  77   0.0000       1.236374        33.6435 
  78   0.0000       1.247225        33.9387 
  79   0.0000       1.266908        34.4743 
  80   0.0000       1.267244        34.4835 
  81   0.0000       1.302227        35.4354 
  82   0.0000       1.312185        35.7064 
  83   0.0000       1.331769        36.2393 
  84   0.0000       1.369531        37.2668 
  85   0.0000       1.390249        37.8306 
  86   0.0000       1.397469        38.0271 
  87   0.0000       1.483358        40.3642 
  88   0.0000       1.495310        40.6894 
  89   0.0000       1.505048        40.9544 
  90   0.0000       1.514140        41.2018 
  91   0.0000       1.514377        41.2083 
  92   0.0000       1.526302        41.5328 
  93   0.0000       1.538873        41.8749 
  94   0.0000       1.548764        42.1440 
  95   0.0000       1.606215        43.7073 
  96   0.0000       1.624522        44.2055 
  97   0.0000       1.632752        44.4294 
  98   0.0000       1.642631        44.6983 
  99   0.0000       1.649486        44.8848 
 100   0.0000       1.669525        45.4301 
 101   0.0000       1.681339        45.7516 
 102   0.0000       1.696771        46.1715 
 103   0.0000       1.767925        48.1077 
 104   0.0000       1.782634        48.5079 
 105   0.0000       1.788219        48.6599 
 106   0.0000       1.833090        49.8809 
 107   0.0000       1.844897        50.2022 
 108   0.0000       2.055589        55.9354 
 109   0.0000       2.064373        56.1744 
 110   0.0000       2.277636        61.9776 
 111   0.0000       2.356577        64.1257 
 112   0.0000       2.879825        78.3640 
 113   0.0000       2.895337        78.7861 
 114   0.0000       3.732019       101.5534 
 115   0.0000       3.762415       102.3805 
 116   0.0000       3.781333       102.8953 
 117   0.0000       3.789941       103.1295 
 118   0.0000       3.825718       104.1031 
 119   0.0000       3.837584       104.4260 
 120   0.0000       3.849769       104.7575 
 121   0.0000       3.896311       106.0240 
 122   0.0000       3.913351       106.4877 
 123   0.0000       3.923559       106.7655 
 124   0.0000       3.928341       106.8956 
 125   0.0000       3.942694       107.2862 
 126   0.0000       3.946276       107.3836 
 127   0.0000       4.053803       110.3096 
 128   0.0000       4.075707       110.9056 
 129   0.0000       4.079242       111.0018 
 130   0.0000       4.087794       111.2345 
 131   0.0000       4.087918       111.2379 
 132   0.0000       4.164709       113.3275 
 133   0.0000       4.171361       113.5085 
 134   0.0000       4.233991       115.2127 
 135   0.0000       4.385737       119.3420 
 136   0.0000       4.388336       119.4127 
 137   0.0000       4.390133       119.4616 
 138   0.0000       4.390920       119.4830 
 139   0.0000       4.392494       119.5258 
 140   0.0000       4.395147       119.5980 
 141   0.0000       4.399293       119.7109 
 142   0.0000       4.399766       119.7237 
 143   0.0000       4.400766       119.7509 
 144   0.0000       4.401113       119.7604 
 145   0.0000       4.403628       119.8288 
 146   0.0000       4.404062       119.8406 
 147   0.0000       4.405528       119.8805 
 148   0.0000       4.407935       119.9460 
 149   0.0000       4.411963       120.0556 
 150   0.0000       4.422847       120.3518 
 151   0.0000       4.424469       120.3959 
 152   0.0000       4.426965       120.4638 
 153   0.0000       4.427525       120.4791 
 154   0.0000       4.442852       120.8961 
 155   0.0000       4.464217       121.4775 
 156   0.0000       4.465131       121.5024 
 157   0.0000       4.466441       121.5380 
 158   0.0000       4.473990       121.7434 
 159   0.0000       4.594142       125.0130 
 160   0.0000       4.603077       125.2561 
 161   0.0000       4.718695       128.4022 
 162   0.0000      27.347885       744.1738 
 163   0.0000      27.520661       748.8753 
 164   0.0000      27.533642       749.2285 
 165   0.0000      27.634722       751.9790 
 166   0.0000      27.718692       754.2640 
 167   0.0000      27.735687       754.7264 
 168   0.0000      29.204308       794.6896 
 169   0.0000      29.844568       812.1120 
 170   0.0000      29.859577       812.5204 
 171   0.0000      44.113116      1200.3789 
 172   0.0000      44.625077      1214.3101 
 173   0.0000      44.640651      1214.7339 
 174   0.0000     203.335531      5533.0411 
 175   0.0000     203.554148      5538.9900 
 176   0.0000     203.566759      5539.3331 

                    ********************************
                    * MULLIKEN POPULATION ANALYSIS *
                    ********************************

--------------------------------------------
MULLIKEN ATOMIC CHARGES AND SPIN POPULATIONS
--------------------------------------------
   0 Au:   -0.149724    0.646809
   1 Au:    0.074861    0.176597
   2 Au:    0.074863    0.176594
Sum of atomic charges         :   -0.0000000
Sum of atomic spin populations:    1.0000000

-----------------------------------------------------
MULLIKEN REDUCED ORBITAL CHARGES AND SPIN POPULATIONS
-----------------------------------------------------
CHARGE
  0 Aus       :     3.120547  s :     3.120547
      pz      :     2.008585  p :     6.176190
      px      :     2.011366
      py      :     2.156239
      dz2     :     1.976537  d :     9.844676
      dxz     :     1.994551
      dyz     :     1.987291
      dx2y2   :     1.972623
      dxy     :     1.913674
      f0      :     0.000805  f :     0.008170
      f+1     :     0.000464
      f-1     :     0.001271
      f+2     :     0.000467
      f-2     :     0.001042
      f+3     :     0.002219
      f-3     :     0.001901
      g0      :     0.000012  g :     0.000141
      g+1     :     0.000007
      g-1     :     0.000017
      g+2     :     0.000010
      g-2     :     0.000017
      g+3     :     0.000015
      g-3     :     0.000003
      g+4     :     0.000029
      g-4     :     0.000032
  1 Aus       :     2.828459  s :     2.828459
      pz      :     2.011718  p :     6.188333
      px      :     2.053426
      py      :     2.123189
      dz2     :     1.978891  d :     9.898964
      dxz     :     1.993069
      dyz     :     1.996123
      dx2y2   :     1.958729
      dxy     :     1.972150
      f0      :     0.000904  f :     0.009236
      f+1     :     0.001113
      f-1     :     0.000764
      f+2     :     0.000995
      f-2     :     0.000754
      f+3     :     0.002594
      f-3     :     0.002112
      g0      :     0.000011  g :     0.000147
      g+1     :     0.000014
      g-1     :     0.000009
      g+2     :     0.000015
      g-2     :     0.000011
      g+3     :     0.000016
      g-3     :     0.000004
      g+4     :     0.000034
      g-4     :     0.000031
  2 Aus       :     2.828457  s :     2.828457
      pz      :     2.011718  p :     6.188333
      px      :     2.053426
      py      :     2.123188
      dz2     :     1.978891  d :     9.898964
      dxz     :     1.993070
      dyz     :     1.996123
      dx2y2   :     1.958730
      dxy     :     1.972150
      f0      :     0.000904  f :     0.009236
      f+1     :     0.001113
      f-1     :     0.000764
      f+2     :     0.000995
      f-2     :     0.000754
      f+3     :     0.002594
      f-3     :     0.002112
      g0      :     0.000011  g :     0.000147
      g+1     :     0.000014
      g-1     :     0.000009
      g+2     :     0.000015
      g-2     :     0.000011
      g+3     :     0.000016
      g-3     :     0.000004
      g+4     :     0.000034
      g-4     :     0.000031

SPIN
  0 Aus       :     0.535744  s :     0.535744
      pz      :     0.000237  p :     0.067176
      px      :     0.000625
      py      :     0.066315
      dz2     :     0.008183  d :     0.044304
      dxz     :     0.000677
      dyz     :     0.001343
      dx2y2   :     0.009183
      dxy     :     0.024918
      f0      :    -0.000036  f :    -0.000416
      f+1     :    -0.000022
      f-1     :    -0.000064
      f+2     :    -0.000025
      f-2     :    -0.000054
      f+3     :    -0.000142
      f-3     :    -0.000073
      g0      :     0.000000  g :     0.000002
      g+1     :     0.000000
      g-1     :     0.000001
      g+2     :     0.000000
      g-2     :     0.000000
      g+3     :    -0.000000
      g-3     :     0.000000
      g+4     :    -0.000000
      g-4     :    -0.000000
  1 Aus       :     0.090770  s :     0.090770
      pz      :    -0.000255  p :     0.081327
      px      :     0.000385
      py      :     0.081197
      dz2     :     0.002477  d :     0.004632
      dxz     :    -0.000235
      dyz     :    -0.000519
      dx2y2   :    -0.005579
      dxy     :     0.008488
      f0      :    -0.000017  f :    -0.000130
      f+1     :    -0.000013
      f-1     :    -0.000006
      f+2     :    -0.000011
      f-2     :    -0.000033
      f+3     :     0.000039
      f-3     :    -0.000089
      g0      :    -0.000000  g :    -0.000002
      g+1     :    -0.000000
      g-1     :     0.000000
      g+2     :    -0.000000
      g-2     :    -0.000000
      g+3     :    -0.000000
      g-3     :    -0.000000
      g+4     :    -0.000001
      g-4     :    -0.000001
  2 Aus       :     0.090767  s :     0.090767
      pz      :    -0.000255  p :     0.081327
      px      :     0.000385
      py      :     0.081197
      dz2     :     0.002477  d :     0.004632
      dxz     :    -0.000235
      dyz     :    -0.000519
      dx2y2   :    -0.005579
      dxy     :     0.008488
      f0      :    -0.000017  f :    -0.000130
      f+1     :    -0.000013
      f-1     :    -0.000006
      f+2     :    -0.000011
      f-2     :    -0.000033
      f+3     :     0.000039
      f-3     :    -0.000089
      g0      :    -0.000000  g :    -0.000002
      g+1     :    -0.000000
      g-1     :     0.000000
      g+2     :    -0.000000
      g-2     :    -0.000000
      g+3     :    -0.000000
      g-3     :    -0.000000
      g+4     :    -0.000001
      g-4     :    -0.000001


                     *******************************
                     * LOEWDIN POPULATION ANALYSIS *
                     *******************************

-------------------------------------------
LOEWDIN ATOMIC CHARGES AND SPIN POPULATIONS
-------------------------------------------
   0 Au:   -0.103299    0.528800
   1 Au:    0.051649    0.235601
   2 Au:    0.051650    0.235599

----------------------------------------------------
LOEWDIN REDUCED ORBITAL CHARGES AND SPIN POPULATIONS
----------------------------------------------------
CHARGE
  0 Aus       :     2.810212  s :     2.810212
      pz      :     2.013664  p :     6.385716
      px      :     2.030958
      py      :     2.341095
      dz2     :     1.998611  d :     9.891016
      dxz     :     1.992875
      dyz     :     1.981928
      dx2y2   :     1.979595
      dxy     :     1.938008
      f0      :     0.001361  f :     0.016134
      f+1     :     0.001006
      f-1     :     0.002730
      f+2     :     0.000695
      f-2     :     0.001891
      f+3     :     0.005333
      f-3     :     0.003118
      g0      :     0.000019  g :     0.000221
      g+1     :     0.000009
      g-1     :     0.000023
      g+2     :     0.000015
      g-2     :     0.000028
      g+3     :     0.000023
      g-3     :     0.000004
      g+4     :     0.000043
      g-4     :     0.000057
  1 Aus       :     2.634451  s :     2.634451
      pz      :     2.016980  p :     6.352812
      px      :     2.112133
      py      :     2.223699
      dz2     :     1.995929  d :     9.943117
      dxz     :     1.988993
      dyz     :     1.993384
      dx2y2   :     1.980406
      dxy     :     1.984404
      f0      :     0.001476  f :     0.017743
      f+1     :     0.002095
      f-1     :     0.001584
      f+2     :     0.001703
      f-2     :     0.001166
      f+3     :     0.006351
      f-3     :     0.003367
      g0      :     0.000017  g :     0.000228
      g+1     :     0.000019
      g-1     :     0.000012
      g+2     :     0.000026
      g-2     :     0.000019
      g+3     :     0.000024
      g-3     :     0.000004
      g+4     :     0.000057
      g-4     :     0.000048
  2 Aus       :     2.634450  s :     2.634450
      pz      :     2.016980  p :     6.352812
      px      :     2.112133
      py      :     2.223699
      dz2     :     1.995928  d :     9.943117
      dxz     :     1.988993
      dyz     :     1.993384
      dx2y2   :     1.980407
      dxy     :     1.984404
      f0      :     0.001476  f :     0.017743
      f+1     :     0.002095
      f-1     :     0.001584
      f+2     :     0.001703
      f-2     :     0.001166
      f+3     :     0.006351
      f-3     :     0.003367
      g0      :     0.000017  g :     0.000228
      g+1     :     0.000019
      g-1     :     0.000012
      g+2     :     0.000026
      g-2     :     0.000019
      g+3     :     0.000024
      g-3     :     0.000004
      g+4     :     0.000057
      g-4     :     0.000048

SPIN
  0 Aus       :     0.317888  s :     0.317888
      pz      :     0.000663  p :     0.169025
      px      :     0.000496
      py      :     0.167865
      dz2     :     0.007701  d :     0.041698
      dxz     :    -0.000043
      dyz     :     0.001223
      dx2y2   :     0.011199
      dxy     :     0.021617
      f0      :    -0.000029  f :     0.000185
      f+1     :     0.000013
      f-1     :     0.000246
      f+2     :    -0.000011
      f-2     :    -0.000056
      f+3     :     0.000106
      f-3     :    -0.000084
      g0      :     0.000001  g :     0.000004
      g+1     :     0.000000
      g-1     :     0.000001
      g+2     :     0.000001
      g-2     :     0.000000
      g+3     :    -0.000000
      g-3     :     0.000000
      g+4     :     0.000000
      g-4     :     0.000001
  1 Aus       :     0.059891  s :     0.059891
      pz      :    -0.000069  p :     0.158103
      px      :    -0.000664
      py      :     0.158835
      dz2     :     0.003481  d :     0.017131
      dxz     :    -0.000385
      dyz     :    -0.000373
      dx2y2   :     0.001731
      dxy     :     0.012678
      f0      :    -0.000014  f :     0.000475
      f+1     :    -0.000025
      f-1     :     0.000182
      f+2     :    -0.000004
      f-2     :    -0.000028
      f+3     :     0.000455
      f-3     :    -0.000090
      g0      :     0.000000  g :     0.000001
      g+1     :    -0.000000
      g-1     :    -0.000000
      g+2     :    -0.000000
      g-2     :     0.000001
      g+3     :    -0.000000
      g-3     :    -0.000000
      g+4     :    -0.000000
      g-4     :     0.000001
  2 Aus       :     0.059889  s :     0.059889
      pz      :    -0.000069  p :     0.158103
      px      :    -0.000663
      py      :     0.158835
      dz2     :     0.003481  d :     0.017131
      dxz     :    -0.000385
      dyz     :    -0.000373
      dx2y2   :     0.001731
      dxy     :     0.012678
      f0      :    -0.000014  f :     0.000475
      f+1     :    -0.000025
      f-1     :     0.000182
      f+2     :    -0.000004
      f-2     :    -0.000028
      f+3     :     0.000455
      f-3     :    -0.000090
      g0      :     0.000000  g :     0.000001
      g+1     :    -0.000000
      g-1     :    -0.000000
      g+2     :    -0.000000
      g-2     :     0.000001
      g+3     :    -0.000000
      g-3     :    -0.000000
      g+4     :    -0.000000
      g-4     :     0.000001


                      *****************************
                      * MAYER POPULATION ANALYSIS *
                      *****************************

  NA   - Mulliken gross atomic population
  ZA   - Total nuclear charge
  QA   - Mulliken gross atomic charge
  VA   - Mayer's total valence
  BVA  - Mayer's bonded valence
  FA   - Mayer's free valence

  ATOM       NA         ZA         QA         VA         BVA        FA
  0 Au    19.1497    19.0000    -0.1497     1.4999     1.0468     0.4531
  1 Au    18.9251    19.0000     0.0749     1.3788     1.2878     0.0910
  2 Au    18.9251    19.0000     0.0749     1.3788     1.2878     0.0910

  Mayer bond orders larger than 0.100000
B(  0-Au,  1-Au) :   0.5234 B(  0-Au,  2-Au) :   0.5234 B(  1-Au,  2-Au) :   0.7644 


-------
TIMINGS
-------

Total SCF time: 0 days 0 hours 0 min 8 sec 

Total time                  ....       8.846 sec
Sum of individual times     ....       8.664 sec  ( 97.9%)

Fock matrix formation       ....       6.894 sec  ( 77.9%)
  XC integration            ....       1.056 sec  ( 15.3% of F)
    Basis function eval.    ....       0.092 sec  (  8.7% of XC)
    Density eval.           ....       0.118 sec  ( 11.2% of XC)
    XC-Functional eval.     ....       0.037 sec  (  3.5% of XC)
    XC-Potential eval.      ....       0.227 sec  ( 21.5% of XC)
Diagonalization             ....       0.160 sec  (  1.8%)
Density matrix formation    ....       0.025 sec  (  0.3%)
Population analysis         ....       0.010 sec  (  0.1%)
Initial guess               ....       1.129 sec  ( 12.8%)
Orbital Transformation      ....       0.000 sec  (  0.0%)
Orbital Orthonormalization  ....       0.000 sec  (  0.0%)
DIIS solution               ....       0.055 sec  (  0.6%)
Grid generation             ....       0.392 sec  (  4.4%)


           ************************************************************
           *        Program running with 24 parallel MPI-processes    *
           *              working on a common directory               *
           ************************************************************

------------------------------------------------------------------------------
                                ORCA  MP2 
------------------------------------------------------------------------------

Freezing NCore=0 chemical core electrons

----------------------
RI-MP2 ENERGY+GRADIENT
----------------------
Dimension of the basis                    ...  177
Memory devoted to MP2                     ... 5000 MB   
Data format for buffers                   ... DOUBLE
Compression type for matrix containers    ... UNCOMPRESSED
Scaling for aa/bb pairs                   ...   4.000e-01
Scaling for ab pairs                      ...   4.700e-01
Overall scaling of the MP2 energy         ...   1.000e+00
Calculating two index integrals           ... done (    0.008 sec)
Cholesky decomposition of the V-matrix    ... done
Cholesky decomposition of V**-1           ... done (    0.011 sec)

-----------------
RI-TRANSFORMATION (AUX index driven)
-----------------

Dimension of the orbital-basis         ... 177
Dimension of the aux-basis             ... 579
Transformation of internal MOs         ...    0-  28
Transformation of internal/external MOs...    0-  28 to   29- 176
Number Format for Storage              ... Double (8 Byte)
Integral mode                          ... Direct

First Phase: integral generation and transformation of MO indices
  Aux angular momentum 0               ... done (    0.002 sec)
  Aux angular momentum 1               ... done (    0.003 sec)
  Aux angular momentum 2               ... done (    0.002 sec)
  Aux angular momentum 3               ... done (    0.004 sec)
  Aux angular momentum 4               ... done (    0.005 sec)
  Aux angular momentum 5               ... done (    0.008 sec)
  Aux angular momentum 6               ... done (    0.012 sec)
Closing buffer VIJ ( 0.00 GB; CompressionRatio= 1.00)
Closing buffer VIA ( 0.02 GB; CompressionRatio= 1.00)
  Phase 1 completed in     0.109 sec
Second Phase: sorting and transformation of aux index

IJ-Transformation
Memory available                       ... 4990 MB 
Max. # MO pairs treated in a batch     ... 2    
# of internal orbitals                 ... 29
# batches for internal orbitals        ... 1
Closing buffer IJV ( 0.00 GB; CompressionRatio= 1.00)
(ij|v) transformation done in     0.004 sec

IA-Transformation
Memory available                       ... 4990 MB 
Max. # MO pairs treated in a batch     ... 2    
# of internal orbitals                 ... 29
# batches for internal orbitals        ... 1
Closing buffer IAV ( 0.00 GB; CompressionRatio= 1.00)
(ia|v) transformation done in     0.013 sec

  Phase 2 completed in     0.043 sec
RI-Integral transformation completed in     0.154 sec

-----------------
RI-TRANSFORMATION (AUX index driven)
-----------------

Dimension of the orbital-basis         ... 177
Dimension of the aux-basis             ... 579
Transformation of internal MOs         ...    0-  27
Transformation of internal/external MOs...    0-  27 to   28- 176
Number Format for Storage              ... Double (8 Byte)
Integral mode                          ... Direct

First Phase: integral generation and transformation of MO indices
  Aux angular momentum 0               ... done (    0.002 sec)
  Aux angular momentum 1               ... done (    0.003 sec)
  Aux angular momentum 2               ... done (    0.002 sec)
  Aux angular momentum 3               ... done (    0.004 sec)
  Aux angular momentum 4               ... done (    0.005 sec)
  Aux angular momentum 5               ... done (    0.008 sec)
  Aux angular momentum 6               ... done (    0.012 sec)
Closing buffer VIJ ( 0.00 GB; CompressionRatio= 1.00)
Closing buffer VIA ( 0.02 GB; CompressionRatio= 1.00)
  Phase 1 completed in     0.121 sec
Second Phase: sorting and transformation of aux index

IJ-Transformation
Memory available                       ... 4990 MB 
Max. # MO pairs treated in a batch     ... 2    
# of internal orbitals                 ... 28
# batches for internal orbitals        ... 1
Closing buffer IJV ( 0.00 GB; CompressionRatio= 1.00)
(ij|v) transformation done in     0.005 sec

IA-Transformation
Memory available                       ... 4990 MB 
Max. # MO pairs treated in a batch     ... 2    
# of internal orbitals                 ... 28
# batches for internal orbitals        ... 1
Closing buffer IAV ( 0.00 GB; CompressionRatio= 1.00)
(ia|v) transformation done in     0.013 sec

  Phase 2 completed in     0.045 sec
RI-Integral transformation completed in     0.168 sec
Opening buffers                              ... done

Starting loop over batches of integrals:

Operator 0  - window                       ... (  0- 28)x( 29-176)
Operator 0  - Memory available             ...  5000 MB
Operator 0  - Memory needed per MO         ...   1.3 MB
Operator 0  - Number of orbitals per batch ... 2
Operator 0  - Number of batches            ... 1

OPERATOR  0   PASS   0:  MOs     0 ...    1 +    2 ...    3 +    4 ...    5 +    6 ...    7
                            +    8 ...    9 +   10 ...   11 +   12 ...   13 +   14 ...   15
                            +   16 ...   17 +   18 ...   19 +   20 ...   21 +   22 ...   23
                            +   24 ...   25 +   26 ...   27 +   28 ...   28
  Reading integrals       ... ok
Closing buffer GIPV ( 0.00 GB; CompressionRatio= 1.00)

Operator 1  - window                       ... (  0- 27)x( 28-176)
Operator 1  - Memory available             ...  5000 MB
Operator 1  - Memory needed per MO         ...   1.3 MB
Operator 1  - Number of orbitals per batch ... 2
Operator 1  - Number of batches            ... 1

OPERATOR  1   PASS   0:  MOs     0 ...    1 +    2 ...    3 +    4 ...    5 +    6 ...    7
                            +    8 ...    9 +   10 ...   11 +   12 ...   13 +   14 ...   15
                            +   16 ...   17 +   18 ...   19 +   20 ...   21 +   22 ...   23
                            +   24 ...   25 +   26 ...   27
  Reading integrals       ... ok
Closing buffer GIPV ( 0.00 GB; CompressionRatio= 1.00)
Time spent in pair loops =     1.069 sec

Spin-scaled correlation energy components}
 E2 and T2 for alpha/alpha pairs :     -0.145702185 Eh      0.000000000
 E2 and T2 for beta/beta   pairs :     -0.136583149 Eh      0.000000000
 E2 and T2 for alpha/beta  pairs :     -0.634405703 Eh      0.000000000


-----------------------------------------------
 RI-MP2 CORRELATION ENERGY:     -0.916691038 Eh
-----------------------------------------------


---------------------
MP2 DENSITY FORMATION
---------------------

Completing the external part of the density      ... done
Storing the unrelaxed density                    ... done

Calculating the xc-kernel                        ... done
Calculating G(D)                                 ... done
Completing the Lagrangian                        ... done
Solving the Z-vector equations                   ... 

------------------------------------------------------------------------------
                           ORCA CP-SCF CALCULATION
------------------------------------------------------------------------------

Input orbitals are from        ... Au03N0_D3H.gbw
Input Perturbation             ... Au03N0_D3H.pin.tmp
Wavefunction output            ... Au03N0_D3H.pout.tmp
Perturbation mode              ... Real perturbation (singlet)
Solver                         ... POPLE
Max. number of iterations      ... 128
Convergence tolerance          ... 1.000e-08
Integral handling              ... Direct
Number of perturbations        ... 1
Number of operators            ... 2
Orbital ranges used for CP-SCF:
 Operator 0:  Orbitals   0... 28  to  29...176
 Operator 1:  Orbitals   0... 27  to  28...176
DFT calculation                         ... on
Exchange functional (SCF)               ... B88
Exchange functional (CP-SCF)            ... B88
   X-Alpha parameter    XAlpha (SCF)    ...  0.666667
   X-Alpha parameter    XAlpha (CP-SCF) ...  0.666667
   Becke's b parameter  XBeta (SCF)     ...  0.004200
   Becke's b parameter  XBeta (CP-SCF)  ...  0.004200
Correlation functional (SCF)            ... LYP
Correlation functional (CP-SCF)         ... LYP
 LDA part of GGA corr.  LDAOpt (SCF)    ... VWN-5
 LDA part of GGA corr.  LDAOpt (CP-SCF) ... VWN-5
Hybrid DFT                              ... on
   Exchange mixing (SCF)                ...  0.710
   Exchange mixing (CP-SCF)             ...  0.710
   GGA exch. scaling(SCF)               ...  0.290
   GGA exch. scaling (CP-SCF)           ...  0.290
   GGA corr. scaling (SCF)              ...  0.540
   GGA corr. scaling (CP-SCF)           ...  0.540
Variables per vector in CP-SCF ... 8464
Number of vectors sought       ... 1
Recalculating density on grid  ... done
Calculating the xc-kernel      ... done
     CP-SCF ITERATION   0: 
     CP-SCF ITERATION   1:      0.000626231054
     CP-SCF ITERATION   2:      0.000209896902
     CP-SCF ITERATION   3:      0.000021633776
     CP-SCF ITERATION   4:      0.000002846774
     CP-SCF ITERATION   5:      0.000001626296
     CP-SCF ITERATION   6:      0.000000211236
     CP-SCF ITERATION   7:      0.000000039894
     CP-SCF ITERATION   8:      0.000000018705
     CP-SCF ITERATION   9:      0.000000003749
done
Finalizing the relaxed density                   ... done
Transforming P to the AO basis                   ... done
Storing the relaxed density                      ... done

------------------------------------
ENERGY WEIGHTED DENSITY FINALIZATION
------------------------------------

Gathering the parts of the W-matrix              ... done
Forming the Z-density                            ... done
Transforming Z to the AO basis                   ... done
Calculating G(Z)                                 ... done
Finalizing the W-matrix                          ... done
Transforming W to the AO basis and storing       ... done
Entering the RIJONX and RIJCOSX sections
Starting the three-index derivative integrals:
Operator 0  - Memory available             ...  5000 MB
Operator 0  - Memory needed per MO         ...   1.6 MB
Operator 0  - Number of orbitals per batch ... 2
Operator 0  - Number of batches            ... 1

OPERATOR  0   PASS   0:  MOs     0 ...    1 +    2 ...    3 +    4 ...    5 +    6 ...    7
                            +    8 ...    9 +   10 ...   11 +   12 ...   13 +   14 ...   15
                            +   16 ...   17 +   18 ...   19 +   20 ...   21 +   22 ...   23
                            +   24 ...   25 +   26 ...   27 +   28 ...   28
Operator 1  - Memory available             ...  5000 MB
Operator 1  - Memory needed per MO         ...   1.6 MB
Operator 1  - Number of orbitals per batch ... 2
Operator 1  - Number of batches            ... 1

OPERATOR  1   PASS   0:  MOs     0 ...    1 +    2 ...    3 +    4 ...    5 +    6 ...    7
                            +    8 ...    9 +   10 ...   11 +   12 ...   13 +   14 ...   15
                            +   16 ...   17 +   18 ...   19 +   20 ...   21 +   22 ...   23
                            +   24 ...   25 +   26 ...   27

----------------------------------
MP2 DERIVATIVE INTEGRAL GENERATION
----------------------------------


Input Correlated Electron Density   ... Au03N0_D3H.pmp2re
Input Energy Weighted Density       ... Au03N0_D3H.wmp2.tmp
Input SCF Electron Density          ... Au03N0_D3H.scfp

One-Electron Terms    ...
  ECP gradient                                           ... One-Electron Terms done
Prescreening matrices              ... done
Exchange-correlation gradient    ... done
Dispersion correction            ... done

                *********************************************
                * UNRELAXED MP2 DENSITY POPULATION ANALYSIS *
                *********************************************

------------------------------------------------------------------------------
                           ORCA POPULATION ANALYSIS
------------------------------------------------------------------------------
Input electron density              ... Au03N0_D3H.pmp2ur
Input spin density                  ... Au03N0_D3H.rmp2ur
BaseName (.gbw .S,...)              ... Au03N0_D3H

                    ********************************
                    * MULLIKEN POPULATION ANALYSIS *
                    ********************************

------------------------------------------
MULLIKEN ATOMIC CHARGES AND SPIN DENSITIES
------------------------------------------
   0 Au:   -0.145451    0.645451
   1 Au:    0.072725    0.177276
   2 Au:    0.072726    0.177273
Sum of atomic charges       :   -0.0000000
Sum of atomic spin densities:    1.0000000

---------------------------------------------------
MULLIKEN REDUCED ORBITAL CHARGES AND SPIN DENSITIES
---------------------------------------------------
CHARGE
  0 Aus       :     3.104156  s :     3.104156
      pz      :     2.019740  p :     6.202604
      px      :     2.022698
      py      :     2.160166
      dz2     :     1.959706  d :     9.758075
      dxz     :     1.978059
      dyz     :     1.970762
      dx2y2   :     1.955686
      dxy     :     1.893862
      f0      :     0.010423  f :     0.075381
      f+1     :     0.010084
      f-1     :     0.010791
      f+2     :     0.010113
      f-2     :     0.010669
      f+3     :     0.011747
      f-3     :     0.011554
      g0      :     0.000573  g :     0.005235
      g+1     :     0.000563
      g-1     :     0.000585
      g+2     :     0.000574
      g-2     :     0.000580
      g+3     :     0.000583
      g-3     :     0.000570
      g+4     :     0.000602
      g-4     :     0.000605
  1 Aus       :     2.821631  s :     2.821631
      pz      :     2.020897  p :     6.207681
      px      :     2.057311
      py      :     2.129473
      dz2     :     1.962758  d :     9.818037
      dxz     :     1.977201
      dyz     :     1.980568
      dx2y2   :     1.941691
      dxy     :     1.955819
      f0      :     0.010253  f :     0.074657
      f+1     :     0.010402
      f-1     :     0.010076
      f+2     :     0.010378
      f-2     :     0.010127
      f+3     :     0.011883
      f-3     :     0.011539
      g0      :     0.000572  g :     0.005269
      g+1     :     0.000580
      g-1     :     0.000568
      g+2     :     0.000581
      g-2     :     0.000577
      g+3     :     0.000588
      g-3     :     0.000575
      g+4     :     0.000615
      g-4     :     0.000612
  2 Aus       :     2.821629  s :     2.821629
      pz      :     2.020897  p :     6.207681
      px      :     2.057311
      py      :     2.129473
      dz2     :     1.962758  d :     9.818037
      dxz     :     1.977201
      dyz     :     1.980568
      dx2y2   :     1.941691
      dxy     :     1.955819
      f0      :     0.010253  f :     0.074657
      f+1     :     0.010402
      f-1     :     0.010076
      f+2     :     0.010378
      f-2     :     0.010127
      f+3     :     0.011883
      f-3     :     0.011539
      g0      :     0.000572  g :     0.005269
      g+1     :     0.000580
      g-1     :     0.000568
      g+2     :     0.000581
      g-2     :     0.000577
      g+3     :     0.000588
      g-3     :     0.000575
      g+4     :     0.000615
      g-4     :     0.000612

SPIN
  0 Aus       :     0.523154  s :     0.523154
      pz      :     0.001931  p :     0.074545
      px      :     0.003076
      py      :     0.069537
      dz2     :     0.008899  d :     0.048790
      dxz     :     0.001315
      dyz     :     0.002123
      dx2y2   :     0.010219
      dxy     :     0.026234
      f0      :    -0.000138  f :    -0.001084
      f+1     :    -0.000131
      f-1     :    -0.000161
      f+2     :    -0.000141
      f-2     :    -0.000152
      f+3     :    -0.000213
      f-3     :    -0.000148
      g0      :     0.000003  g :     0.000047
      g+1     :     0.000001
      g-1     :     0.000006
      g+2     :     0.000003
      g-2     :     0.000004
      g+3     :     0.000005
      g-3     :     0.000006
      g+4     :     0.000009
      g-4     :     0.000010
  1 Aus       :     0.089143  s :     0.089143
      pz      :     0.000007  p :     0.081978
      px      :     0.000564
      py      :     0.081406
      dz2     :     0.002645  d :     0.006431
      dxz     :    -0.000149
      dyz     :    -0.000209
      dx2y2   :    -0.004962
      dxy     :     0.009106
      f0      :    -0.000034  f :    -0.000276
      f+1     :    -0.000033
      f-1     :    -0.000023
      f+2     :    -0.000043
      f-2     :    -0.000048
      f+3     :     0.000009
      f-3     :    -0.000104
      g0      :    -0.000000  g :     0.000000
      g+1     :    -0.000002
      g-1     :     0.000002
      g+2     :    -0.000001
      g-2     :     0.000001
      g+3     :    -0.000000
      g-3     :     0.000000
      g+4     :     0.000000
      g-4     :     0.000000
  2 Aus       :     0.089140  s :     0.089140
      pz      :     0.000007  p :     0.081978
      px      :     0.000564
      py      :     0.081406
      dz2     :     0.002645  d :     0.006431
      dxz     :    -0.000149
      dyz     :    -0.000209
      dx2y2   :    -0.004962
      dxy     :     0.009105
      f0      :    -0.000034  f :    -0.000276
      f+1     :    -0.000033
      f-1     :    -0.000023
      f+2     :    -0.000043
      f-2     :    -0.000048
      f+3     :     0.000009
      f-3     :    -0.000104
      g0      :    -0.000000  g :     0.000000
      g+1     :    -0.000002
      g-1     :     0.000002
      g+2     :    -0.000001
      g-2     :     0.000001
      g+3     :    -0.000000
      g-3     :     0.000000
      g+4     :     0.000000
      g-4     :     0.000000


                     *******************************
                     * LOEWDIN POPULATION ANALYSIS *
                     *******************************

-----------------------------------------
LOEWDIN ATOMIC CHARGES AND SPIN DENSITIES
-----------------------------------------
   0 Au:   -0.100125    0.530258
   1 Au:    0.050062    0.234872
   2 Au:    0.050063    0.234870

--------------------------------------------------
LOEWDIN REDUCED ORBITAL CHARGES AND SPIN DENSITIES
--------------------------------------------------
CHARGE
  0 Aus       :     2.796918  s :     2.796918
      pz      :     2.024307  p :     6.407529
      px      :     2.042520
      py      :     2.340702
      dz2     :     1.982013  d :     9.806247
      dxz     :     1.976457
      dyz     :     1.965603
      dx2y2   :     1.962741
      dxy     :     1.919434
      f0      :     0.011020  f :     0.084100
      f+1     :     0.010694
      f-1     :     0.012422
      f+2     :     0.010351
      f-2     :     0.011564
      f+3     :     0.015226
      f-3     :     0.012822
      g0      :     0.000581  g :     0.005331
      g+1     :     0.000566
      g-1     :     0.000592
      g+2     :     0.000581
      g-2     :     0.000594
      g+3     :     0.000592
      g-3     :     0.000570
      g+4     :     0.000619
      g-4     :     0.000636
  1 Aus       :     2.626661  s :     2.626661
      pz      :     2.025812  p :     6.370373
      px      :     2.116645
      py      :     2.227916
      dz2     :     1.980190  d :     9.863679
      dxz     :     1.973264
      dyz     :     1.978002
      dx2y2   :     1.963950
      dxy     :     1.968273
      f0      :     0.010864  f :     0.083858
      f+1     :     0.011531
      f-1     :     0.010979
      f+2     :     0.011125
      f-2     :     0.010559
      f+3     :     0.015953
      f-3     :     0.012848
      g0      :     0.000580  g :     0.005367
      g+1     :     0.000586
      g-1     :     0.000572
      g+2     :     0.000594
      g-2     :     0.000586
      g+3     :     0.000598
      g-3     :     0.000575
      g+4     :     0.000643
      g-4     :     0.000633
  2 Aus       :     2.626660  s :     2.626660
      pz      :     2.025812  p :     6.370373
      px      :     2.116645
      py      :     2.227916
      dz2     :     1.980190  d :     9.863679
      dxz     :     1.973264
      dyz     :     1.978002
      dx2y2   :     1.963950
      dxy     :     1.968273
      f0      :     0.010864  f :     0.083858
      f+1     :     0.011531
      f-1     :     0.010979
      f+2     :     0.011125
      f-2     :     0.010559
      f+3     :     0.015953
      f-3     :     0.012848
      g0      :     0.000580  g :     0.005367
      g+1     :     0.000586
      g-1     :     0.000572
      g+2     :     0.000594
      g-2     :     0.000586
      g+3     :     0.000598
      g-3     :     0.000575
      g+4     :     0.000643
      g-4     :     0.000633

SPIN
  0 Aus       :     0.311630  s :     0.311630
      pz      :     0.002264  p :     0.172984
      px      :     0.002254
      py      :     0.168466
      dz2     :     0.008405  d :     0.046117
      dxz     :     0.000579
      dyz     :     0.002060
      dx2y2   :     0.012123
      dxy     :     0.022950
      f0      :    -0.000133  f :    -0.000523
      f+1     :    -0.000102
      f-1     :     0.000143
      f+2     :    -0.000127
      f-2     :    -0.000156
      f+3     :     0.000008
      f-3     :    -0.000157
      g0      :     0.000004  g :     0.000049
      g+1     :     0.000001
      g-1     :     0.000006
      g+2     :     0.000004
      g-2     :     0.000004
      g+3     :     0.000005
      g-3     :     0.000006
      g+4     :     0.000010
      g-4     :     0.000010
  1 Aus       :     0.059494  s :     0.059494
      pz      :     0.000179  p :     0.156482
      px      :    -0.000190
      py      :     0.156493
      dz2     :     0.003689  d :     0.018571
      dxz     :    -0.000306
      dyz     :    -0.000015
      dx2y2   :     0.002120
      dxy     :     0.013083
      f0      :    -0.000032  f :     0.000320
      f+1     :    -0.000044
      f-1     :     0.000158
      f+2     :    -0.000034
      f-2     :    -0.000043
      f+3     :     0.000411
      f-3     :    -0.000097
      g0      :     0.000000  g :     0.000004
      g+1     :    -0.000002
      g-1     :     0.000002
      g+2     :    -0.000001
      g-2     :     0.000001
      g+3     :    -0.000000
      g-3     :     0.000000
      g+4     :     0.000001
      g-4     :     0.000002
  2 Aus       :     0.059493  s :     0.059493
      pz      :     0.000179  p :     0.156483
      px      :    -0.000189
      py      :     0.156493
      dz2     :     0.003689  d :     0.018571
      dxz     :    -0.000306
      dyz     :    -0.000015
      dx2y2   :     0.002120
      dxy     :     0.013083
      f0      :    -0.000032  f :     0.000320
      f+1     :    -0.000044
      f-1     :     0.000158
      f+2     :    -0.000034
      f-2     :    -0.000043
      f+3     :     0.000411
      f-3     :    -0.000097
[...]
      f+1     :    -0.000055
      f-1     :     0.000209
      f+2     :    -0.000037
      f-2     :    -0.000024
      f+3     :     0.000506
      f-3     :    -0.000073
      g0      :     0.000001  g :     0.000004
      g+1     :    -0.000002
      g-1     :     0.000002
      g+2     :    -0.000001
      g-2     :     0.000001
      g+3     :    -0.000000
      g-3     :    -0.000000
      g+4     :    -0.000000
      g-4     :     0.000004
  2 Aus       :     0.059918  s :     0.059918
      pz      :     0.000223  p :     0.142734
      px      :    -0.001703
      py      :     0.144213
      dz2     :     0.003884  d :     0.024337
      dxz     :    -0.000235
      dyz     :    -0.000055
      dx2y2   :     0.006070
      dxy     :     0.014672
      f0      :    -0.000021  f :     0.000505
      f+1     :    -0.000055
      f-1     :     0.000209
      f+2     :    -0.000037
      f-2     :    -0.000024
      f+3     :     0.000506
      f-3     :    -0.000073
      g0      :     0.000001  g :     0.000004
      g+1     :    -0.000002
      g-1     :     0.000002
      g+2     :    -0.000001
      g-2     :     0.000001
      g+3     :    -0.000000
      g-3     :    -0.000000
      g+4     :    -0.000000
      g-4     :     0.000004


                      *****************************
                      * MAYER POPULATION ANALYSIS *
                      *****************************

  NA   - Mulliken gross atomic population
  ZA   - Total nuclear charge
  QA   - Mulliken gross atomic charge
  VA   - Mayer's total valence
  BVA  - Mayer's bonded valence
  FA   - Mayer's free valence

  ATOM       NA         ZA         QA         VA         BVA        FA
  0 Au    19.1286    19.0000    -0.1286     2.0138     0.9406     1.0732
  1 Au    18.9357    19.0000     0.0643     1.9555     1.2624     0.6931
  2 Au    18.9357    19.0000     0.0643     1.9555     1.2624     0.6931

  Mayer bond orders larger than 0.100000
B(  0-Au,  1-Au) :   0.4703 B(  0-Au,  2-Au) :   0.4703 B(  1-Au,  2-Au) :   0.7920 



-------
TIMINGS
-------

Total time                :   22.890 sec
Integral trafo            :    0.395 sec (  1.7%)
I/O of integrals          :    0.006 sec (  0.0%)
K(i,j) Operators          :    0.114 sec (  0.5%)
T(i,j) pair energies      :    0.017 sec (  0.1%)
V-calculation             :    0.010 sec (  0.0%)
V**(-1/2)                 :    0.016 sec (  0.1%)
Gamma(ia|P)               :    0.087 sec (  0.4%)
Gamma-Trafo               :    0.021 sec (  0.1%)
D(virtual)                :    0.012 sec (  0.1%)
D(internal)               :    0.031 sec (  0.1%)
W(virtual)                :    0.012 sec (  0.1%)
W(internal)               :    0.127 sec (  0.6%)
L(virtual)                :    0.543 sec (  2.4%)
L(internal)               :    0.004 sec (  0.0%)
G(D)                      :    1.691 sec (  7.4%)
G(Z)                      :    1.562 sec (  6.8%)
Z-Vector Solution         :    8.625 sec ( 37.7%)
Z-Vector Solution         :    8.625 sec ( 37.7%)
3-Index Derivative 
+ Separable RIJ part      :    3.352 sec ( 14.6%)
2-Index Derivative 
+ Separable RIJ part      :    0.008 sec (  0.0%)
Separable Gradient (X)    :    5.639 sec ( 24.6%)


---------------------------------------
MP2 TOTAL ENERGY:     -406.628687651 Eh
---------------------------------------

-----------------------------------
NORM OF THE MP2 GRADIENT:  0.000039
-----------------------------------


-------------------------------------------------------------------------------
                          DFT DISPERSION CORRECTION                            
                                                                               
                              DFTD3 V3.1  Rev 1                                
                          USING Becke-Johnson damping                          
-------------------------------------------------------------------------------
The DSD-BLYP/2013 functional is recognized
Active option DFTDOPT                   ...         4   

molecular C6(AA) [au] = 2854.412023 


            DFT-D V3
 parameters
 s6 scaling factor         :     0.5700 
 a1 scaling factor         :     0.0000 
 s8 scaling factor         :     0.0000 
 a2 scaling factor         :     5.4000 
 ad hoc parameters k1-k3   :    16.0000     1.3333    -4.0000 

 Edisp/kcal,au: -8.518057947848  -0.013574387944 
 E6   /kcal   :  -8.518057948 
 E8   /kcal   :  -0.000000000 
 % E8         :   0.000000000 

-------------------------   ----------------
Dispersion correction           -0.013574388
-------------------------   ----------------


-------------------------   --------------------
FINAL SINGLE POINT ENERGY      -406.642262038864
-------------------------   --------------------

                                *** OPTIMIZATION RUN DONE ***

                            ***************************************
                            *     ORCA property calculations      *
                            ***************************************

                                    ---------------------
                                    Active property flags
                                    ---------------------
   (+) Dipole Moment


------------------------------------------------------------------------------
                       ORCA ELECTRIC PROPERTIES CALCULATION
------------------------------------------------------------------------------

Dipole Moment Calculation                       ... on
Quadrupole Moment Calculation                   ... off
Polarizability Calculation                      ... off
GBWName                                         ... Au03N0_D3H.gbw
Electron density file                           ... Au03N0_D3H.scfp
The origin for moment calculation is the CENTER OF MASS  = (-0.000000,  0.000000  0.000000)

-------------
DIPOLE MOMENT
-------------
                                X             Y             Z
Electronic contribution:     -0.00000      -0.64784      -0.00000
Nuclear contribution   :     -0.00000       0.00000       0.00000
                        -----------------------------------------
Total Dipole Moment    :     -0.00000      -0.64784      -0.00000
                        -----------------------------------------
Magnitude (a.u.)       :      0.64784
Magnitude (Debye)      :      1.64669



--------------------
Rotational spectrum 
--------------------
 
Rotational constants in cm-1:     0.026702     0.022963     0.012346 
Rotational constants in MHz :   800.494784   688.401803   370.114390 

 Dipole components along the rotational axes: 
x,y,z [a.u.] :     0.647845     0.000007    -0.000000 
x,y,z [Debye]:     1.646690     0.000018    -0.000000 

 

                         *** MP2 UNRELAXED DENSITY ***

------------------------------------------------------------------------------
                       ORCA ELECTRIC PROPERTIES CALCULATION
------------------------------------------------------------------------------

Dipole Moment Calculation                       ... on
Quadrupole Moment Calculation                   ... off
Polarizability Calculation                      ... off
GBWName                                         ... Au03N0_D3H.gbw
Electron density file                           ... Au03N0_D3H.pmp2ur
The origin for moment calculation is the CENTER OF MASS  = (-0.000000,  0.000000  0.000000)

-------------
DIPOLE MOMENT
-------------
                                X             Y             Z
Electronic contribution:     -0.00000      -0.63437      -0.00000
Nuclear contribution   :     -0.00000       0.00000       0.00000
                        -----------------------------------------
Total Dipole Moment    :     -0.00000      -0.63437      -0.00000
                        -----------------------------------------
Magnitude (a.u.)       :      0.63437
Magnitude (Debye)      :      1.61243



--------------------
Rotational spectrum 
--------------------
 
Rotational constants in cm-1:     0.026702     0.022963     0.012346 
Rotational constants in MHz :   800.494784   688.401803   370.114390 

 Dipole components along the rotational axes: 
x,y,z [a.u.] :     0.634365     0.000007    -0.000000 
x,y,z [Debye]:     1.612429     0.000018    -0.000000 

 

                           *** MP2 RELAXED DENSITY ***

------------------------------------------------------------------------------
                       ORCA ELECTRIC PROPERTIES CALCULATION
------------------------------------------------------------------------------

Dipole Moment Calculation                       ... on
Quadrupole Moment Calculation                   ... off
Polarizability Calculation                      ... off
GBWName                                         ... Au03N0_D3H.gbw
Electron density file                           ... Au03N0_D3H.pmp2re
The origin for moment calculation is the CENTER OF MASS  = (-0.000000,  0.000000  0.000000)

-------------
DIPOLE MOMENT
-------------
                                X             Y             Z
Electronic contribution:     -0.00000      -0.54548      -0.00000
Nuclear contribution   :     -0.00000       0.00000       0.00000
                        -----------------------------------------
Total Dipole Moment    :     -0.00000      -0.54548      -0.00000
                        -----------------------------------------
Magnitude (a.u.)       :      0.54548
Magnitude (Debye)      :      1.38651



--------------------
Rotational spectrum 
--------------------
 
Rotational constants in cm-1:     0.026702     0.022963     0.012346 
Rotational constants in MHz :   800.494784   688.401803   370.114390 

 Dipole components along the rotational axes: 
x,y,z [a.u.] :     0.545484     0.000008    -0.000000 
x,y,z [Debye]:     1.386509     0.000020    -0.000000 

 

----------------------------------------------------------------------------
                           ORCA NUMERICAL FREQUENCIES
                              (24-process run)
----------------------------------------------------------------------------

Number of atoms                ... 3
Central differences            ... used
Number of displacements        ... 18
Numerical increment            ... 5.000e-03 bohr
IR-spectrum generation         ... on
Raman-spectrum generation      ... off
Surface Crossing Hessian       ... off

 WARNING: There are more processes than displacements to do
  ====> : Reducing number of processes to   9

The output will be reduced. Please look at the following files:
SCF program output             ... >Au03N0_D3H.lastscf
Integral program output        ... >Au03N0_D3H.lastint
Gradient program output        ... >Au03N0_D3H.lastgrad
Dipole moment program output   ... >Au03N0_D3H.lastmom
AutoCI program output          ... >Au03N0_D3H.lastautoci


         <<< Energy and Gradient at the input geometry >>>

        <<< Energy and Gradient at displaced geometries >>>
             <<<Displacing   2/coordinate 2 (+)>>>
             <<<Displacing   1/coordinate 1 (+)>>>
             <<<Displacing   1/coordinate 3 (+)>>>
             <<<Displacing   1/coordinate 2 (+)>>>
             <<<Displacing   2/coordinate 1 (+)>>>
             <<<Displacing   3/coordinate 2 (+)>>>
             <<<Displacing   3/coordinate 3 (+)>>>
             <<<Displacing   3/coordinate 1 (+)>>>
             <<<Displacing   2/coordinate 3 (+)>>>
             <<<Displacing   1/coordinate 3 (-)>>>
             <<<Displacing   3/coordinate 3 (-)>>>
             <<<Displacing   2/coordinate 3 (-)>>>
             <<<Displacing   1/coordinate 2 (-)>>>
             <<<Displacing   2/coordinate 1 (-)>>>
             <<<Displacing   3/coordinate 1 (-)>>>
             <<<Displacing   1/coordinate 1 (-)>>>
             <<<Displacing   2/coordinate 2 (-)>>>
             <<<Displacing   3/coordinate 2 (-)>>>

-----------------------
VIBRATIONAL FREQUENCIES
-----------------------

Scaling factor for frequencies =  1.000000000 (already applied!)

   0:         0.00 cm**-1
   1:         0.00 cm**-1
   2:         0.00 cm**-1
   3:         0.00 cm**-1
   4:         0.00 cm**-1
   5:         0.00 cm**-1
   6:       -19.90 cm**-1 ***imaginary mode***
   7:       116.92 cm**-1
   8:       184.41 cm**-1


------------
NORMAL MODES
------------

These modes are the cartesian displacements weighted by the diagonal matrix
M(i,i)=1/sqrt(m[i]) where m[i] is the mass of the displaced atom
Thus, these vectors are normalized but *not* orthogonal

                  0          1          2          3          4          5    
      0       0.000000   0.000000   0.000000   0.000000   0.000000   0.000000
      1       0.000000   0.000000   0.000000   0.000000   0.000000   0.000000
      2       0.000000   0.000000   0.000000   0.000000   0.000000   0.000000
      3       0.000000   0.000000   0.000000   0.000000   0.000000   0.000000
      4       0.000000   0.000000   0.000000   0.000000   0.000000   0.000000
      5       0.000000   0.000000   0.000000   0.000000   0.000000   0.000000
      6       0.000000   0.000000   0.000000   0.000000   0.000000   0.000000
      7       0.000000   0.000000   0.000000   0.000000   0.000000   0.000000
      8       0.000000   0.000000   0.000000   0.000000   0.000000   0.000000
                   6          7          8    
      0       0.555192  -0.000019   0.000003
      1       0.000024   0.761927   0.293486
      2       0.000000   0.000000   0.000000
      3      -0.277608  -0.254157   0.659847
      4       0.518468  -0.380981  -0.146740
      5       0.000000   0.000000   0.000000
      6      -0.277584   0.254176  -0.659850
      7      -0.518492  -0.380946  -0.146746
      8       0.000000   0.000000   0.000000


-----------
IR SPECTRUM  
-----------

 Mode    freq (cm**-1)   T**2         TX         TY         TZ
-------------------------------------------------------------------
   7:       116.92    0.094281  ( -0.000079  -0.307052  -0.000004)
   8:       184.41    0.075206  (  0.000023  -0.274237   0.000002)

The first frequency considered to be a vibration is 7
The total number of vibrations considered is 2


--------------------------
THERMOCHEMISTRY AT 298.15K
--------------------------

Temperature         ... 298.15 K
Pressure            ... 1.00 atm
Total Mass          ... 590.90 AMU

Throughout the following assumptions are being made:
  (1) The electronic state is orbitally nondegenerate
      but the spin degeneracy is treated
  (2) There are no thermally accessible electronically excited states
  (3) Hindered rotations indicated by low frequency modes are not
      treated as such but are treated as vibrations and this may
      cause some error
  (4) All equations used are the standard statistical mechanics
      equations for an ideal gas
  (5) All vibrations are strictly harmonic

freq.     116.92  E(vib)   ...       0.44 
freq.     184.41  E(vib)   ...       0.37 

------------
INNER ENERGY
------------

The inner energy is: U= E(el) + E(ZPE) + E(vib) + E(rot) + E(trans)
    E(el)   - is the total energy from the electronic structure calculation
              = E(kin-el) + E(nuc-el) + E(el-el) + E(nuc-nuc)
    E(ZPE)  - the the zero temperature vibrational energy from the frequency calculation
    E(vib)  - the the finite temperature correction to E(ZPE) due to population
              of excited vibrational states
    E(rot)  - is the rotational thermal energy
    E(trans)- is the translational thermal energy

Summary of contributions to the inner energy U:
Electronic energy                ...   -406.64226243 Eh
Zero point energy                ...      0.00068648 Eh       0.43 kcal/mol
Thermal vibrational correction   ...      0.00128836 Eh       0.81 kcal/mol
Thermal rotational correction    ...      0.00141627 Eh       0.89 kcal/mol
Thermal translational correction ...      0.00141627 Eh       0.89 kcal/mol
-----------------------------------------------------------------------
Total thermal energy                   -406.63745505 Eh


Summary of corrections to the electronic energy:
(perhaps to be used in another calculation)
Total thermal correction                  0.00412090 Eh       2.59 kcal/mol
Non-thermal (ZPE) correction              0.00068648 Eh       0.43 kcal/mol
-----------------------------------------------------------------------
Total correction                          0.00480738 Eh       3.02 kcal/mol


--------
ENTHALPY
--------

The enthalpy is H = U + kB*T
                kB is Boltzmann's constant
Total free energy                 ...   -406.63745505 Eh 
Thermal Enthalpy correction       ...      0.00094421 Eh       0.59 kcal/mol
-----------------------------------------------------------------------
Total Enthalpy                    ...   -406.63651084 Eh


Note: Rotational entropy computed according to Herzberg 
Infrared and Raman Spectra, Chapter V,1, Van Nostrand Reinhold, 1945 
Point Group:  Cs, Symmetry Number:   1  
Rotational constants in cm-1:     0.026702     0.022963     0.012346 

Vibrational entropy computed according to the QRRHO of S. Grimme
Chem.Eur.J. 2012 18 9955


-------
ENTROPY
-------

The entropy contributions are T*S = T*(S(el)+S(vib)+S(rot)+S(trans))
     S(el)   - electronic entropy
     S(vib)  - vibrational entropy
     S(rot)  - rotational entropy
     S(trans)- translational entropy
The entropies will be listed as mutliplied by the temperature to get
units of energy

Electronic entropy                ...      0.00065446 Eh      0.41 kcal/mol
Vibrational entropy               ...      0.00250585 Eh      1.57 kcal/mol
Rotational entropy                ...      0.01507740 Eh      9.46 kcal/mol
Translational entropy             ...      0.02138721 Eh     13.42 kcal/mol
-----------------------------------------------------------------------
Final entropy term                ...      0.03962492 Eh     24.86 kcal/mol

In case the symmetry of your molecule has not been determined correctly
or in case you have a reason to use a different symmetry number we print 
out the resulting rotational entropy values for sn=1,12 :
 --------------------------------------------------------
|  sn= 1 | S(rot)=       0.01507740 Eh      9.46 kcal/mol|
|  sn= 2 | S(rot)=       0.01442295 Eh      9.05 kcal/mol|
|  sn= 3 | S(rot)=       0.01404011 Eh      8.81 kcal/mol|
|  sn= 4 | S(rot)=       0.01376849 Eh      8.64 kcal/mol|
|  sn= 5 | S(rot)=       0.01355780 Eh      8.51 kcal/mol|
|  sn= 6 | S(rot)=       0.01338566 Eh      8.40 kcal/mol|
|  sn= 7 | S(rot)=       0.01324011 Eh      8.31 kcal/mol|
|  sn= 8 | S(rot)=       0.01311403 Eh      8.23 kcal/mol|
|  sn= 9 | S(rot)=       0.01300282 Eh      8.16 kcal/mol|
|  sn=10 | S(rot)=       0.01290335 Eh      8.10 kcal/mol|
|  sn=11 | S(rot)=       0.01281336 Eh      8.04 kcal/mol|
|  sn=12 | S(rot)=       0.01273120 Eh      7.99 kcal/mol|
 --------------------------------------------------------


-------------------
GIBBS FREE ENERGY
-------------------

The Gibbs free energy is G = H - T*S

Total enthalpy                    ...   -406.63651084 Eh 
Total entropy correction          ...     -0.03962492 Eh    -24.86 kcal/mol
-----------------------------------------------------------------------
Final Gibbs free energy         ...   -406.67613577 Eh

For completeness - the Gibbs free energy minus the electronic energy
G-E(el)                           ...     -0.03387334 Eh    -21.26 kcal/mol


Total Time for Numerical Frequencies  :       445.831 sec

Timings for individual modules:

Sum of individual times         ...      240.260 sec (=   4.004 min)
GTO integral calculation        ...        8.858 sec (=   0.148 min)   3.7 %
SCF iterations                  ...       44.248 sec (=   0.737 min)  18.4 %
MP2 module                      ...      186.930 sec (=   3.116 min)  77.8 %
Geometry relaxation             ...        0.224 sec (=   0.004 min)   0.1 %
                             ****ORCA TERMINATED NORMALLY****
TOTAL RUN TIME: 0 days 0 hours 11 minutes 0 seconds 688 msec
