
                                 *****************
                                 * O   R   C   A *
                                 *****************

           --- An Ab Initio, DFT and Semiempirical electronic structure package ---

                  #######################################################
                  #                        -***-                        #
                  #          Department of theory and spectroscopy      #
                  #               Directorship: Frank Neese             #
                  #        Max Planck Institute fuer Kohlenforschung    #
                  #                Kaiser Wilhelm Platz 1               #
                  #                 D-45470 Muelheim/Ruhr               #
                  #                      Germany                        #
                  #                                                     #
                  #                  All rights reserved                #
                  #                        -***-                        #
                  #######################################################


                         Program Version 4.2.0 -  RELEASE  -


 With contributions from (in alphabetic order):
   Daniel Aravena         : Magnetic Suceptibility
   Michael Atanasov       : Ab Initio Ligand Field Theory (pilot matlab implementation)
   Alexander A. Auer      : GIAO ZORA, VPT2
   Ute Becker             : Parallelization
   Giovanni Bistoni       : ED, misc. LED, open-shell LED, HFLED
   Martin Brehm           : Molecular dynamics
   Dmytro Bykov           : SCF Hessian
   Vijay G. Chilkuri      : MRCI spin determinant printing, contributions to CSF-ICE
   Dipayan Datta          : RHF DLPNO-CCSD density
   Achintya Kumar Dutta   : EOM-CC, STEOM-CC
   Dmitry Ganyushin       : Spin-Orbit,Spin-Spin,Magnetic field MRCI
   Miquel Garcia          : C-PCM Hessian, Gaussian charge scheme
   Yang Guo               : DLPNO-NEVPT2, CIM, IAO-localization
   Andreas Hansen         : Spin unrestricted coupled pair/coupled cluster methods
   Benjamin Helmich-Paris : CASSCF linear response (MC-RPA)
   Lee Huntington         : MR-EOM, pCC
   Robert Izsak           : Overlap fitted RIJCOSX, COSX-SCS-MP3, EOM
   Christian Kollmar      : KDIIS, OOCD, Brueckner-CCSD(T), CCSD density
   Simone Kossmann        : Meta GGA functionals, TD-DFT gradient, OOMP2, MP2 Hessian
   Martin Krupicka        : AUTO-CI
   Lucas Lang             : DCDCAS
   Dagmar Lenk            : GEPOL surface, SMD
   Dimitrios Liakos       : Extrapolation schemes; Compound Job, initial MDCI parallelization
   Dimitrios Manganas     : Further ROCIS development; embedding schemes
   Dimitrios Pantazis     : SARC Basis sets
   Taras Petrenko         : DFT Hessian,TD-DFT gradient, ASA, ECA, R-Raman, ABS, FL, XAS/XES, NRVS
   Peter Pinski           : DLPNO-MP2, DLPNO-MP2 Gradient
   Christoph Reimann      : Effective Core Potentials
   Marius Retegan         : Local ZFS, SOC
   Christoph Riplinger    : Optimizer, TS searches, QM/MM, DLPNO-CCSD(T), (RO)-DLPNO pert. Triples
   Tobias Risthaus        : Range-separated hybrids, TD-DFT gradient, RPA, STAB
   Michael Roemelt        : Original ROCIS implementation
   Masaaki Saitow         : Open-shell DLPNO-CCSD energy and density
   Barbara Sandhoefer     : DKH picture change effects
   Avijit Sen             : IP-ROCIS
   Kantharuban Sivalingam : CASSCF convergence, NEVPT2, FIC-MRCI
   Bernardo de Souza      : ESD, SOC TD-DFT
   Georgi Stoychev        : AutoAux, RI-MP2 NMR
   Willem Van den Heuvel  : Paramagnetic NMR
   Boris Wezisla          : Elementary symmetry handling
   Frank Wennmohs         : Technical directorship


 We gratefully acknowledge several colleagues who have allowed us to
 interface, adapt or use parts of their codes:
   Stefan Grimme, W. Hujo, H. Kruse,             : VdW corrections, initial TS optimization,
                  C. Bannwarth                     DFT functionals, gCP, sTDA/sTD-DF
   Ed Valeev, F. Pavosevic, A. Kumar             : LibInt (2-el integral package), F12 methods
   Garnet Chan, S. Sharma, J. Yang, R. Olivares  : DMRG
   Ulf Ekstrom                                   : XCFun DFT Library
   Mihaly Kallay                                 : mrcc  (arbitrary order and MRCC methods)
   Andreas Klamt, Michael Diedenhofen            : otool_cosmo (COSMO solvation model)
   Jiri Pittner, Ondrej Demel                    : Mk-CCSD
   Frank Weinhold                                : gennbo (NPA and NBO analysis)
   Christopher J. Cramer and Donald G. Truhlar   : smd solvation model
   Lars Goerigk                                  : TD-DFT with DH, B97 family of functionals
   V. Asgeirsson, H. Jonsson                     : NEB implementation
   FAccTs GmbH                                   : IRC, NEB, NEB-TS, Multilevel, MM, QM/MM, CI optimization
   S Lehtola, MJT Oliveira, MAL Marques          : LibXC Library


 Your calculation uses the libint2 library for the computation of 2-el integrals
 For citations please refer to: http://libint.valeyev.net

 Your ORCA version has been built with support for libXC version: 4.2.3
 For citations please refer to: https://tddft.org/programs/libxc/

 This ORCA versions uses:
   CBLAS   interface :  Fast vector & matrix operations
   LAPACKE interface :  Fast linear algebra routines
   SCALAPACK package :  Parallel linear algebra routines


Your calculation utilizes the atom-pairwise dispersion correction
with the Becke-Johnson damping scheme (D3BJ)
Cite in your paper:
S.Grimme, S.Ehrlich, L.Goerigk, J Comput Chem, (2011), 32, 1456–1465 
S.Grimme, J.Antony, S.Ehrlich and H.Krieg, J.Chem.Phys., 132, (2010), 154104 
   

----- Orbital basis set information -----
Your calculation utilizes the basis: def2-TZVPPD
   F. Weigend and R. Ahlrichs, Phys. Chem. Chem. Phys. 7, 3297 (2005).
   D. Rappoport and F. Furche, J. Chem. Phys. 133 134105 (2010).

----- AuxC basis set information -----
Your calculation utilizes the auxiliary basis: def2-TZVPPD/C
   A. Hellweg, C. Hattig, S. Hofener and W. Klopper, Theor. Chem. Acc. 117, 587 (2007).

----- AuxJK basis set information -----
Your calculation utilizes the auxiliary basis: def2/JK
   H-Ba, Hf-Rn: F. Weigend, J. Comput. Chem. 29, 167 (2008).

================================================================================
                                        WARNINGS
                       Please study these warnings very carefully!
================================================================================


WARNING: The frozen-core approximation for MP2-gradient calculations is turned on by default.

WARNING: Geometry Optimization
  ===> : Switching off AutoStart
         For restart on a previous wavefunction, please use MOREAD

WARNING: There are different parametrizations of Gershom Martin's DSD-DFs
         for use with and without D3(BJ)!
         You are using the D3(BJ) parametrized version,
         consistent with the 2013 article (S. Kozuch and J. M. L. Martin, JCC 2013, 34, 2327)

WARNING: The frozen-core approximation is turned on by default for 
         the MP2 part of double-hybrid DFT.

INFO   : the flag for use of LIBINT has been found!

================================================================================
                                       INPUT FILE
================================================================================
NAME = Cu02N0.in
|  1> #
|  2> # Cu02N0 ri-DSD-BLYP/2013-D3BJ/Def2-TZVPPD
|  3> #
|  4> ! rijk ri-dsd-blyp/2013 d3bj def2-tzvppd def2/jk def2-tzvppd/c grid4 nofinalgrid opt xyzfile numfreq
|  5> 
|  6> *xyz 0 1
|  7> Cu       0.000000    0.000000    1.107490 
|  8> Cu       0.000000    0.000000   -1.107490 
|  9> *
| 10> 
| 11> %maxcore 5000
| 12> 
| 13> %pal
| 14> nprocs = 24
| 15> end
| 16> 
| 17> 
| 18>                          ****END OF INPUT****
================================================================================

                       *****************************
                       * Geometry Optimization Run *
                       *****************************

Geometry optimization settings:
Update method            Update   .... BFGS
Choice of coordinates    CoordSys .... Z-matrix Internals
Initial Hessian          InHess   .... Almoef's Model

Convergence Tolerances:
Energy Change            TolE     ....  5.0000e-06 Eh
Max. Gradient            TolMAXG  ....  3.0000e-04 Eh/bohr
RMS Gradient             TolRMSG  ....  1.0000e-04 Eh/bohr
Max. Displacement        TolMAXD  ....  4.0000e-03 bohr
RMS Displacement         TolRMSD  ....  2.0000e-03 bohr
Strict Convergence                ....  False
------------------------------------------------------------------------------
                        ORCA OPTIMIZATION COORDINATE SETUP
------------------------------------------------------------------------------

The optimization will be done in new redundant internal coordinates
Making redundant internal coordinates   ...  (new redundants) done
Evaluating the initial hessian          ...  (Almloef) done
Evaluating the coordinates              ...  done
Calculating the B-matrix                .... done
Calculating the G-matrix                .... done
Diagonalizing the G-matrix              .... done
The first mode is                       ....    0
The number of degrees of freedom        ....    1

    -----------------------------------------------------------------
                    Redundant Internal Coordinates


    -----------------------------------------------------------------
         Definition                    Initial Value    Approx d2E/dq
    -----------------------------------------------------------------
      1. B(Cu  1,Cu  0)                  2.2150         3.088767   
    -----------------------------------------------------------------

Number of atoms                         .... 2
Number of degrees of freedom            .... 1

         *************************************************************
         *                GEOMETRY OPTIMIZATION CYCLE   1            *
         *************************************************************
---------------------------------
CARTESIAN COORDINATES (ANGSTROEM)
---------------------------------
  Cu     0.000000    0.000000    1.107490
  Cu     0.000000    0.000000   -1.107490

----------------------------
CARTESIAN COORDINATES (A.U.)
----------------------------
  NO LB      ZA    FRAG     MASS         X           Y           Z
   0 Cu   29.0000    0    63.550    0.000000    0.000000    2.092853
   1 Cu   29.0000    0    63.550    0.000000    0.000000   -2.092853

--------------------------------
INTERNAL COORDINATES (ANGSTROEM)
--------------------------------
 Cu     0   0   0     0.000000000000     0.00000000     0.00000000
 Cu     1   0   0     2.214980000000     0.00000000     0.00000000

---------------------------
INTERNAL COORDINATES (A.U.)
---------------------------
 Cu     0   0   0     0.000000000000     0.00000000     0.00000000
 Cu     1   0   0     4.185705592113     0.00000000     0.00000000

---------------------
BASIS SET INFORMATION
---------------------
There are 1 groups of distinct atoms

 Group   1 Type Cu  : 17s13p7d2f1g contracted to 6s6p4d2f1g pattern {842111/631111/4111/11/1}

Atom   0Cu   basis set group =>   1
Atom   1Cu   basis set group =>   1
---------------------------------
AUXILIARY/C BASIS SET INFORMATION
---------------------------------
There are 1 groups of distinct atoms

 Group   1 Type Cu  : 10s10p9d7f5g3h1i contracted to 10s10p9d7f5g3h1i pattern {1111111111/1111111111/111111111/1111111/11111/111/1}

Atom   0Cu   basis set group =>   1
Atom   1Cu   basis set group =>   1
----------------------------------
AUXILIARY/JK BASIS SET INFORMATION
----------------------------------
There are 1 groups of distinct atoms

 Group   1 Type Cu  : 19s14p12d10f7g3h1i contracted to 16s13p11d9f5g3h1i pattern {4111111111111111/2111111111111/21111111111/211111111/31111/111/1}

Atom   0Cu   basis set group =>   1
Atom   1Cu   basis set group =>   1


           ************************************************************
           *        Program running with 24 parallel MPI-processes    *
           *              working on a common directory               *
           ************************************************************
------------------------------------------------------------------------------
                           ORCA GTO INTEGRAL CALCULATION
                           -- RI-GTO INTEGRALS CHOSEN --
------------------------------------------------------------------------------

                         BASIS SET STATISTICS AND STARTUP INFO

Gaussian basis set:
 # of primitive gaussian shells          ...   80
 # of primitive gaussian functions       ...  228
 # of contracted shells                  ...   38
 # of contracted basis functions         ...  134
 Highest angular momentum                ...    4
 Maximum contraction depth               ...    8
Auxiliary gaussian basis set:
 # of primitive gaussian shells          ...  132
 # of primitive gaussian functions       ...  600
 # of contracted shells                  ...  116
 # of contracted aux-basis functions     ...  528
 Highest angular momentum                ...    6
 Maximum contraction depth               ...    4
Ratio of auxiliary to basis functions    ...  3.94
Integral package used                  ... LIBINT
 One Electron integrals                  ... done
 Ordering auxiliary basis shells         ... done
 Integral threshhold             Thresh  ...  2.500e-11
 Primitive cut-off               TCut    ...  2.500e-12
 Pre-screening matrix                    ... done
 Shell pair data                         ... 
 Ordering of the shell pairs             ... done (   0.000 sec) 705 of 741 pairs
 Determination of significant pairs      ... done (   0.000 sec)
 Creation of shell pair data             ... done (   0.000 sec)
 Storage of shell pair data              ... done (   0.002 sec)
 Shell pair data done in (   0.003 sec)
 Computing two index integrals           ... done
 Cholesky decomposition of the V-matrix  ... done


Timings:
 Total evaluation time                   ...   0.274 sec (  0.005 min)
 One electron matrix time                ...   0.013 sec (  0.000 min) =  4.8%
 Schwartz matrix evaluation time         ...   0.169 sec (  0.003 min) = 61.6%
 Two index repulsion integral time       ...   0.050 sec (  0.001 min) = 18.3%
 Cholesky decomposition of V             ...   0.004 sec (  0.000 min) =  1.6%
 Three index repulsion integral time     ...   0.000 sec (  0.000 min) =  0.0%



           ************************************************************
           *        Program running with 24 parallel MPI-processes    *
           *              working on a common directory               *
           ************************************************************
-------------------------------------------------------------------------------
                                 ORCA SCF
-------------------------------------------------------------------------------

------------
SCF SETTINGS
------------
Hamiltonian:
 Density Functional     Method          .... DFT(GTOs)
 Exchange Functional    Exchange        .... B88
   X-Alpha parameter    XAlpha          ....  0.666667
   Becke's b parameter  XBeta           ....  0.004200
 Correlation Functional Correlation     .... LYP
 LDA part of GGA corr.  LDAOpt          .... VWN-5
 Gradients option       PostSCFGGA      .... off
 Hybrid DFT is turned on
   Fraction HF Exchange ScalHFX         ....  0.710000
   Scaling of DF-GGA-X  ScalDFX         ....  0.290000
   Scaling of DF-GGA-C  ScalDFC         ....  0.540000
   Scaling of DF-LDA-C  ScalLDAC        ....  0.540000
   Perturbative correction              ....  1.000000
   Density functional embedding theory  .... OFF
 RI-approximation to the Coulomb term is turned on
   Number of auxiliary basis functions  .... 528
   RI-JK (J+K treated both via RI)      .... on


General Settings:
 Integral files         IntName         .... Cu02N0
 Hartree-Fock type      HFTyp           .... RHF
 Total Charge           Charge          ....    0
 Multiplicity           Mult            ....    1
 Number of Electrons    NEL             ....   58
 Basis Dimension        Dim             ....  134
 Nuclear Repulsion      ENuc            ....    200.9219190152 Eh

Convergence Acceleration:
 DIIS                   CNVDIIS         .... on
   Start iteration      DIISMaxIt       ....    12
   Startup error        DIISStart       ....  0.200000
   # of expansion vecs  DIISMaxEq       ....     5
   Bias factor          DIISBfac        ....   1.050
   Max. coefficient     DIISMaxC        ....  10.000
 Newton-Raphson         CNVNR           .... off
 SOSCF                  CNVSOSCF        .... off
 Level Shifting         CNVShift        .... on
   Level shift para.    LevelShift      ....    0.2500
   Turn off err/grad.   ShiftErr        ....    0.0010
 Zerner damping         CNVZerner       .... off
 Static damping         CNVDamp         .... on
   Fraction old density DampFac         ....    0.7000
   Max. Damping (<1)    DampMax         ....    0.9800
   Min. Damping (>=0)   DampMin         ....    0.0000
   Turn off err/grad.   DampErr         ....    0.1000
 Fernandez-Rico         CNVRico         .... off

SCF Procedure:
 Maximum # iterations   MaxIter         ....   125
 SCF integral mode      SCFMode         .... Direct
   Integral package                     .... LIBINT
 Reset frequency        DirectResetFreq ....    20
 Integral Threshold     Thresh          ....  2.500e-11 Eh
 Primitive CutOff       TCut            ....  2.500e-12 Eh

Convergence Tolerance:
 Convergence Check Mode ConvCheckMode   .... Total+1el-Energy
 Convergence forced     ConvForced      .... 0
 Energy Change          TolE            ....  1.000e-08 Eh
 1-El. energy change                    ....  1.000e-05 Eh
 DIIS Error             TolErr          ....  5.000e-07


Diagonalization of the overlap matrix:
Smallest eigenvalue                        ... 7.726e-04
Time for diagonalization                   ...    0.005 sec
Threshold for overlap eigenvalues          ... 1.000e-08
Number of eigenvalues below threshold      ... 0
Time for construction of square roots      ...    0.003 sec
Total time needed                          ...    0.007 sec

-------------------
DFT GRID GENERATION
-------------------

General Integration Accuracy     IntAcc      ...  4.670
Radial Grid Type                 RadialGrid  ... Gauss-Chebyshev
Angular Grid (max. acc.)         AngularGrid ... Lebedev-302
Angular grid pruning method      GridPruning ... 3 (G Style)
Weight generation scheme         WeightScheme... Becke
Basis function cutoff            BFCut       ...    1.0000e-11
Integration weight cutoff        WCut        ...    1.0000e-14
Grids for H and He will be reduced by one unit

# of grid points (after initial pruning)     ...  19112 (   0.0 sec)
# of grid points (after weights+screening)   ...  19084 (   0.0 sec)
nearest neighbour list constructed           ...    0.0 sec
Grid point re-assignment to atoms done       ...    0.0 sec
Grid point division into batches done        ...    0.1 sec
Reduced shell lists constructed in    0.1 sec

Total number of grid points                  ...    19084
Total number of batches                      ...      300
Average number of points per batch           ...       63
Average number of grid points per atom       ...     9542
Average number of shells per batch           ...     8.64 (22.74%)
Average number of basis functions per batch  ...    22.79 (17.00%)
Average number of large shells per batch     ...     5.86 (67.77%)
Average number of large basis fcns per batch ...    17.00 (74.61%)
Average number of aux-shells per batch       ...     8.64 ( 7.45%)
Average number of aux functions per batch    ...    22.79 ( 4.32%)
Maximum spatial batch extension              ...  22.17, 22.17, 16.36 au
Average spatial batch extension              ...   0.75,  0.76,  0.60 au

Time for grid setup =    0.207 sec

------------------------------
INITIAL GUESS: MODEL POTENTIAL
------------------------------
Loading Hartree-Fock densities                     ... done
Calculating cut-offs                               ... done
Setting up the integral package                    ... done
Initializing the effective Hamiltonian             ... done
Starting the Coulomb interaction                   ... done (   0.0 sec)
Reading the grid                                   ... done
Mapping shells                                     ... done
Starting the XC term evaluation                    ... done (   0.0 sec)
  promolecular density results
     # of electrons  =     58.000033959
     EX              =   -131.578848372
     EC              =     -0.398831117
     EX+EC           =   -131.977679489
Transforming the Hamiltonian                       ... done (   0.0 sec)
Diagonalizing the Hamiltonian                      ... done (   0.0 sec)
Back transforming the eigenvectors                 ... done (   0.0 sec)
Now organizing SCF variables                       ... done
                      ------------------
                      INITIAL GUESS DONE (   0.3 sec)
                      ------------------
--------------
SCF ITERATIONS
--------------
ITER       Energy         Delta-E        Max-DP      RMS-DP      [F,P]     Damp
  0  -3279.4613190491   0.000000000000 0.05161124  0.00111808  0.1179492 0.7000
  1  -3279.2842046539   0.177114395223 0.06561347  0.00121023  0.0707239 0.7000
                               ***Turning on DIIS***
  2  -3279.3718824057  -0.087677751803 0.20225157  0.00343490  0.0478642 0.0000
  3  -3279.5144472586  -0.142564852903 0.01559125  0.00053327  0.0398570 0.0000
  4  -3279.5188698291  -0.004422570570 0.01230044  0.00030597  0.0168091 0.0000
  5  -3279.5196700137  -0.000800184537 0.00856320  0.00016360  0.0091317 0.0000
  6  -3279.5199480034  -0.000277989784 0.00660803  0.00011388  0.0024576 0.0000
  7  -3279.5199980858  -0.000050082373 0.00398150  0.00007437  0.0011434 0.0000
  8  -3279.5200131496  -0.000015063750 0.00311026  0.00006333  0.0005600 0.0000
  9  -3279.5200193852  -0.000006235672 0.00078632  0.00001658  0.0002299 0.0000
 10  -3279.5200200701  -0.000000684846 0.00031787  0.00000580  0.0000842 0.0000
 11  -3279.5200201511  -0.000000081043 0.00005588  0.00000108  0.0000209 0.0000
 12  -3279.5200201540  -0.000000002909 0.00001285  0.00000031  0.0000229 0.0000
 13  -3279.5200201551  -0.000000001030 0.00000378  0.00000010  0.0000037 0.0000
                            ***DIIS convergence achieved***

               *****************************************************
               *                     SUCCESS                       *
               *           SCF CONVERGED AFTER  14 CYCLES          *
               *****************************************************


----------------
TOTAL SCF ENERGY
----------------

Total Energy       :        -3279.52002016 Eh          -89240.27664 eV

Components:
Nuclear Repulsion  :          200.92191902 Eh            5467.36337 eV
Electronic Energy  :        -3480.44193917 Eh          -94707.64001 eV
One Electron Energy:        -4980.62661911 Eh         -135529.74050 eV
Two Electron Energy:         1500.18467994 Eh           40822.10050 eV

Virial components:
Potential Energy   :        -6556.71705526 Eh         -178417.34164 eV
Kinetic Energy     :         3277.19703510 Eh           89177.06500 eV
Virial Ratio       :            2.00070883


DFT components:
N(Alpha)           :       29.000000854940 electrons
N(Beta)            :       29.000000854940 electrons
N(Total)           :       58.000001709881 electrons
E(X)               :      -38.288003907329 Eh       
E(C)               :       -1.495209650329 Eh       
E(XC)              :      -39.783213557657 Eh       
DFET-embed. en.    :        0.000000000000 Eh       

---------------
SCF CONVERGENCE
---------------

  Last Energy change         ...   -4.0018e-11  Tolerance :   1.0000e-08
  Last MAX-Density change    ...    1.0068e-06  Tolerance :   1.0000e-07
  Last RMS-Density change    ...    3.6508e-08  Tolerance :   5.0000e-09
  Last DIIS Error            ...    5.8304e-07  Tolerance :   5.0000e-07

             **** THE GBW FILE WAS UPDATED (Cu02N0.gbw) ****
             **** DENSITY FILE WAS UPDATED (Cu02N0.scfp) ****
             **** ENERGY FILE WAS UPDATED (Cu02N0.en.tmp) ****
             **** THE GBW FILE WAS UPDATED (Cu02N0.gbw) ****
             **** DENSITY FILE WAS UPDATED (Cu02N0.scfp) ****
----------------
ORBITAL ENERGIES
----------------

  NO   OCC          E(Eh)            E(eV) 
   0   2.0000    -326.704154     -8890.0720 
   1   2.0000    -326.704147     -8890.0718 
   2   2.0000     -40.078005     -1090.5779 
   3   2.0000     -40.077982     -1090.5773 
   4   2.0000     -35.022877      -953.0209 
   5   2.0000     -35.022866      -953.0206 
   6   2.0000     -35.022784      -953.0184 
   7   2.0000     -35.022784      -953.0184 
   8   2.0000     -35.022777      -953.0182 
   9   2.0000     -35.022777      -953.0182 
  10   2.0000      -4.737047      -128.9016 
  11   2.0000      -4.736255      -128.8800 
  12   2.0000      -3.119184       -84.8773 
  13   2.0000      -3.112932       -84.7072 
  14   2.0000      -3.112932       -84.7072 
  15   2.0000      -3.112509       -84.6957 
  16   2.0000      -3.112382       -84.6922 
  17   2.0000      -3.112382       -84.6922 
  18   2.0000      -0.428225       -11.6526 
  19   2.0000      -0.416345       -11.3293 
  20   2.0000      -0.416345       -11.3293 
  21   2.0000      -0.399171       -10.8620 
  22   2.0000      -0.399168       -10.8619 
  23   2.0000      -0.391432       -10.6514 
  24   2.0000      -0.391429       -10.6513 
  25   2.0000      -0.378142       -10.2898 
  26   2.0000      -0.378142       -10.2898 
  27   2.0000      -0.370497       -10.0817 
  28   2.0000      -0.231165        -6.2903 
  29   0.0000      -0.020250        -0.5510 
  30   0.0000       0.022183         0.6036 
  31   0.0000       0.022183         0.6036 
  32   0.0000       0.045370         1.2346 
  33   0.0000       0.075100         2.0436 
  34   0.0000       0.075100         2.0436 
  35   0.0000       0.079398         2.1605 
  36   0.0000       0.154226         4.1967 
  37   0.0000       0.176441         4.8012 
  38   0.0000       0.176441         4.8012 
  39   0.0000       0.188776         5.1369 
  40   0.0000       0.223084         6.0704 
  41   0.0000       0.223085         6.0704 
  42   0.0000       0.233071         6.3422 
  43   0.0000       0.236595         6.4381 
  44   0.0000       0.236595         6.4381 
  45   0.0000       0.279975         7.6185 
  46   0.0000       0.284880         7.7520 
  47   0.0000       0.284880         7.7520 
  48   0.0000       0.295052         8.0288 
  49   0.0000       0.295052         8.0288 
  50   0.0000       0.382911        10.4195 
  51   0.0000       0.397217        10.8088 
  52   0.0000       0.397217        10.8088 
  53   0.0000       0.609803        16.5936 
  54   0.0000       0.754770        20.5383 
  55   0.0000       0.772846        21.0302 
  56   0.0000       0.772846        21.0302 
  57   0.0000       0.856042        23.2941 
  58   0.0000       0.856042        23.2941 
  59   0.0000       0.915116        24.9016 
  60   0.0000       0.977354        26.5952 
  61   0.0000       0.977354        26.5952 
  62   0.0000       1.003156        27.2973 
  63   0.0000       1.003159        27.2973 
  64   0.0000       1.088775        29.6271 
  65   0.0000       1.088777        29.6271 
  66   0.0000       1.128221        30.7005 
  67   0.0000       1.245446        33.8903 
  68   0.0000       1.245446        33.8903 
  69   0.0000       1.474204        40.1151 
  70   0.0000       3.280041        89.2545 
  71   0.0000       3.291239        89.5592 
  72   0.0000       3.291239        89.5592 
  73   0.0000       3.345202        91.0276 
  74   0.0000       3.376978        91.8923 
  75   0.0000       3.376978        91.8923 
  76   0.0000       3.446822        93.7928 
  77   0.0000       3.673570        99.9629 
  78   0.0000       3.673570        99.9629 
  79   0.0000       3.685975       100.3005 
  80   0.0000       3.693036       100.4926 
  81   0.0000       3.693040       100.4927 
  82   0.0000       3.703733       100.7837 
  83   0.0000       3.703733       100.7837 
  84   0.0000       3.704375       100.8012 
  85   0.0000       3.704375       100.8012 
  86   0.0000       3.707228       100.8788 
  87   0.0000       3.707234       100.8790 
  88   0.0000       3.735789       101.6560 
  89   0.0000       3.742478       101.8380 
  90   0.0000       3.742478       101.8380 
  91   0.0000       3.957135       107.6791 
  92   0.0000       4.017621       109.3250 
  93   0.0000       4.017644       109.3256 
  94   0.0000       4.061899       110.5299 
  95   0.0000       4.061920       110.5305 
  96   0.0000       4.085037       111.1595 
  97   0.0000       4.085037       111.1595 
  98   0.0000       4.148150       112.8769 
  99   0.0000       4.148150       112.8769 
 100   0.0000       4.360341       118.6509 
 101   0.0000       4.399497       119.7164 
 102   0.0000      13.498001       367.2993 
 103   0.0000      13.498230       367.3055 
 104   0.0000      13.498230       367.3055 
 105   0.0000      13.498770       367.3202 
 106   0.0000      13.498799       367.3210 
 107   0.0000      13.498823       367.3216 
 108   0.0000      13.498823       367.3216 
 109   0.0000      13.499013       367.3268 
 110   0.0000      13.499042       367.3276 
 111   0.0000      13.500074       367.3557 
 112   0.0000      13.500226       367.3598 
 113   0.0000      13.500226       367.3598 
 114   0.0000      13.500228       367.3599 
 115   0.0000      13.500228       367.3599 
 116   0.0000      13.501668       367.3991 
 117   0.0000      13.501669       367.3991 
 118   0.0000      13.501760       367.4016 
 119   0.0000      13.501761       367.4016 
 120   0.0000      13.711285       373.1030 
 121   0.0000      13.717429       373.2702 
 122   0.0000      13.717429       373.2702 
 123   0.0000      13.720546       373.3550 
 124   0.0000      13.720644       373.3577 
 125   0.0000      13.722697       373.4136 
 126   0.0000      13.722697       373.4136 
 127   0.0000      13.722875       373.4184 
 128   0.0000      13.722875       373.4184 
 129   0.0000      13.724269       373.4563 
 130   0.0000      13.724366       373.4590 
 131   0.0000      13.749725       374.1490 
 132   0.0000      13.749725       374.1490 
 133   0.0000      13.872879       377.5002 

                    ********************************
                    * MULLIKEN POPULATION ANALYSIS *
                    ********************************

-----------------------
MULLIKEN ATOMIC CHARGES
-----------------------
   0 Cu:    0.000003
   1 Cu:   -0.000003
Sum of atomic charges:    0.0000000

--------------------------------
MULLIKEN REDUCED ORBITAL CHARGES
--------------------------------
  0 Cus       :     6.969280  s :     6.969280
      pz      :     4.043361  p :    12.051599
      px      :     4.004119
      py      :     4.004119
      dz2     :     1.987263  d :     9.978908
      dxz     :     1.995835
      dyz     :     1.995835
      dx2y2   :     1.999987
      dxy     :     1.999987
      f0      :     0.000092  f :     0.000209
      f+1     :     0.000045
      f-1     :     0.000045
      f+2     :     0.000013
      f-2     :     0.000013
      f+3     :     0.000000
      f-3     :     0.000000
      g0      :     0.000000  g :     0.000001
      g+1     :     0.000000
      g-1     :     0.000000
      g+2     :     0.000000
      g-2     :     0.000000
      g+3     :     0.000000
      g-3     :     0.000000
      g+4     :     0.000000
      g-4     :     0.000000
  1 Cus       :     6.969286  s :     6.969286
      pz      :     4.043362  p :    12.051600
      px      :     4.004119
      py      :     4.004119
      dz2     :     1.987263  d :     9.978908
      dxz     :     1.995835
      dyz     :     1.995835
      dx2y2   :     1.999987
      dxy     :     1.999987
      f0      :     0.000092  f :     0.000209
      f+1     :     0.000045
      f-1     :     0.000045
      f+2     :     0.000013
      f-2     :     0.000013
      f+3     :     0.000000
      f-3     :     0.000000
      g0      :     0.000000  g :     0.000001
      g+1     :     0.000000
      g-1     :     0.000000
      g+2     :     0.000000
      g-2     :     0.000000
      g+3     :     0.000000
      g-3     :     0.000000
      g+4     :     0.000000
      g-4     :     0.000000


                     *******************************
                     * LOEWDIN POPULATION ANALYSIS *
                     *******************************

----------------------
LOEWDIN ATOMIC CHARGES
----------------------
   0 Cu:    0.000000
   1 Cu:   -0.000000

-------------------------------
LOEWDIN REDUCED ORBITAL CHARGES
-------------------------------
  0 Cus       :     6.852434  s :     6.852434
      pz      :     4.125485  p :    12.136831
      px      :     4.005673
      py      :     4.005673
      dz2     :     2.021872  d :    10.010277
      dxz     :     1.994218
      dyz     :     1.994218
      dx2y2   :     1.999984
      dxy     :     1.999984
      f0      :     0.000208  f :     0.000457
      f+1     :     0.000109
      f-1     :     0.000109
      f+2     :     0.000016
      f-2     :     0.000016
      f+3     :     0.000000
      f-3     :     0.000000
      g0      :     0.000000  g :     0.000001
      g+1     :     0.000000
      g-1     :     0.000000
      g+2     :     0.000000
      g-2     :     0.000000
      g+3     :     0.000000
      g-3     :     0.000000
      g+4     :     0.000000
      g-4     :     0.000000
  1 Cus       :     6.852434  s :     6.852434
      pz      :     4.125485  p :    12.136831
      px      :     4.005673
      py      :     4.005673
      dz2     :     2.021872  d :    10.010277
      dxz     :     1.994218
      dyz     :     1.994218
      dx2y2   :     1.999984
      dxy     :     1.999984
      f0      :     0.000208  f :     0.000457
      f+1     :     0.000109
      f-1     :     0.000109
      f+2     :     0.000016
      f-2     :     0.000016
      f+3     :     0.000000
      f-3     :     0.000000
      g0      :     0.000000  g :     0.000001
      g+1     :     0.000000
      g-1     :     0.000000
      g+2     :     0.000000
      g-2     :     0.000000
      g+3     :     0.000000
      g-3     :     0.000000
      g+4     :     0.000000
      g-4     :     0.000000


                      *****************************
                      * MAYER POPULATION ANALYSIS *
                      *****************************

  NA   - Mulliken gross atomic population
  ZA   - Total nuclear charge
  QA   - Mulliken gross atomic charge
  VA   - Mayer's total valence
  BVA  - Mayer's bonded valence
  FA   - Mayer's free valence

  ATOM       NA         ZA         QA         VA         BVA        FA
  0 Cu    29.0000    29.0000     0.0000     1.0414     1.0414    -0.0000
  1 Cu    29.0000    29.0000    -0.0000     1.0414     1.0414     0.0000

  Mayer bond orders larger than 0.100000
B(  0-Cu,  1-Cu) :   1.0414 

-------
TIMINGS
-------

Total SCF time: 0 days 0 hours 0 min 2 sec 

Total time                  ....       2.951 sec
Sum of individual times     ....       2.845 sec  ( 96.4%)

Fock matrix formation       ....       2.492 sec  ( 84.5%)
  XC integration            ....       0.183 sec  (  7.3% of F)
    Basis function eval.    ....       0.030 sec  ( 16.3% of XC)
    Density eval.           ....       0.017 sec  (  9.1% of XC)
    XC-Functional eval.     ....       0.009 sec  (  5.2% of XC)
    XC-Potential eval.      ....       0.029 sec  ( 16.1% of XC)
Diagonalization             ....       0.034 sec  (  1.2%)
Density matrix formation    ....       0.005 sec  (  0.2%)
Population analysis         ....       0.003 sec  (  0.1%)
Initial guess               ....       0.087 sec  (  2.9%)
Orbital Transformation      ....       0.000 sec  (  0.0%)
Orbital Orthonormalization  ....       0.000 sec  (  0.0%)
DIIS solution               ....       0.017 sec  (  0.6%)
Grid generation             ....       0.207 sec  (  7.0%)


           ************************************************************
           *        Program running with 24 parallel MPI-processes    *
           *              working on a common directory               *
           ************************************************************

------------------------------------------------------------------------------
                                ORCA  MP2 
------------------------------------------------------------------------------

Freezing NCore=20 chemical core electrons

----------------------
RI-MP2 ENERGY+GRADIENT
----------------------
Dimension of the basis                    ...  134
Memory devoted to MP2                     ... 5000 MB   
Data format for buffers                   ... DOUBLE
Compression type for matrix containers    ... UNCOMPRESSED
Scaling for aa/bb pairs                   ...   4.000e-01
Scaling for ab pairs                      ...   4.700e-01
Overall scaling of the MP2 energy         ...   1.000e+00
Calculating two index integrals           ... done (    0.006 sec)
Cholesky decomposition of the V-matrix    ... done
Cholesky decomposition of V**-1           ... done (    0.006 sec)

-----------------
RI-TRANSFORMATION (AUX index driven)
-----------------

Dimension of the orbital-basis         ... 134
Dimension of the aux-basis             ... 450
Transformation of internal MOs         ...    0-  28
Transformation of internal/external MOs...    0-  28 to   29- 133
Number Format for Storage              ... Double (8 Byte)
Integral mode                          ... Direct

First Phase: integral generation and transformation of MO indices
  Aux angular momentum 0               ... done (    0.001 sec)
  Aux angular momentum 1               ... done (    0.001 sec)
  Aux angular momentum 2               ... done (    0.002 sec)
  Aux angular momentum 3               ... done (    0.002 sec)
  Aux angular momentum 4               ... done (    0.003 sec)
  Aux angular momentum 5               ... done (    0.005 sec)
  Aux angular momentum 6               ... done (    0.007 sec)
Closing buffer VIJ ( 0.00 GB; CompressionRatio= 1.00)
Closing buffer VIA ( 0.01 GB; CompressionRatio= 1.00)
  Phase 1 completed in     0.093 sec
Second Phase: sorting and transformation of aux index

IJ-Transformation
Memory available                       ... 4994 MB 
Max. # MO pairs treated in a batch     ... 2    
# of internal orbitals                 ... 29
# batches for internal orbitals        ... 1
Closing buffer IJV ( 0.00 GB; CompressionRatio= 1.00)
(ij|v) transformation done in     0.003 sec

IA-Transformation
Memory available                       ... 4994 MB 
Max. # MO pairs treated in a batch     ... 2    
# of internal orbitals                 ... 29
# batches for internal orbitals        ... 1
Closing buffer IAV ( 0.00 GB; CompressionRatio= 1.00)
(ia|v) transformation done in     0.007 sec

  Phase 2 completed in     0.041 sec
RI-Integral transformation completed in     0.136 sec
Opening buffers                              ... done
Frozen core precalculation                   ... done

Starting loop over batches of integrals:

Operator 0  - window                       ... ( 10- 28)x( 29-133)
Operator 0  - Memory available             ...  5000 MB
Operator 0  - Memory needed per MO         ...   0.7 MB
Operator 0  - Number of orbitals per batch ... 1
Operator 0  - Number of batches            ... 1

OPERATOR  0   PASS   0:  MOs    10 ...   10 +   11 ...   11 +   12 ...   12 +   13 ...   13
                            +   14 ...   14 +   15 ...   15 +   16 ...   16 +   17 ...   17
                            +   18 ...   18 +   19 ...   19 +   20 ...   20 +   21 ...   21
                            +   22 ...   22 +   23 ...   23 +   24 ...   24 +   25 ...   25
                            +   26 ...   26 +   27 ...   27 +   28 ...   28
  Reading integrals       ... ok
Closing buffer GIPV ( 0.00 GB; CompressionRatio= 1.00)
Time spent in pair loops =     0.191 sec
Deleting buffer (Ka|jb)[aa] ...done

-----------------------------------------------
 RI-MP2 CORRELATION ENERGY:     -0.841745894 Eh
-----------------------------------------------


---------------------
MP2 DENSITY FORMATION
---------------------

Completing the external part of the density      ... done
Storing the unrelaxed density                    ... done

Calculating the xc-kernel                        ... done
Calculating G(D)                                 ... done
Completing the Lagrangian                        ... done
Solving the Z-vector equations                   ... 

------------------------------------------------------------------------------
                           ORCA CP-SCF CALCULATION
------------------------------------------------------------------------------

Input orbitals are from        ... Cu02N0.gbw
Input Perturbation             ... Cu02N0.pin.tmp
Wavefunction output            ... Cu02N0.pout.tmp
Perturbation mode              ... Real perturbation (singlet)
Solver                         ... POPLE
Max. number of iterations      ... 128
Convergence tolerance          ... 1.000e-08
Integral handling              ... Direct
Number of perturbations        ... 1
Number of operators            ... 1
Orbital ranges used for CP-SCF:
 Operator 0:  Orbitals   0... 28  to  29...133
DFT calculation                         ... on
Exchange functional (SCF)               ... B88
Exchange functional (CP-SCF)            ... B88
   X-Alpha parameter    XAlpha (SCF)    ...  0.666667
   X-Alpha parameter    XAlpha (CP-SCF) ...  0.666667
   Becke's b parameter  XBeta (SCF)     ...  0.004200
   Becke's b parameter  XBeta (CP-SCF)  ...  0.004200
Correlation functional (SCF)            ... LYP
Correlation functional (CP-SCF)         ... LYP
 LDA part of GGA corr.  LDAOpt (SCF)    ... VWN-5
 LDA part of GGA corr.  LDAOpt (CP-SCF) ... VWN-5
Hybrid DFT                              ... on
   Exchange mixing (SCF)                ...  0.710
   Exchange mixing (CP-SCF)             ...  0.710
   GGA exch. scaling(SCF)               ...  0.290
   GGA exch. scaling (CP-SCF)           ...  0.290
   GGA corr. scaling (SCF)              ...  0.540
   GGA corr. scaling (CP-SCF)           ...  0.540
Variables per vector in CP-SCF ... 3045
Number of vectors sought       ... 1
Recalculating density on grid  ... done
Calculating the xc-kernel      ... done
     CP-SCF ITERATION   0: 
     CP-SCF ITERATION   1:      0.004000856248
     CP-SCF ITERATION   2:      0.000283438916
     CP-SCF ITERATION   3:      0.000026682373
     CP-SCF ITERATION   4:      0.000002281381
     CP-SCF ITERATION   5:      0.000000109071
     CP-SCF ITERATION   6:      0.000000005450
done
Finalizing the relaxed density                   ... done
Transforming P to the AO basis                   ... done
Storing the relaxed density                      ... done

------------------------------------
ENERGY WEIGHTED DENSITY FINALIZATION
------------------------------------

Gathering the parts of the W-matrix              ... done
Forming the Z-density                            ... done
Transforming Z to the AO basis                   ... done
Calculating G(Z)                                 ... done
Finalizing the W-matrix                          ... done
Transforming W to the AO basis and storing       ... done
Entering the RIJONX and RIJCOSX sections
Starting the three-index derivative integrals:
Operator 0  - Memory available             ...  5000 MB
Operator 0  - Memory needed per MO         ...   0.9 MB
Operator 0  - Number of orbitals per batch ... 1
Operator 0  - Number of batches            ... 1

OPERATOR  0   PASS   0:  MOs    10 ...   10 +   11 ...   11 +   12 ...   12 +   13 ...   13
                            +   14 ...   14 +   15 ...   15 +   16 ...   16 +   17 ...   17
                            +   18 ...   18 +   19 ...   19 +   20 ...   20 +   21 ...   21
                            +   22 ...   22 +   23 ...   23 +   24 ...   24 +   25 ...   25
                            +   26 ...   26 +   27 ...   27 +   28 ...   28

----------------------------------
MP2 DERIVATIVE INTEGRAL GENERATION
----------------------------------


Input Correlated Electron Density   ... Cu02N0.pmp2re
Input Energy Weighted Density       ... Cu02N0.wmp2.tmp
Input SCF Electron Density          ... Cu02N0.scfp

One-Electron Terms    ...
                        ... One-Electron Terms done
Prescreening matrices              ... done
Exchange-correlation gradient    ... done
Dispersion correction            ... done

                *********************************************
                * UNRELAXED MP2 DENSITY POPULATION ANALYSIS *
                *********************************************

------------------------------------------------------------------------------
                           ORCA POPULATION ANALYSIS
------------------------------------------------------------------------------
Input electron density              ... Cu02N0.pmp2ur
BaseName (.gbw .S,...)              ... Cu02N0

                    ********************************
                    * MULLIKEN POPULATION ANALYSIS *
                    ********************************

-----------------------
MULLIKEN ATOMIC CHARGES
-----------------------
   0 Cu:    0.000003
   1 Cu:   -0.000003
Sum of atomic charges:    0.0000000

--------------------------------
MULLIKEN REDUCED ORBITAL CHARGES
--------------------------------
  0 Cus       :     6.961749  s :     6.961749
      pz      :     4.043093  p :    12.065448
      px      :     4.011178
      py      :     4.011178
      dz2     :     1.980778  d :     9.954663
      dxz     :     1.991280
      dyz     :     1.991280
      dx2y2   :     1.995662
      dxy     :     1.995662
      f0      :     0.002473  f :     0.016778
      f+1     :     0.002424
      f-1     :     0.002424
      f+2     :     0.002375
      f-2     :     0.002375
      f+3     :     0.002353
      f-3     :     0.002353
      g0      :     0.000151  g :     0.001358
      g+1     :     0.000151
      g-1     :     0.000151
      g+2     :     0.000151
      g-2     :     0.000151
      g+3     :     0.000151
      g-3     :     0.000151
      g+4     :     0.000151
      g-4     :     0.000151
  1 Cus       :     6.961754  s :     6.961754
      pz      :     4.043094  p :    12.065449
      px      :     4.011178
      py      :     4.011178
      dz2     :     1.980778  d :     9.954663
      dxz     :     1.991280
      dyz     :     1.991280
      dx2y2   :     1.995662
      dxy     :     1.995662
      f0      :     0.002473  f :     0.016778
      f+1     :     0.002424
      f-1     :     0.002424
      f+2     :     0.002375
      f-2     :     0.002375
      f+3     :     0.002353
      f-3     :     0.002353
      g0      :     0.000151  g :     0.001358
      g+1     :     0.000151
      g-1     :     0.000151
      g+2     :     0.000151
      g-2     :     0.000151
      g+3     :     0.000151
      g-3     :     0.000151
      g+4     :     0.000151
      g-4     :     0.000151


                     *******************************
                     * LOEWDIN POPULATION ANALYSIS *
                     *******************************

----------------------
LOEWDIN ATOMIC CHARGES
----------------------
   0 Cu:    0.000000
   1 Cu:   -0.000000

-------------------------------
LOEWDIN REDUCED ORBITAL CHARGES
-------------------------------
  0 Cus       :     6.838473  s :     6.838473
      pz      :     4.129948  p :    12.155247
      px      :     4.012649
      py      :     4.012649
      dz2     :     2.017038  d :     9.987829
      dxz     :     1.989736
      dyz     :     1.989736
      dx2y2   :     1.995659
      dxy     :     1.995659
      f0      :     0.002636  f :     0.017091
      f+1     :     0.002496
      f-1     :     0.002496
      f+2     :     0.002378
      f-2     :     0.002378
      f+3     :     0.002353
      f-3     :     0.002353
      g0      :     0.000152  g :     0.001359
      g+1     :     0.000151
      g-1     :     0.000151
      g+2     :     0.000151
      g-2     :     0.000151
      g+3     :     0.000151
      g-3     :     0.000151
      g+4     :     0.000151
      g-4     :     0.000151
  1 Cus       :     6.838473  s :     6.838473
      pz      :     4.129948  p :    12.155247
      px      :     4.012649
      py      :     4.012649
      dz2     :     2.017038  d :     9.987829
      dxz     :     1.989736
      dyz     :     1.989736
      dx2y2   :     1.995659
      dxy     :     1.995659
      f0      :     0.002636  f :     0.017091
      f+1     :     0.002496
      f-1     :     0.002496
      f+2     :     0.002378
      f-2     :     0.002378
      f+3     :     0.002353
      f-3     :     0.002353
      g0      :     0.000152  g :     0.001359
      g+1     :     0.000151
      g-1     :     0.000151
      g+2     :     0.000151
      g-2     :     0.000151
      g+3     :     0.000151
      g-3     :     0.000151
      g+4     :     0.000151
      g-4     :     0.000151


                      *****************************
                      * MAYER POPULATION ANALYSIS *
                      *****************************

  NA   - Mulliken gross atomic population
  ZA   - Total nuclear charge
  QA   - Mulliken gross atomic charge
  VA   - Mayer's total valence
  BVA  - Mayer's bonded valence
  FA   - Mayer's free valence

  ATOM       NA         ZA         QA         VA         BVA        FA
  0 Cu    29.0000    29.0000     0.0000     1.6034     0.9711     0.6322
  1 Cu    29.0000    29.0000    -0.0000     1.6034     0.9711     0.6322

  Mayer bond orders larger than 0.100000
B(  0-Cu,  1-Cu) :   0.9711 


                *******************************************
                * RELAXED MP2 DENSITY POPULATION ANALYSIS *
                *******************************************

------------------------------------------------------------------------------
                           ORCA POPULATION ANALYSIS
------------------------------------------------------------------------------
Input electron density              ... Cu02N0.pmp2re
BaseName (.gbw .S,...)              ... Cu02N0

                    ********************************
                    * MULLIKEN POPULATION ANALYSIS *
                    ********************************

-----------------------
MULLIKEN ATOMIC CHARGES
-----------------------
   0 Cu:    0.000003
   1 Cu:   -0.000003
Sum of atomic charges:   -0.0000000

--------------------------------
MULLIKEN REDUCED ORBITAL CHARGES
--------------------------------
  0 Cus       :     6.981967  s :     6.981967
      pz      :     4.033252  p :    12.061015
      px      :     4.013882
      py      :     4.013882
      dz2     :     1.970393  d :     9.938846
      dxz     :     1.988567
      dyz     :     1.988567
      dx2y2   :     1.995660
      dxy     :     1.995660
      f0      :     0.002481  f :     0.016809
      f+1     :     0.002433
      f-1     :     0.002433
      f+2     :     0.002378
      f-2     :     0.002378
      f+3     :     0.002353
      f-3     :     0.002353
      g0      :     0.000151  g :     0.001358
      g+1     :     0.000151
      g-1     :     0.000151
      g+2     :     0.000151
      g-2     :     0.000151
      g+3     :     0.000151
      g-3     :     0.000151
      g+4     :     0.000151
      g-4     :     0.000151
  1 Cus       :     6.981972  s :     6.981972
      pz      :     4.033254  p :    12.061017
      px      :     4.013882
      py      :     4.013882
      dz2     :     1.970393  d :     9.938847
      dxz     :     1.988567
      dyz     :     1.988567
      dx2y2   :     1.995660
      dxy     :     1.995660
      f0      :     0.002481  f :     0.016809
      f+1     :     0.002433
      f-1     :     0.002433
      f+2     :     0.002378
      f-2     :     0.002378
      f+3     :     0.002353
      f-3     :     0.002353
      g0      :     0.000151  g :     0.001358
      g+1     :     0.000151
      g-1     :     0.000151
      g+2     :     0.000151
      g-2     :     0.000151
      g+3     :     0.000151
      g-3     :     0.000151
      g+4     :     0.000151
      g-4     :     0.000151


                     *******************************
                     * LOEWDIN POPULATION ANALYSIS *
                     *******************************

----------------------
LOEWDIN ATOMIC CHARGES
----------------------
   0 Cu:    0.000000
   1 Cu:   -0.000000

-------------------------------
LOEWDIN REDUCED ORBITAL CHARGES
-------------------------------
  0 Cus       :     6.834440  s :     6.834440
      pz      :     4.132788  p :    12.165314
      px      :     4.016263
      py      :     4.016263
      dz2     :     2.018228  d :     9.981760
      dxz     :     1.986110
      dyz     :     1.986110
      dx2y2   :     1.995656
      dxy     :     1.995656
      f0      :     0.002640  f :     0.017127
      f+1     :     0.002509
      f-1     :     0.002509
      f+2     :     0.002382
      f-2     :     0.002382
      f+3     :     0.002353
      f-3     :     0.002353
      g0      :     0.000152  g :     0.001359
      g+1     :     0.000152
      g-1     :     0.000152
      g+2     :     0.000151
      g-2     :     0.000151
      g+3     :     0.000151
      g-3     :     0.000151
      g+4     :     0.000151
      g-4     :     0.000151
  1 Cus       :     6.834440  s :     6.834440
      pz      :     4.132788  p :    12.165314
      px      :     4.016263
      py      :     4.016263
      dz2     :     2.018228  d :     9.981760
      dxz     :     1.986110
      dyz     :     1.986110
      dx2y2   :     1.995656
      dxy     :     1.995656
      f0      :     0.002640  f :     0.017127
      f+1     :     0.002509
      f-1     :     0.002509
      f+2     :     0.002382
      f-2     :     0.002382
      f+3     :     0.002353
      f-3     :     0.002353
      g0      :     0.000152  g :     0.001359
      g+1     :     0.000152
      g-1     :     0.000152
      g+2     :     0.000151
      g-2     :     0.000151
      g+3     :     0.000151
      g-3     :     0.000151
      g+4     :     0.000151
      g-4     :     0.000151


                      *****************************
                      * MAYER POPULATION ANALYSIS *
                      *****************************

  NA   - Mulliken gross atomic population
  ZA   - Total nuclear charge
  QA   - Mulliken gross atomic charge
  VA   - Mayer's total valence
  BVA  - Mayer's bonded valence
  FA   - Mayer's free valence

  ATOM       NA         ZA         QA         VA         BVA        FA
  0 Cu    29.0000    29.0000     0.0000     1.5886     0.9972     0.5914
  1 Cu    29.0000    29.0000    -0.0000     1.5886     0.9972     0.5914

  Mayer bond orders larger than 0.100000
B(  0-Cu,  1-Cu) :   0.9972 


-------
TIMINGS
-------

Total time                :    7.870 sec
Integral trafo            :    0.150 sec (  1.9%)
FC preparation            :    0.011 sec (  0.1%)
I/O of integrals          :    0.001 sec (  0.0%)
K(i,j) Operators          :    0.004 sec (  0.0%)
T(i,j) pair energies      :    0.001 sec (  0.0%)
V-calculation             :    0.006 sec (  0.1%)
V**(-1/2)                 :    0.006 sec (  0.1%)
Gamma(ia|P)               :    0.003 sec (  0.0%)
Gamma-Trafo               :    0.002 sec (  0.0%)
D(virtual)                :    0.000 sec (  0.0%)
D(internal)               :    0.007 sec (  0.1%)
W(virtual)                :    0.000 sec (  0.0%)
W(internal)               :    0.005 sec (  0.1%)
L(virtual)                :    0.114 sec (  1.4%)
L(internal)               :    0.000 sec (  0.0%)
G(D)                      :    0.659 sec (  8.4%)
G(Z)                      :    0.561 sec (  7.1%)
Z-Vector Solution         :    3.616 sec ( 45.9%)
Z-Vector Solution         :    3.616 sec ( 45.9%)
3-Index Derivative 
+ Separable RIJ part      :    0.621 sec (  7.9%)
2-Index Derivative 
+ Separable RIJ part      :    0.004 sec (  0.1%)
Separable Gradient (X)    :    1.708 sec ( 21.7%)


---------------------------------------
MP2 TOTAL ENERGY:    -3280.361766049 Eh
---------------------------------------

-----------------------------------
NORM OF THE MP2 GRADIENT:  0.017553
-----------------------------------


-------------------------------------------------------------------------------
                          DFT DISPERSION CORRECTION                            
                                                                               
                              DFTD3 V3.1  Rev 1                                
                          USING Becke-Johnson damping                          
-------------------------------------------------------------------------------
The DSD-BLYP/2013 functional is recognized
Active option DFTDOPT                   ...         4   

molecular C6(AA) [au] = 711.571600 


            DFT-D V3
 parameters
 s6 scaling factor         :     0.5700 
 a1 scaling factor         :     0.0000 
 s8 scaling factor         :     0.0000 
 a2 scaling factor         :     5.4000 
 ad hoc parameters k1-k3   :    16.0000     1.3333    -4.0000 

 Edisp/kcal,au: -2.108813357736  -0.003360607640 
 E6   /kcal   :  -2.108813358 
 E8   /kcal   :  -0.000000000 
 % E8         :   0.000000000 

-------------------------   ----------------
Dispersion correction           -0.003360608
-------------------------   ----------------


-------------------------   --------------------
FINAL SINGLE POINT ENERGY     -3280.365126657103
-------------------------   --------------------

------------------------------------------------------------------------------
                         ORCA GEOMETRY RELAXATION STEP
------------------------------------------------------------------------------

Reading the OPT-File                    .... done
Getting information on internals        .... done
Copying old internal coords+grads       .... done
Making the new internal coordinates     .... (new redundants).... done
Validating the new internal coordinates .... (new redundants).... done
Calculating the B-matrix                .... done
Calculating the G,G- and P matrices     .... done
Transforming gradient to internals      .... done
Projecting the internal gradient        .... done
Number of atoms                         ....   2
Number of internal coordinates          ....   1
Current Energy                          .... -3280.365126657 Eh
Current gradient norm                   ....     0.017553400 Eh/bohr
Maximum allowed component of the step   ....  0.300
Current trust radius                    ....  0.300
Evaluating the initial hessian          ....  (Almloef) done
Projecting the Hessian                  .... done
Forming the augmented Hessian           .... done
Diagonalizing the augmented Hessian     .... done
Last element of RFO vector              ....  0.999991926
Lowest eigenvalues of augmented Hessian:
 -0.000049877
Length of the computed step             ....  0.004018408
The final length of the internal step   ....  0.004018408
Converting the step to cartesian space:
 Initial RMS(Int)=    0.0040184081
Transforming coordinates:
 Iter   0:  RMS(Cart)=    0.0011600145 RMS(Int)=    0.0040184081
 Iter   1:  RMS(Cart)=    0.0000000000 RMS(Int)=    0.0000000000
done
Storing new coordinates                 .... done

                                .--------------------.
          ----------------------|Geometry convergence|-------------------------
          Item                value                   Tolerance       Converged
          ---------------------------------------------------------------------
          RMS gradient        0.0124121285            0.0001000000      NO
          MAX gradient        0.0124121285            0.0003000000      NO
          RMS step            0.0040184081            0.0020000000      NO
          MAX step            0.0040184081            0.0040000000      NO
          ........................................................
          Max(Bonds)      0.0021      Max(Angles)    0.00
          Max(Dihed)        0.00      Max(Improp)    0.00
          ---------------------------------------------------------------------

The optimization has not yet converged - more geometry cycles are needed


    ---------------------------------------------------------------------------
                         Redundant Internal Coordinates
                            (Angstroem and degrees)

        Definition                    Value    dE/dq     Step     New-Value
    ----------------------------------------------------------------------------
     1. B(Cu  1,Cu  0)                2.2150 -0.012412  0.0021    2.2171   
    ----------------------------------------------------------------------------

         *************************************************************
         *                GEOMETRY OPTIMIZATION CYCLE   2            *
         *************************************************************
---------------------------------
CARTESIAN COORDINATES (ANGSTROEM)
---------------------------------
  Cu     0.000000    0.000000    1.108553
  Cu     0.000000    0.000000   -1.108553

----------------------------
CARTESIAN COORDINATES (A.U.)
----------------------------
  NO LB      ZA    FRAG     MASS         X           Y           Z
   0 Cu   29.0000    0    63.550    0.000000    0.000000    2.094862
   1 Cu   29.0000    0    63.550    0.000000    0.000000   -2.094862

--------------------------------
INTERNAL COORDINATES (ANGSTROEM)
--------------------------------
 Cu     0   0   0     0.000000000000     0.00000000     0.00000000
 Cu     1   0   0     2.217106449996     0.00000000     0.00000000

---------------------------
INTERNAL COORDINATES (A.U.)
---------------------------
 Cu     0   0   0     0.000000000000     0.00000000     0.00000000
 Cu     1   0   0     4.189724000242     0.00000000     0.00000000



           ************************************************************
           *        Program running with 24 parallel MPI-processes    *
           *              working on a common directory               *
           ************************************************************
 One Electron integrals                  ... done
 Pre-screening matrix                    ... done


           ************************************************************
           *        Program running with 24 parallel MPI-processes    *
           *              working on a common directory               *
           ************************************************************

Diagonalization of the overlap matrix:
Smallest eigenvalue                        ... 7.753e-04
Time for diagonalization                   ...    0.005 sec
Threshold for overlap eigenvalues          ... 1.000e-08
Number of eigenvalues below threshold      ... 0
Time for construction of square roots      ...    0.003 sec
Total time needed                          ...    0.008 sec

-------------------
DFT GRID GENERATION
-------------------

General Integration Accuracy     IntAcc      ...  4.670
Radial Grid Type                 RadialGrid  ... Gauss-Chebyshev
Angular Grid (max. acc.)         AngularGrid ... Lebedev-302
Angular grid pruning method      GridPruning ... 3 (G Style)
Weight generation scheme         WeightScheme... Becke
Basis function cutoff            BFCut       ...    1.0000e-11
Integration weight cutoff        WCut        ...    1.0000e-14
Grids for H and He will be reduced by one unit

# of grid points (after initial pruning)     ...  19112 (   0.0 sec)
# of grid points (after weights+screening)   ...  19084 (   0.0 sec)
nearest neighbour list constructed           ...    0.0 sec
Grid point re-assignment to atoms done       ...    0.0 sec
Grid point division into batches done        ...    0.1 sec
Reduced shell lists constructed in    0.2 sec

Total number of grid points                  ...    19084
Total number of batches                      ...      300
Average number of points per batch           ...       63
Average number of grid points per atom       ...     9542
Average number of shells per batch           ...     8.64 (22.74%)
Average number of basis functions per batch  ...    22.79 (17.00%)
Average number of large shells per batch     ...     5.86 (67.77%)
Average number of large basis fcns per batch ...    17.00 (74.61%)
Average number of aux-shells per batch       ...     8.64 ( 7.45%)
Average number of aux functions per batch    ...    22.79 ( 4.32%)
Maximum spatial batch extension              ...  22.17, 22.17, 16.36 au
Average spatial batch extension              ...   0.76,  0.76,  0.60 au

Time for grid setup =    0.229 sec

--------------
SCF ITERATIONS
--------------
ITER       Energy         Delta-E        Max-DP      RMS-DP      [F,P]     Damp
  0  -3279.5201043492   0.000000000000 0.00003322  0.00000104  0.0007254 0.7000
  1  -3279.5202142888  -0.000109939542 0.00004220  0.00000107  0.0005084 0.7000
                               ***Turning on DIIS***
  2  -3279.5201789087   0.000035380043 0.00016110  0.00000333  0.0003559 0.0000
  3  -3279.5201044517   0.000074456998 0.00002102  0.00000098  0.0000392 0.0000
  4  -3279.5201044565  -0.000000004789 0.00000683  0.00000029  0.0000206 0.0000
  5  -3279.5201044574  -0.000000000849 0.00000352  0.00000013  0.0000122 0.0000
  6  -3279.5201044576  -0.000000000235 0.00000184  0.00000005  0.0000040 0.0000
                 **** Energy Check signals convergence ****

               *****************************************************
               *                     SUCCESS                       *
               *           SCF CONVERGED AFTER   7 CYCLES          *
               *****************************************************

Total Energy       :        -3279.52010446 Eh          -89240.27893 eV
  Last Energy change         ...   -5.2751e-11  Tolerance :   1.0000e-08
  Last MAX-Density change    ...    1.0944e-06  Tolerance :   1.0000e-07
             **** THE GBW FILE WAS UPDATED (Cu02N0.gbw) ****
             **** DENSITY FILE WAS UPDATED (Cu02N0.scfp) ****
             **** ENERGY FILE WAS UPDATED (Cu02N0.en.tmp) ****
             **** THE GBW FILE WAS UPDATED (Cu02N0.gbw) ****
             **** DENSITY FILE WAS UPDATED (Cu02N0.scfp) ****
Total SCF time: 0 days 0 hours 0 min 1 sec 


           ************************************************************
           *        Program running with 24 parallel MPI-processes    *
           *              working on a common directory               *
           ************************************************************

------------------------------------------------------------------------------
                                ORCA  MP2 
------------------------------------------------------------------------------

Freezing NCore=20 chemical core electrons

----------------------
RI-MP2 ENERGY+GRADIENT
----------------------
Dimension of the basis                    ...  134
Memory devoted to MP2                     ... 5000 MB   
Data format for buffers                   ... DOUBLE
Compression type for matrix containers    ... UNCOMPRESSED
Scaling for aa/bb pairs                   ...   4.000e-01
Scaling for ab pairs                      ...   4.700e-01
Overall scaling of the MP2 energy         ...   1.000e+00
Calculating two index integrals           ... done (    0.009 sec)
Cholesky decomposition of the V-matrix    ... done
Cholesky decomposition of V**-1           ... done (    0.006 sec)

-----------------
RI-TRANSFORMATION (AUX index driven)
-----------------

Dimension of the orbital-basis         ... 134
Dimension of the aux-basis             ... 450
Transformation of internal MOs         ...    0-  28
Transformation of internal/external MOs...    0-  28 to   29- 133
Number Format for Storage              ... Double (8 Byte)
Integral mode                          ... Direct

First Phase: integral generation and transformation of MO indices
  Aux angular momentum 0               ... done (    0.001 sec)
  Aux angular momentum 1               ... done (    0.001 sec)
  Aux angular momentum 2               ... done (    0.002 sec)
  Aux angular momentum 3               ... done (    0.002 sec)
  Aux angular momentum 4               ... done (    0.003 sec)
  Aux angular momentum 5               ... done (    0.005 sec)
  Aux angular momentum 6               ... done (    0.008 sec)
Closing buffer VIJ ( 0.00 GB; CompressionRatio= 1.00)
Closing buffer VIA ( 0.01 GB; CompressionRatio= 1.00)
  Phase 1 completed in     0.093 sec
Second Phase: sorting and transformation of aux index

IJ-Transformation
Memory available                       ... 4994 MB 
Max. # MO pairs treated in a batch     ... 2    
# of internal orbitals                 ... 29
# batches for internal orbitals        ... 1
Closing buffer IJV ( 0.00 GB; CompressionRatio= 1.00)
(ij|v) transformation done in     0.003 sec

IA-Transformation
Memory available                       ... 4994 MB 
Max. # MO pairs treated in a batch     ... 2    
# of internal orbitals                 ... 29
# batches for internal orbitals        ... 1
Closing buffer IAV ( 0.00 GB; CompressionRatio= 1.00)
(ia|v) transformation done in     0.007 sec

  Phase 2 completed in     0.028 sec
RI-Integral transformation completed in     0.122 sec
Opening buffers                              ... done
Frozen core precalculation                   ... done

Starting loop over batches of integrals:

Operator 0  - window                       ... ( 10- 28)x( 29-133)
Operator 0  - Memory available             ...  5000 MB
Operator 0  - Memory needed per MO         ...   0.7 MB
Operator 0  - Number of orbitals per batch ... 1
Operator 0  - Number of batches            ... 1

OPERATOR  0   PASS   0:  MOs    10 ...   10 +   11 ...   11 +   12 ...   12 +   13 ...   13
                            +   14 ...   14 +   15 ...   15 +   16 ...   16 +   17 ...   17
                            +   18 ...   18 +   19 ...   19 +   20 ...   20 +   21 ...   21
                            +   22 ...   22 +   23 ...   23 +   24 ...   24 +   25 ...   25
                            +   26 ...   26 +   27 ...   27 +   28 ...   28
  Reading integrals       ... ok
Closing buffer GIPV ( 0.00 GB; CompressionRatio= 1.00)
Time spent in pair loops =     0.153 sec
Deleting buffer (Ka|jb)[aa] ...done

-----------------------------------------------
 RI-MP2 CORRELATION ENERGY:     -0.841696689 Eh
-----------------------------------------------


---------------------
MP2 DENSITY FORMATION
---------------------

Completing the external part of the density      ... done
Storing the unrelaxed density                    ... done

Calculating the xc-kernel                        ... done
Calculating G(D)                                 ... done
Completing the Lagrangian                        ... done
Solving the Z-vector equations                   ... 

------------------------------------------------------------------------------
                           ORCA CP-SCF CALCULATION
------------------------------------------------------------------------------

Input orbitals are from        ... Cu02N0.gbw
Input Perturbation             ... Cu02N0.pin.tmp
Wavefunction output            ... Cu02N0.pout.tmp
Perturbation mode              ... Real perturbation (singlet)
Solver                         ... POPLE
Max. number of iterations      ... 128
Convergence tolerance          ... 1.000e-08
Integral handling              ... Direct
Number of perturbations        ... 1
Number of operators            ... 1
Orbital ranges used for CP-SCF:
 Operator 0:  Orbitals   0... 28  to  29...133
DFT calculation                         ... on
Exchange functional (SCF)               ... B88
Exchange functional (CP-SCF)            ... B88
   X-Alpha parameter    XAlpha (SCF)    ...  0.666667
   X-Alpha parameter    XAlpha (CP-SCF) ...  0.666667
   Becke's b parameter  XBeta (SCF)     ...  0.004200
   Becke's b parameter  XBeta (CP-SCF)  ...  0.004200
Correlation functional (SCF)            ... LYP
Correlation functional (CP-SCF)         ... LYP
 LDA part of GGA corr.  LDAOpt (SCF)    ... VWN-5
 LDA part of GGA corr.  LDAOpt (CP-SCF) ... VWN-5
Hybrid DFT                              ... on
   Exchange mixing (SCF)                ...  0.710
   Exchange mixing (CP-SCF)             ...  0.710
   GGA exch. scaling(SCF)               ...  0.290
   GGA exch. scaling (CP-SCF)           ...  0.290
   GGA corr. scaling (SCF)              ...  0.540
   GGA corr. scaling (CP-SCF)           ...  0.540
Variables per vector in CP-SCF ... 3045
Number of vectors sought       ... 1
Recalculating density on grid  ... done
Calculating the xc-kernel      ... done
     CP-SCF ITERATION   0: 
     CP-SCF ITERATION   1:      0.004000036446
     CP-SCF ITERATION   2:      0.000283455630
     CP-SCF ITERATION   3:      0.000026729714
     CP-SCF ITERATION   4:      0.000002278489
     CP-SCF ITERATION   5:      0.000000108956
     CP-SCF ITERATION   6:      0.000000005436
done
Finalizing the relaxed density                   ... done
Transforming P to the AO basis                   ... done
Storing the relaxed density                      ... done

------------------------------------
ENERGY WEIGHTED DENSITY FINALIZATION
------------------------------------

Gathering the parts of the W-matrix              ... done
Forming the Z-density                            ... done
Transforming Z to the AO basis                   ... done
Calculating G(Z)                                 ... done
Finalizing the W-matrix                          ... done
Transforming W to the AO basis and storing       ... done
Entering the RIJONX and RIJCOSX sections
Starting the three-index derivative integrals:
Operator 0  - Memory available             ...  5000 MB
Operator 0  - Memory needed per MO         ...   0.9 MB
Operator 0  - Number of orbitals per batch ... 1
Operator 0  - Number of batches            ... 1

OPERATOR  0   PASS   0:  MOs    10 ...   10 +   11 ...   11 +   12 ...   12 +   13 ...   13
                            +   14 ...   14 +   15 ...   15 +   16 ...   16 +   17 ...   17
                            +   18 ...   18 +   19 ...   19 +   20 ...   20 +   21 ...   21
                            +   22 ...   22 +   23 ...   23 +   24 ...   24 +   25 ...   25
                            +   26 ...   26 +   27 ...   27 +   28 ...   28

----------------------------------
MP2 DERIVATIVE INTEGRAL GENERATION
----------------------------------


Input Correlated Electron Density   ... Cu02N0.pmp2re
Input Energy Weighted Density       ... Cu02N0.wmp2.tmp
Input SCF Electron Density          ... Cu02N0.scfp

One-Electron Terms    ...
                        ... One-Electron Terms done
Prescreening matrices              ... done
Exchange-correlation gradient    ... done
Dispersion correction            ... done

-------
TIMINGS
-------

Total time                :    7.801 sec
Integral trafo            :    0.136 sec (  1.7%)
FC preparation            :    0.009 sec (  0.1%)
I/O of integrals          :    0.001 sec (  0.0%)
K(i,j) Operators          :    0.004 sec (  0.0%)
T(i,j) pair energies      :    0.001 sec (  0.0%)
V-calculation             :    0.009 sec (  0.1%)
V**(-1/2)                 :    0.006 sec (  0.1%)
Gamma(ia|P)               :    0.003 sec (  0.0%)
Gamma-Trafo               :    0.003 sec (  0.0%)
D(virtual)                :    0.000 sec (  0.0%)
D(internal)               :    0.008 sec (  0.1%)
W(virtual)                :    0.000 sec (  0.0%)
W(internal)               :    0.005 sec (  0.1%)
L(virtual)                :    0.114 sec (  1.5%)
L(internal)               :    0.000 sec (  0.0%)
G(D)                      :    0.671 sec (  8.6%)
G(Z)                      :    0.578 sec (  7.4%)
Z-Vector Solution         :    3.670 sec ( 47.0%)
Z-Vector Solution         :    3.670 sec ( 47.0%)
3-Index Derivative 
+ Separable RIJ part      :    0.579 sec (  7.4%)
2-Index Derivative 
+ Separable RIJ part      :    0.004 sec (  0.1%)
Separable Gradient (X)    :    1.709 sec ( 21.9%)


---------------------------------------
MP2 TOTAL ENERGY:    -3280.361801146 Eh
---------------------------------------

-----------------------------------
NORM OF THE MP2 GRADIENT:  0.017032
-----------------------------------


-------------------------------------------------------------------------------
                          DFT DISPERSION CORRECTION                            
                                                                               
                              DFTD3 V3.1  Rev 1                                
                          USING Becke-Johnson damping                          
-------------------------------------------------------------------------------
-------------------------   ----------------
Dispersion correction           -0.003357383
-------------------------   ----------------


-------------------------   --------------------
FINAL SINGLE POINT ENERGY     -3280.365158529585
-------------------------   --------------------

------------------------------------------------------------------------------
                         ORCA GEOMETRY RELAXATION STEP
------------------------------------------------------------------------------

Reading the OPT-File                    .... done
Getting information on internals        .... done
Copying old internal coords+grads       .... done
Making the new internal coordinates     .... (new redundants).... done
Validating the new internal coordinates .... (new redundants).... done
Calculating the B-matrix                .... done
Calculating the G,G- and P matrices     .... done
Transforming gradient to internals      .... done
Projecting the internal gradient        .... done
Number of atoms                         ....   2
Number of internal coordinates          ....   1
Current Energy                          .... -3280.365158530 Eh
Current gradient norm                   ....     0.017032173 Eh/bohr
Maximum allowed component of the step   ....  0.300
Current trust radius                    ....  0.300
Updating the Hessian (BFGS)             .... done
Forming the augmented Hessian           .... done
Diagonalizing the augmented Hessian     .... done
Last element of RFO vector              ....  0.991766747
Lowest eigenvalues of augmented Hessian:
 -0.001555072
Length of the computed step             ....  0.129120565
The final length of the internal step   ....  0.129120565
Converting the step to cartesian space:
 Initial RMS(Int)=    0.1291205650
Transforming coordinates:
 Iter   0:  RMS(Cart)=    0.0372738965 RMS(Int)=    0.1291205650
 Iter   1:  RMS(Cart)=    0.0000000000 RMS(Int)=    0.0000000000
done
Storing new coordinates                 .... done

                                .--------------------.
          ----------------------|Geometry convergence|-------------------------
          Item                value                   Tolerance       Converged
          ---------------------------------------------------------------------
          Energy change      -0.0000318725            0.0000050000      NO
          RMS gradient        0.0120435652            0.0001000000      NO
[...]
      dx2y2   :     1.995679
      dxy     :     1.995679
      f0      :     0.002433  f :     0.016676
      f+1     :     0.002409
      f-1     :     0.002409
      f+2     :     0.002368
      f-2     :     0.002368
      f+3     :     0.002345
      f-3     :     0.002345
      g0      :     0.000151  g :     0.001357
      g+1     :     0.000151
      g-1     :     0.000151
      g+2     :     0.000151
      g-2     :     0.000151
      g+3     :     0.000151
      g-3     :     0.000151
      g+4     :     0.000150
      g-4     :     0.000150


                     *******************************
                     * LOEWDIN POPULATION ANALYSIS *
                     *******************************

----------------------
LOEWDIN ATOMIC CHARGES
----------------------
   0 Cu:   -0.000000
   1 Cu:    0.000000

-------------------------------
LOEWDIN REDUCED ORBITAL CHARGES
-------------------------------
  0 Cus       :     6.837917  s :     6.837917
      pz      :     4.129343  p :    12.158408
      px      :     4.014533
      py      :     4.014533
      dz2     :     2.018522  d :     9.985407
      dxz     :     1.987766
      dyz     :     1.987766
      dx2y2   :     1.995676
      dxy     :     1.995676
      f0      :     0.002561  f :     0.016911
      f+1     :     0.002460
      f-1     :     0.002460
      f+2     :     0.002370
      f-2     :     0.002370
      f+3     :     0.002345
      f-3     :     0.002345
      g0      :     0.000151  g :     0.001358
      g+1     :     0.000151
      g-1     :     0.000151
      g+2     :     0.000151
      g-2     :     0.000151
      g+3     :     0.000151
      g-3     :     0.000151
      g+4     :     0.000150
      g-4     :     0.000150
  1 Cus       :     6.837917  s :     6.837917
      pz      :     4.129343  p :    12.158408
      px      :     4.014533
      py      :     4.014533
      dz2     :     2.018522  d :     9.985407
      dxz     :     1.987766
      dyz     :     1.987766
      dx2y2   :     1.995676
      dxy     :     1.995676
      f0      :     0.002561  f :     0.016911
      f+1     :     0.002460
      f-1     :     0.002460
      f+2     :     0.002370
      f-2     :     0.002370
      f+3     :     0.002345
      f-3     :     0.002345
      g0      :     0.000151  g :     0.001358
      g+1     :     0.000151
      g-1     :     0.000151
      g+2     :     0.000151
      g-2     :     0.000151
      g+3     :     0.000151
      g-3     :     0.000151
      g+4     :     0.000150
      g-4     :     0.000150


                      *****************************
                      * MAYER POPULATION ANALYSIS *
                      *****************************

  NA   - Mulliken gross atomic population
  ZA   - Total nuclear charge
  QA   - Mulliken gross atomic charge
  VA   - Mayer's total valence
  BVA  - Mayer's bonded valence
  FA   - Mayer's free valence

  ATOM       NA         ZA         QA         VA         BVA        FA
  0 Cu    29.0000    29.0000     0.0000     1.5784     0.9878     0.5905
  1 Cu    29.0000    29.0000    -0.0000     1.5784     0.9878     0.5905

  Mayer bond orders larger than 0.100000
B(  0-Cu,  1-Cu) :   0.9878 


-------
TIMINGS
-------

Total time                :    7.576 sec
Integral trafo            :    0.135 sec (  1.8%)
FC preparation            :    0.009 sec (  0.1%)
I/O of integrals          :    0.001 sec (  0.0%)
K(i,j) Operators          :    0.004 sec (  0.0%)
T(i,j) pair energies      :    0.001 sec (  0.0%)
V-calculation             :    0.009 sec (  0.1%)
V**(-1/2)                 :    0.006 sec (  0.1%)
Gamma(ia|P)               :    0.003 sec (  0.0%)
Gamma-Trafo               :    0.003 sec (  0.0%)
D(virtual)                :    0.000 sec (  0.0%)
D(internal)               :    0.008 sec (  0.1%)
W(virtual)                :    0.000 sec (  0.0%)
W(internal)               :    0.005 sec (  0.1%)
L(virtual)                :    0.113 sec (  1.5%)
L(internal)               :    0.000 sec (  0.0%)
G(D)                      :    0.626 sec (  8.3%)
G(Z)                      :    0.582 sec (  7.7%)
Z-Vector Solution         :    3.619 sec ( 47.8%)
Z-Vector Solution         :    3.619 sec ( 47.8%)
3-Index Derivative 
+ Separable RIJ part      :    0.565 sec (  7.5%)
2-Index Derivative 
+ Separable RIJ part      :    0.004 sec (  0.1%)
Separable Gradient (X)    :    1.635 sec ( 21.6%)


---------------------------------------
MP2 TOTAL ENERGY:    -3280.362107542 Eh
---------------------------------------

-----------------------------------
NORM OF THE MP2 GRADIENT:  0.000000
-----------------------------------


-------------------------------------------------------------------------------
                          DFT DISPERSION CORRECTION                            
                                                                               
                              DFTD3 V3.1  Rev 1                                
                          USING Becke-Johnson damping                          
-------------------------------------------------------------------------------
The DSD-BLYP/2013 functional is recognized
Active option DFTDOPT                   ...         4   

molecular C6(AA) [au] = 714.380311 


            DFT-D V3
 parameters
 s6 scaling factor         :     0.5700 
 a1 scaling factor         :     0.0000 
 s8 scaling factor         :     0.0000 
 a2 scaling factor         :     5.4000 
 ad hoc parameters k1-k3   :    16.0000     1.3333    -4.0000 

 Edisp/kcal,au: -2.028988990338  -0.003233399427 
 E6   /kcal   :  -2.028988990 
 E8   /kcal   :  -0.000000000 
 % E8         :   0.000000000 

-------------------------   ----------------
Dispersion correction           -0.003233399
-------------------------   ----------------


-------------------------   --------------------
FINAL SINGLE POINT ENERGY     -3280.365340941556
-------------------------   --------------------

                                *** OPTIMIZATION RUN DONE ***

                            ***************************************
                            *     ORCA property calculations      *
                            ***************************************

                                    ---------------------
                                    Active property flags
                                    ---------------------
   (+) Dipole Moment


------------------------------------------------------------------------------
                       ORCA ELECTRIC PROPERTIES CALCULATION
------------------------------------------------------------------------------

Dipole Moment Calculation                       ... on
Quadrupole Moment Calculation                   ... off
Polarizability Calculation                      ... off
GBWName                                         ... Cu02N0.gbw
Electron density file                           ... Cu02N0.scfp
The origin for moment calculation is the CENTER OF MASS  = ( 0.000000,  0.000000  0.000000)

-------------
DIPOLE MOMENT
-------------
                                X             Y             Z
Electronic contribution:      0.00000       0.00000      -0.00000
Nuclear contribution   :      0.00000       0.00000       0.00000
                        -----------------------------------------
Total Dipole Moment    :      0.00000       0.00000      -0.00000
                        -----------------------------------------
Magnitude (a.u.)       :      0.00000
Magnitude (Debye)      :      0.00000



--------------------
Rotational spectrum 
--------------------
 
Rotational constants in cm-1:     0.000000     0.100553     0.100553 
Rotational constants in MHz :     0.000000  3014.499276  3014.499276 

 Dipole components along the rotational axes: 
x,y,z [a.u.] :    -0.000000     0.000000     0.000000 
x,y,z [Debye]:    -0.000000     0.000000     0.000000 

 

                         *** MP2 UNRELAXED DENSITY ***

------------------------------------------------------------------------------
                       ORCA ELECTRIC PROPERTIES CALCULATION
------------------------------------------------------------------------------

Dipole Moment Calculation                       ... on
Quadrupole Moment Calculation                   ... off
Polarizability Calculation                      ... off
GBWName                                         ... Cu02N0.gbw
Electron density file                           ... Cu02N0.pmp2ur
The origin for moment calculation is the CENTER OF MASS  = ( 0.000000,  0.000000  0.000000)

-------------
DIPOLE MOMENT
-------------
                                X             Y             Z
Electronic contribution:      0.00000       0.00000      -0.00000
Nuclear contribution   :      0.00000       0.00000       0.00000
                        -----------------------------------------
Total Dipole Moment    :      0.00000       0.00000      -0.00000
                        -----------------------------------------
Magnitude (a.u.)       :      0.00000
Magnitude (Debye)      :      0.00000



--------------------
Rotational spectrum 
--------------------
 
Rotational constants in cm-1:     0.000000     0.100553     0.100553 
Rotational constants in MHz :     0.000000  3014.499276  3014.499276 

 Dipole components along the rotational axes: 
x,y,z [a.u.] :    -0.000000     0.000000     0.000000 
x,y,z [Debye]:    -0.000000     0.000000     0.000000 

 

                           *** MP2 RELAXED DENSITY ***

------------------------------------------------------------------------------
                       ORCA ELECTRIC PROPERTIES CALCULATION
------------------------------------------------------------------------------

Dipole Moment Calculation                       ... on
Quadrupole Moment Calculation                   ... off
Polarizability Calculation                      ... off
GBWName                                         ... Cu02N0.gbw
Electron density file                           ... Cu02N0.pmp2re
The origin for moment calculation is the CENTER OF MASS  = ( 0.000000,  0.000000  0.000000)

-------------
DIPOLE MOMENT
-------------
                                X             Y             Z
Electronic contribution:      0.00000       0.00000      -0.00000
Nuclear contribution   :      0.00000       0.00000       0.00000
                        -----------------------------------------
Total Dipole Moment    :      0.00000       0.00000      -0.00000
                        -----------------------------------------
Magnitude (a.u.)       :      0.00000
Magnitude (Debye)      :      0.00000



--------------------
Rotational spectrum 
--------------------
 
Rotational constants in cm-1:     0.000000     0.100553     0.100553 
Rotational constants in MHz :     0.000000  3014.499276  3014.499276 

 Dipole components along the rotational axes: 
x,y,z [a.u.] :    -0.000000     0.000000     0.000000 
x,y,z [Debye]:    -0.000000     0.000000     0.000000 

 

----------------------------------------------------------------------------
                           ORCA NUMERICAL FREQUENCIES
                              (24-process run)
----------------------------------------------------------------------------

Number of atoms                ... 2
Central differences            ... used
Number of displacements        ... 12
Numerical increment            ... 5.000e-03 bohr
IR-spectrum generation         ... on
Raman-spectrum generation      ... off
Surface Crossing Hessian       ... off

 WARNING: There are more processes than displacements to do
  ====> : Reducing number of processes to   6

The output will be reduced. Please look at the following files:
SCF program output             ... >Cu02N0.lastscf
Integral program output        ... >Cu02N0.lastint
Gradient program output        ... >Cu02N0.lastgrad
Dipole moment program output   ... >Cu02N0.lastmom
AutoCI program output          ... >Cu02N0.lastautoci


         <<< Energy and Gradient at the input geometry >>>

        <<< Energy and Gradient at displaced geometries >>>
             <<<Displacing   1/coordinate 3 (+)>>>
             <<<Displacing   2/coordinate 1 (+)>>>
             <<<Displacing   1/coordinate 1 (+)>>>
             <<<Displacing   2/coordinate 2 (+)>>>
             <<<Displacing   2/coordinate 3 (+)>>>
             <<<Displacing   1/coordinate 2 (+)>>>
             <<<Displacing   1/coordinate 1 (-)>>>
             <<<Displacing   2/coordinate 2 (-)>>>
             <<<Displacing   1/coordinate 2 (-)>>>
             <<<Displacing   2/coordinate 1 (-)>>>
             <<<Displacing   2/coordinate 3 (-)>>>
             <<<Displacing   1/coordinate 3 (-)>>>
Warning: T+R mode no 5 is zero 

-----------------------
VIBRATIONAL FREQUENCIES
-----------------------

Scaling factor for frequencies =  1.000000000 (already applied!)

   0:         0.00 cm**-1
   1:         0.00 cm**-1
   2:         0.00 cm**-1
   3:         0.00 cm**-1
   4:         0.00 cm**-1
   5:       240.19 cm**-1


------------
NORMAL MODES
------------

These modes are the cartesian displacements weighted by the diagonal matrix
M(i,i)=1/sqrt(m[i]) where m[i] is the mass of the displaced atom
Thus, these vectors are normalized but *not* orthogonal

                  0          1          2          3          4          5    
      0       0.000000   0.000000   0.000000   0.000000   0.000000   0.000000
      1       0.000000   0.000000   0.000000   0.000000   0.000000   0.000000
      2       0.000000   0.000000   0.000000   0.000000   0.000000   0.707107
      3       0.000000   0.000000   0.000000   0.000000   0.000000   0.000000
      4       0.000000   0.000000   0.000000   0.000000   0.000000   0.000000
      5       0.000000   0.000000   0.000000   0.000000   0.000000  -0.707107


-----------
IR SPECTRUM  
-----------

 Mode    freq (cm**-1)   T**2         TX         TY         TZ
-------------------------------------------------------------------
   5:       240.19    0.000000  ( -0.000004   0.000002   0.000052)

The first frequency considered to be a vibration is 5
The total number of vibrations considered is 1


--------------------------
THERMOCHEMISTRY AT 298.15K
--------------------------

Temperature         ... 298.15 K
Pressure            ... 1.00 atm
Total Mass          ... 127.10 AMU
The molecule is recognized as being linear

Throughout the following assumptions are being made:
  (1) The electronic state is orbitally nondegenerate
  (2) There are no thermally accessible electronically excited states
  (3) Hindered rotations indicated by low frequency modes are not
      treated as such but are treated as vibrations and this may
      cause some error
  (4) All equations used are the standard statistical mechanics
      equations for an ideal gas
  (5) All vibrations are strictly harmonic

freq.     240.19  E(vib)   ...       0.31 

------------
INNER ENERGY
------------

The inner energy is: U= E(el) + E(ZPE) + E(vib) + E(rot) + E(trans)
    E(el)   - is the total energy from the electronic structure calculation
              = E(kin-el) + E(nuc-el) + E(el-el) + E(nuc-nuc)
    E(ZPE)  - the the zero temperature vibrational energy from the frequency calculation
    E(vib)  - the the finite temperature correction to E(ZPE) due to population
              of excited vibrational states
    E(rot)  - is the rotational thermal energy
    E(trans)- is the translational thermal energy

Summary of contributions to the inner energy U:
Electronic energy                ...  -3280.36534079 Eh
Zero point energy                ...      0.00054719 Eh       0.34 kcal/mol
Thermal vibrational correction   ...      0.00050043 Eh       0.31 kcal/mol
Thermal rotational correction    ...      0.00094418 Eh       0.59 kcal/mol
Thermal translational correction ...      0.00141627 Eh       0.89 kcal/mol
-----------------------------------------------------------------------
Total thermal energy                  -3280.36193272 Eh


Summary of corrections to the electronic energy:
(perhaps to be used in another calculation)
Total thermal correction                  0.00286088 Eh       1.80 kcal/mol
Non-thermal (ZPE) correction              0.00054719 Eh       0.34 kcal/mol
-----------------------------------------------------------------------
Total correction                          0.00340807 Eh       2.14 kcal/mol


--------
ENTHALPY
--------

The enthalpy is H = U + kB*T
                kB is Boltzmann's constant
Total free energy                 ...  -3280.36193272 Eh 
Thermal Enthalpy correction       ...      0.00094421 Eh       0.59 kcal/mol
-----------------------------------------------------------------------
Total Enthalpy                    ...  -3280.36098851 Eh


Note: Rotational entropy computed according to Herzberg 
Infrared and Raman Spectra, Chapter V,1, Van Nostrand Reinhold, 1945 
Point Group:  Dinfh, Symmetry Number:   2  
Rotational constants in cm-1:     0.000000     0.100553     0.100553 

Vibrational entropy computed according to the QRRHO of S. Grimme
Chem.Eur.J. 2012 18 9955


-------
ENTROPY
-------

The entropy contributions are T*S = T*(S(el)+S(vib)+S(rot)+S(trans))
     S(el)   - electronic entropy
     S(vib)  - vibrational entropy
     S(rot)  - rotational entropy
     S(trans)- translational entropy
The entropies will be listed as mutliplied by the temperature to get
units of energy

Electronic entropy                ...      0.00000000 Eh      0.00 kcal/mol
Vibrational entropy               ...      0.00085850 Eh      0.54 kcal/mol
Rotational entropy                ...      0.00749466 Eh      4.70 kcal/mol
Translational entropy             ...      0.01921087 Eh     12.05 kcal/mol
-----------------------------------------------------------------------
Final entropy term                ...      0.02756403 Eh     17.30 kcal/mol

In case the symmetry of your molecule has not been determined correctly
or in case you have a reason to use a different symmetry number we print 
out the resulting rotational entropy values for sn=1,12 :
 --------------------------------------------------------
|  sn= 1 | S(rot)=             -inf Eh      -inf kcal/mol|
|  sn= 2 | S(rot)=             -inf Eh      -inf kcal/mol|
|  sn= 3 | S(rot)=             -inf Eh      -inf kcal/mol|
|  sn= 4 | S(rot)=             -inf Eh      -inf kcal/mol|
|  sn= 5 | S(rot)=             -inf Eh      -inf kcal/mol|
|  sn= 6 | S(rot)=             -inf Eh      -inf kcal/mol|
|  sn= 7 | S(rot)=             -inf Eh      -inf kcal/mol|
|  sn= 8 | S(rot)=             -inf Eh      -inf kcal/mol|
|  sn= 9 | S(rot)=             -inf Eh      -inf kcal/mol|
|  sn=10 | S(rot)=             -inf Eh      -inf kcal/mol|
|  sn=11 | S(rot)=             -inf Eh      -inf kcal/mol|
|  sn=12 | S(rot)=             -inf Eh      -inf kcal/mol|
 --------------------------------------------------------


-------------------
GIBBS FREE ENERGY
-------------------

The Gibbs free energy is G = H - T*S

Total enthalpy                    ...  -3280.36098851 Eh 
Total entropy correction          ...     -0.02756403 Eh    -17.30 kcal/mol
-----------------------------------------------------------------------
Final Gibbs free energy         ...  -3280.38855254 Eh

For completeness - the Gibbs free energy minus the electronic energy
G-E(el)                           ...     -0.02321175 Eh    -14.57 kcal/mol


Total Time for Numerical Frequencies  :        96.278 sec

Timings for individual modules:

Sum of individual times         ...       79.199 sec (=   1.320 min)
GTO integral calculation        ...        4.607 sec (=   0.077 min)   5.8 %
SCF iterations                  ...       16.400 sec (=   0.273 min)  20.7 %
MP2 module                      ...       57.882 sec (=   0.965 min)  73.1 %
Geometry relaxation             ...        0.310 sec (=   0.005 min)   0.4 %
                             ****ORCA TERMINATED NORMALLY****
TOTAL RUN TIME: 0 days 0 hours 2 minutes 46 seconds 314 msec
