
                                 *****************
                                 * O   R   C   A *
                                 *****************

           --- An Ab Initio, DFT and Semiempirical electronic structure package ---

                  #######################################################
                  #                        -***-                        #
                  #          Department of theory and spectroscopy      #
                  #               Directorship: Frank Neese             #
                  #        Max Planck Institute fuer Kohlenforschung    #
                  #                Kaiser Wilhelm Platz 1               #
                  #                 D-45470 Muelheim/Ruhr               #
                  #                      Germany                        #
                  #                                                     #
                  #                  All rights reserved                #
                  #                        -***-                        #
                  #######################################################


                         Program Version 4.2.0 -  RELEASE  -


 With contributions from (in alphabetic order):
   Daniel Aravena         : Magnetic Suceptibility
   Michael Atanasov       : Ab Initio Ligand Field Theory (pilot matlab implementation)
   Alexander A. Auer      : GIAO ZORA, VPT2
   Ute Becker             : Parallelization
   Giovanni Bistoni       : ED, misc. LED, open-shell LED, HFLED
   Martin Brehm           : Molecular dynamics
   Dmytro Bykov           : SCF Hessian
   Vijay G. Chilkuri      : MRCI spin determinant printing, contributions to CSF-ICE
   Dipayan Datta          : RHF DLPNO-CCSD density
   Achintya Kumar Dutta   : EOM-CC, STEOM-CC
   Dmitry Ganyushin       : Spin-Orbit,Spin-Spin,Magnetic field MRCI
   Miquel Garcia          : C-PCM Hessian, Gaussian charge scheme
   Yang Guo               : DLPNO-NEVPT2, CIM, IAO-localization
   Andreas Hansen         : Spin unrestricted coupled pair/coupled cluster methods
   Benjamin Helmich-Paris : CASSCF linear response (MC-RPA)
   Lee Huntington         : MR-EOM, pCC
   Robert Izsak           : Overlap fitted RIJCOSX, COSX-SCS-MP3, EOM
   Christian Kollmar      : KDIIS, OOCD, Brueckner-CCSD(T), CCSD density
   Simone Kossmann        : Meta GGA functionals, TD-DFT gradient, OOMP2, MP2 Hessian
   Martin Krupicka        : AUTO-CI
   Lucas Lang             : DCDCAS
   Dagmar Lenk            : GEPOL surface, SMD
   Dimitrios Liakos       : Extrapolation schemes; Compound Job, initial MDCI parallelization
   Dimitrios Manganas     : Further ROCIS development; embedding schemes
   Dimitrios Pantazis     : SARC Basis sets
   Taras Petrenko         : DFT Hessian,TD-DFT gradient, ASA, ECA, R-Raman, ABS, FL, XAS/XES, NRVS
   Peter Pinski           : DLPNO-MP2, DLPNO-MP2 Gradient
   Christoph Reimann      : Effective Core Potentials
   Marius Retegan         : Local ZFS, SOC
   Christoph Riplinger    : Optimizer, TS searches, QM/MM, DLPNO-CCSD(T), (RO)-DLPNO pert. Triples
   Tobias Risthaus        : Range-separated hybrids, TD-DFT gradient, RPA, STAB
   Michael Roemelt        : Original ROCIS implementation
   Masaaki Saitow         : Open-shell DLPNO-CCSD energy and density
   Barbara Sandhoefer     : DKH picture change effects
   Avijit Sen             : IP-ROCIS
   Kantharuban Sivalingam : CASSCF convergence, NEVPT2, FIC-MRCI
   Bernardo de Souza      : ESD, SOC TD-DFT
   Georgi Stoychev        : AutoAux, RI-MP2 NMR
   Willem Van den Heuvel  : Paramagnetic NMR
   Boris Wezisla          : Elementary symmetry handling
   Frank Wennmohs         : Technical directorship


 We gratefully acknowledge several colleagues who have allowed us to
 interface, adapt or use parts of their codes:
   Stefan Grimme, W. Hujo, H. Kruse,             : VdW corrections, initial TS optimization,
                  C. Bannwarth                     DFT functionals, gCP, sTDA/sTD-DF
   Ed Valeev, F. Pavosevic, A. Kumar             : LibInt (2-el integral package), F12 methods
   Garnet Chan, S. Sharma, J. Yang, R. Olivares  : DMRG
   Ulf Ekstrom                                   : XCFun DFT Library
   Mihaly Kallay                                 : mrcc  (arbitrary order and MRCC methods)
   Andreas Klamt, Michael Diedenhofen            : otool_cosmo (COSMO solvation model)
   Jiri Pittner, Ondrej Demel                    : Mk-CCSD
   Frank Weinhold                                : gennbo (NPA and NBO analysis)
   Christopher J. Cramer and Donald G. Truhlar   : smd solvation model
   Lars Goerigk                                  : TD-DFT with DH, B97 family of functionals
   V. Asgeirsson, H. Jonsson                     : NEB implementation
   FAccTs GmbH                                   : IRC, NEB, NEB-TS, Multilevel, MM, QM/MM, CI optimization
   S Lehtola, MJT Oliveira, MAL Marques          : LibXC Library


 Your calculation uses the libint2 library for the computation of 2-el integrals
 For citations please refer to: http://libint.valeyev.net

 Your ORCA version has been built with support for libXC version: 4.2.3
 For citations please refer to: https://tddft.org/programs/libxc/

 This ORCA versions uses:
   CBLAS   interface :  Fast vector & matrix operations
   LAPACKE interface :  Fast linear algebra routines
   SCALAPACK package :  Parallel linear algebra routines


Your calculation utilizes the atom-pairwise dispersion correction
with the Becke-Johnson damping scheme (D3BJ)
Cite in your paper:
S.Grimme, S.Ehrlich, L.Goerigk, J Comput Chem, (2011), 32, 1456–1465 
S.Grimme, J.Antony, S.Ehrlich and H.Krieg, J.Chem.Phys., 132, (2010), 154104 
   

----- Orbital basis set information -----
Your calculation utilizes the basis: def2-TZVPPD
   F. Weigend and R. Ahlrichs, Phys. Chem. Chem. Phys. 7, 3297 (2005).
   D. Rappoport and F. Furche, J. Chem. Phys. 133 134105 (2010).

----- AuxC basis set information -----
Your calculation utilizes the auxiliary basis: def2-TZVPPD/C
   A. Hellweg, C. Hattig, S. Hofener and W. Klopper, Theor. Chem. Acc. 117, 587 (2007).

----- AuxJK basis set information -----
Your calculation utilizes the auxiliary basis: def2/JK
   H-Ba, Hf-Rn: F. Weigend, J. Comput. Chem. 29, 167 (2008).

================================================================================
                                        WARNINGS
                       Please study these warnings very carefully!
================================================================================


WARNING: your system is open-shell and RHF/RKS was chosen
  ===> : WILL SWITCH to UHF/UKS


WARNING: The frozen-core approximation for MP2-gradient calculations is turned on by default.

WARNING: Geometry Optimization
  ===> : Switching off AutoStart
         For restart on a previous wavefunction, please use MOREAD

WARNING: There are different parametrizations of Gershom Martin's DSD-DFs
         for use with and without D3(BJ)!
         You are using the D3(BJ) parametrized version,
         consistent with the 2013 article (S. Kozuch and J. M. L. Martin, JCC 2013, 34, 2327)

WARNING: The frozen-core approximation is turned on by default for 
         the MP2 part of double-hybrid DFT.

INFO   : the flag for use of LIBINT has been found!

================================================================================
                                       INPUT FILE
================================================================================
NAME = Cu03N0_D3H.in
|  1> #
|  2> # Cu03N0_D3H ri-DSD-BLYP/2013-D3BJ/Def2-TZVPPD
|  3> #
|  4> ! rijk ri-dsd-blyp/2013 d3bj def2-tzvppd def2/jk def2-tzvppd/c grid4 nofinalgrid opt xyzfile numfreq
|  5> 
|  6> *xyz 0 2
|  7> Cu       0.000000    1.346828   -0.000000 
|  8> Cu       1.166387   -0.673414   -0.000000 
|  9> Cu      -1.166387   -0.673414   -0.000000 
| 10> *
| 11> 
| 12> %maxcore 5000
| 13> 
| 14> %pal
| 15> nprocs = 24
| 16> end
| 17> 
| 18> 
| 19>                          ****END OF INPUT****
================================================================================

                       *****************************
                       * Geometry Optimization Run *
                       *****************************

Geometry optimization settings:
Update method            Update   .... BFGS
Choice of coordinates    CoordSys .... Z-matrix Internals
Initial Hessian          InHess   .... Almoef's Model

Convergence Tolerances:
Energy Change            TolE     ....  5.0000e-06 Eh
Max. Gradient            TolMAXG  ....  3.0000e-04 Eh/bohr
RMS Gradient             TolRMSG  ....  1.0000e-04 Eh/bohr
Max. Displacement        TolMAXD  ....  4.0000e-03 bohr
RMS Displacement         TolRMSD  ....  2.0000e-03 bohr
Strict Convergence                ....  False
------------------------------------------------------------------------------
                        ORCA OPTIMIZATION COORDINATE SETUP
------------------------------------------------------------------------------

The optimization will be done in new redundant internal coordinates
Making redundant internal coordinates   ...  (new redundants) done
Evaluating the initial hessian          ...  (Almloef) done
Evaluating the coordinates              ...  done
Calculating the B-matrix                .... done
Calculating the G-matrix                .... done
Diagonalizing the G-matrix              .... done
The first mode is                       ....    3
The number of degrees of freedom        ....    3

    -----------------------------------------------------------------
                    Redundant Internal Coordinates


    -----------------------------------------------------------------
         Definition                    Initial Value    Approx d2E/dq
    -----------------------------------------------------------------
      1. B(Cu  1,Cu  0)                  2.3328         2.003788   
      2. B(Cu  2,Cu  1)                  2.3328         2.003791   
      3. B(Cu  2,Cu  0)                  2.3328         2.003788   
      4. A(Cu  1,Cu  0,Cu  2)           60.0000         1.058655   
      5. A(Cu  0,Cu  1,Cu  2)           60.0000         1.058655   
      6. A(Cu  0,Cu  2,Cu  1)           60.0000         1.058655   
    -----------------------------------------------------------------

Number of atoms                         .... 3
Number of degrees of freedom            .... 6

         *************************************************************
         *                GEOMETRY OPTIMIZATION CYCLE   1            *
         *************************************************************
---------------------------------
CARTESIAN COORDINATES (ANGSTROEM)
---------------------------------
  Cu     0.000000    1.346828   -0.000000
  Cu     1.166387   -0.673414   -0.000000
  Cu    -1.166387   -0.673414   -0.000000

----------------------------
CARTESIAN COORDINATES (A.U.)
----------------------------
  NO LB      ZA    FRAG     MASS         X           Y           Z
   0 Cu   29.0000    0    63.550    0.000000    2.545136   -0.000000
   1 Cu   29.0000    0    63.550    2.204152   -1.272568   -0.000000
   2 Cu   29.0000    0    63.550   -2.204152   -1.272568   -0.000000

--------------------------------
INTERNAL COORDINATES (ANGSTROEM)
--------------------------------
 Cu     0   0   0     0.000000000000     0.00000000     0.00000000
 Cu     1   0   0     2.332774393792     0.00000000     0.00000000
 Cu     2   1   0     2.332774000000    60.00000558     0.00000000

---------------------------
INTERNAL COORDINATES (A.U.)
---------------------------
 Cu     0   0   0     0.000000000000     0.00000000     0.00000000
 Cu     1   0   0     4.408304736492     0.00000000     0.00000000
 Cu     2   1   0     4.408303992332    60.00000558     0.00000000

---------------------
BASIS SET INFORMATION
---------------------
There are 1 groups of distinct atoms

 Group   1 Type Cu  : 17s13p7d2f1g contracted to 6s6p4d2f1g pattern {842111/631111/4111/11/1}

Atom   0Cu   basis set group =>   1
Atom   1Cu   basis set group =>   1
Atom   2Cu   basis set group =>   1
---------------------------------
AUXILIARY/C BASIS SET INFORMATION
---------------------------------
There are 1 groups of distinct atoms

 Group   1 Type Cu  : 10s10p9d7f5g3h1i contracted to 10s10p9d7f5g3h1i pattern {1111111111/1111111111/111111111/1111111/11111/111/1}

Atom   0Cu   basis set group =>   1
Atom   1Cu   basis set group =>   1
Atom   2Cu   basis set group =>   1
----------------------------------
AUXILIARY/JK BASIS SET INFORMATION
----------------------------------
There are 1 groups of distinct atoms

 Group   1 Type Cu  : 19s14p12d10f7g3h1i contracted to 16s13p11d9f5g3h1i pattern {4111111111111111/2111111111111/21111111111/211111111/31111/111/1}

Atom   0Cu   basis set group =>   1
Atom   1Cu   basis set group =>   1
Atom   2Cu   basis set group =>   1


           ************************************************************
           *        Program running with 24 parallel MPI-processes    *
           *              working on a common directory               *
           ************************************************************
------------------------------------------------------------------------------
                           ORCA GTO INTEGRAL CALCULATION
                           -- RI-GTO INTEGRALS CHOSEN --
------------------------------------------------------------------------------

                         BASIS SET STATISTICS AND STARTUP INFO

Gaussian basis set:
 # of primitive gaussian shells          ...  120
 # of primitive gaussian functions       ...  342
 # of contracted shells                  ...   57
 # of contracted basis functions         ...  201
 Highest angular momentum                ...    4
 Maximum contraction depth               ...    8
Auxiliary gaussian basis set:
 # of primitive gaussian shells          ...  198
 # of primitive gaussian functions       ...  900
 # of contracted shells                  ...  174
 # of contracted aux-basis functions     ...  792
 Highest angular momentum                ...    6
 Maximum contraction depth               ...    4
Ratio of auxiliary to basis functions    ...  3.94
Integral package used                  ... LIBINT
 One Electron integrals                  ... done
 Ordering auxiliary basis shells         ... done
 Integral threshhold             Thresh  ...  2.500e-11
 Primitive cut-off               TCut    ...  2.500e-12
 Pre-screening matrix                    ... done
 Shell pair data                         ... 
 Ordering of the shell pairs             ... done (   0.000 sec) 1533 of 1653 pairs
 Determination of significant pairs      ... done (   0.000 sec)
 Creation of shell pair data             ... done (   0.000 sec)
 Storage of shell pair data              ... done (   0.027 sec)
 Shell pair data done in (   0.027 sec)
 Computing two index integrals           ... done
 Cholesky decomposition of the V-matrix  ... done


Timings:
 Total evaluation time                   ...   0.387 sec (  0.006 min)
 One electron matrix time                ...   0.025 sec (  0.000 min) =  6.4%
 Schwartz matrix evaluation time         ...   0.181 sec (  0.003 min) = 46.9%
 Two index repulsion integral time       ...   0.113 sec (  0.002 min) = 29.2%
 Cholesky decomposition of V             ...   0.010 sec (  0.000 min) =  2.6%
 Three index repulsion integral time     ...   0.000 sec (  0.000 min) =  0.0%



           ************************************************************
           *        Program running with 24 parallel MPI-processes    *
           *              working on a common directory               *
           ************************************************************
-------------------------------------------------------------------------------
                                 ORCA SCF
-------------------------------------------------------------------------------

------------
SCF SETTINGS
------------
Hamiltonian:
 Density Functional     Method          .... DFT(GTOs)
 Exchange Functional    Exchange        .... B88
   X-Alpha parameter    XAlpha          ....  0.666667
   Becke's b parameter  XBeta           ....  0.004200
 Correlation Functional Correlation     .... LYP
 LDA part of GGA corr.  LDAOpt          .... VWN-5
 Gradients option       PostSCFGGA      .... off
 Hybrid DFT is turned on
   Fraction HF Exchange ScalHFX         ....  0.710000
   Scaling of DF-GGA-X  ScalDFX         ....  0.290000
   Scaling of DF-GGA-C  ScalDFC         ....  0.540000
   Scaling of DF-LDA-C  ScalLDAC        ....  0.540000
   Perturbative correction              ....  1.000000
   Density functional embedding theory  .... OFF
 RI-approximation to the Coulomb term is turned on
   Number of auxiliary basis functions  .... 792
   RI-JK (J+K treated both via RI)      .... on


General Settings:
 Integral files         IntName         .... Cu03N0_D3H
 Hartree-Fock type      HFTyp           .... UHF
 Total Charge           Charge          ....    0
 Multiplicity           Mult            ....    2
 Number of Electrons    NEL             ....   87
 Basis Dimension        Dim             ....  201
 Nuclear Repulsion      ENuc            ....    572.3288866767 Eh

Convergence Acceleration:
 DIIS                   CNVDIIS         .... on
   Start iteration      DIISMaxIt       ....    12
   Startup error        DIISStart       ....  0.200000
   # of expansion vecs  DIISMaxEq       ....     5
   Bias factor          DIISBfac        ....   1.050
   Max. coefficient     DIISMaxC        ....  10.000
 Newton-Raphson         CNVNR           .... off
 SOSCF                  CNVSOSCF        .... off
 Level Shifting         CNVShift        .... on
   Level shift para.    LevelShift      ....    0.2500
   Turn off err/grad.   ShiftErr        ....    0.0010
 Zerner damping         CNVZerner       .... off
 Static damping         CNVDamp         .... on
   Fraction old density DampFac         ....    0.7000
   Max. Damping (<1)    DampMax         ....    0.9800
   Min. Damping (>=0)   DampMin         ....    0.0000
   Turn off err/grad.   DampErr         ....    0.1000
 Fernandez-Rico         CNVRico         .... off

SCF Procedure:
 Maximum # iterations   MaxIter         ....   125
 SCF integral mode      SCFMode         .... Direct
   Integral package                     .... LIBINT
 Reset frequency        DirectResetFreq ....    20
 Integral Threshold     Thresh          ....  2.500e-11 Eh
 Primitive CutOff       TCut            ....  2.500e-12 Eh

Convergence Tolerance:
 Convergence Check Mode ConvCheckMode   .... Total+1el-Energy
 Convergence forced     ConvForced      .... 0
 Energy Change          TolE            ....  1.000e-08 Eh
 1-El. energy change                    ....  1.000e-05 Eh
 DIIS Error             TolErr          ....  5.000e-07


Diagonalization of the overlap matrix:
Smallest eigenvalue                        ... 7.631e-04
Time for diagonalization                   ...    0.008 sec
Threshold for overlap eigenvalues          ... 1.000e-08
Number of eigenvalues below threshold      ... 0
Time for construction of square roots      ...    0.005 sec
Total time needed                          ...    0.013 sec

-------------------
DFT GRID GENERATION
-------------------

General Integration Accuracy     IntAcc      ...  4.670
Radial Grid Type                 RadialGrid  ... Gauss-Chebyshev
Angular Grid (max. acc.)         AngularGrid ... Lebedev-302
Angular grid pruning method      GridPruning ... 3 (G Style)
Weight generation scheme         WeightScheme... Becke
Basis function cutoff            BFCut       ...    1.0000e-11
Integration weight cutoff        WCut        ...    1.0000e-14
Grids for H and He will be reduced by one unit

# of grid points (after initial pruning)     ...  28668 (   0.0 sec)
# of grid points (after weights+screening)   ...  28566 (   0.0 sec)
nearest neighbour list constructed           ...    0.0 sec
Grid point re-assignment to atoms done       ...    0.0 sec
Grid point division into batches done        ...    0.2 sec
Reduced shell lists constructed in    0.2 sec

Total number of grid points                  ...    28566
Total number of batches                      ...      448
Average number of points per batch           ...       63
Average number of grid points per atom       ...     9522
Average number of shells per batch           ...    13.75 (24.12%)
Average number of basis functions per batch  ...    38.75 (19.28%)
Average number of large shells per batch     ...    10.10 (73.45%)
Average number of large basis fcns per batch ...    27.90 (72.00%)
Average number of aux-shells per batch       ...    13.75 ( 7.90%)
Average number of aux functions per batch    ...    38.75 ( 4.89%)
Maximum spatial batch extension              ...  20.08, 17.16, 22.17 au
Average spatial batch extension              ...   0.56,  0.48,  0.54 au

Time for grid setup =    0.299 sec

------------------------------
INITIAL GUESS: MODEL POTENTIAL
------------------------------
Loading Hartree-Fock densities                     ... done
Calculating cut-offs                               ... done
Setting up the integral package                    ... done
Initializing the effective Hamiltonian             ... done
Starting the Coulomb interaction                   ... done (   0.0 sec)
Reading the grid                                   ... done
Mapping shells                                     ... done
Starting the XC term evaluation                    ... done (   0.0 sec)
  promolecular density results
     # of electrons  =     87.000079887
     EX              =   -197.430471989
     EC              =     -0.607195672
     EX+EC           =   -198.037667662
Transforming the Hamiltonian                       ... done (   0.0 sec)
Diagonalizing the Hamiltonian                      ... done (   0.0 sec)
Back transforming the eigenvectors                 ... done (   0.0 sec)
Now organizing SCF variables                       ... done
                      ------------------
                      INITIAL GUESS DONE (   0.4 sec)
                      ------------------
--------------
SCF ITERATIONS
--------------
ITER       Energy         Delta-E        Max-DP      RMS-DP      [F,P]     Damp
  0  -4919.1729629540   0.000000000000 0.12905710  0.00092775  0.0816807 0.7000
  1  -4919.0672702816   0.105692672458 0.13563058  0.00093795  0.0624605 0.7000
                               ***Turning on DIIS***
  2  -4919.1540076150  -0.086737333460 0.36806882  0.00249762  0.0461462 0.0000
  3  -4919.2605169546  -0.106509339590 0.01458904  0.00027332  0.0388338 0.0000
  4  -4919.2690033212  -0.008486366535 0.02002103  0.00017854  0.0125249 0.0000
  5  -4919.2700933207  -0.001089999521 0.01697771  0.00012422  0.0088951 0.0000
  6  -4919.2705035436  -0.000410222902 0.01641518  0.00012131  0.0042423 0.0000
  7  -4919.2706675807  -0.000164037088 0.01346864  0.00009568  0.0018015 0.0000
  8  -4919.2707264752  -0.000058894529 0.02362484  0.00015454  0.0009890 0.0000
  9  -4919.2707624859  -0.000036010681 0.00251598  0.00001972  0.0010523 0.0000
 10  -4919.2707689533  -0.000006467377 0.00732084  0.00005106  0.0002999 0.0000
 11  -4919.2707751975  -0.000006244243 0.00123055  0.00001201  0.0001254 0.0000
 12  -4919.2707764247  -0.000001227156 0.00028783  0.00000237  0.0001661 0.0000
 13  -4919.2707765892  -0.000000164576 0.00043328  0.00000353  0.0000635 0.0000
 14  -4919.2707766941  -0.000000104895 0.00011577  0.00000106  0.0000154 0.0000
 15  -4919.2707767076  -0.000000013526 0.00005732  0.00000061  0.0000134 0.0000
 16  -4919.2707767117  -0.000000004039 0.00000823  0.00000015  0.0000141 0.0000
 17  -4919.2707767128  -0.000000001129 0.00001278  0.00000016  0.0000036 0.0000
 18  -4919.2707767135  -0.000000000731 0.00000920  0.00000008  0.0000022 0.0000
 19  -4919.2707767137  -0.000000000104 0.00000622  0.00000006  0.0000019 0.0000
                            ***DIIS convergence achieved***

               *****************************************************
               *                     SUCCESS                       *
               *           SCF CONVERGED AFTER  20 CYCLES          *
               *****************************************************


----------------
TOTAL SCF ENERGY
----------------

Total Energy       :        -4919.27077671 Eh         -133860.16315 eV

Components:
Nuclear Repulsion  :          572.32888668 Eh           15573.86077 eV
Electronic Energy  :        -5491.59966339 Eh         -149434.02392 eV
One Electron Energy:        -8011.38107164 Eh         -218000.76190 eV
Two Electron Energy:         2519.78140825 Eh           68566.73798 eV

Virial components:
Potential Energy   :        -9835.09323787 Eh         -267626.49287 eV
Kinetic Energy     :         4915.82246116 Eh          133766.32972 eV
Virial Ratio       :            2.00070147


DFT components:
N(Alpha)           :       44.000000292989 electrons
N(Beta)            :       42.999999992562 electrons
N(Total)           :       87.000000285551 electrons
E(X)               :      -57.433278343856 Eh       
E(C)               :       -2.244122160918 Eh       
E(XC)              :      -59.677400504774 Eh       
DFET-embed. en.    :        0.000000000000 Eh       

---------------
SCF CONVERGENCE
---------------

  Last Energy change         ...   -1.0823e-10  Tolerance :   1.0000e-08
  Last MAX-Density change    ...    7.5108e-06  Tolerance :   1.0000e-07
  Last RMS-Density change    ...    5.8967e-08  Tolerance :   5.0000e-09
  Last DIIS Error            ...    6.2898e-07  Tolerance :   5.0000e-07

             **** THE GBW FILE WAS UPDATED (Cu03N0_D3H.gbw) ****
             **** DENSITY FILE WAS UPDATED (Cu03N0_D3H.scfp) ****
             **** ENERGY FILE WAS UPDATED (Cu03N0_D3H.en.tmp) ****
----------------------
UHF SPIN CONTAMINATION
----------------------

Warning: in a DFT calculation there is little theoretical justification to 
         calculate <S**2> as in Hartree-Fock theory. We will do it anyways
         but you should keep in mind that the values have only limited relevance

Expectation value of <S**2>     :     0.777583
Ideal value S*(S+1) for S=0.5   :     0.750000
Deviation                       :     0.027583

             **** THE GBW FILE WAS UPDATED (Cu03N0_D3H.gbw) ****
             **** DENSITY FILE WAS UPDATED (Cu03N0_D3H.scfp) ****
----------------
ORBITAL ENERGIES
----------------
                 SPIN UP ORBITALS
  NO   OCC          E(Eh)            E(eV) 
   0   1.0000    -326.727168     -8890.6982 
   1   1.0000    -326.727163     -8890.6981 
   2   1.0000    -326.707969     -8890.1758 
   3   1.0000     -40.101070     -1091.2056 
   4   1.0000     -40.101053     -1091.2051 
   5   1.0000     -40.083869     -1090.7375 
   6   1.0000     -35.046147      -953.6541 
   7   1.0000     -35.046140      -953.6540 
   8   1.0000     -35.045850      -953.6461 
   9   1.0000     -35.045846      -953.6459 
  10   1.0000     -35.045845      -953.6459 
  11   1.0000     -35.045835      -953.6457 
  12   1.0000     -35.028318      -953.1690 
  13   1.0000     -35.028271      -953.1677 
  14   1.0000     -35.027364      -953.1430 
  15   1.0000      -4.759845      -129.5220 
  16   1.0000      -4.759415      -129.5103 
  17   1.0000      -4.741351      -129.0187 
  18   1.0000      -3.140518       -85.4578 
  19   1.0000      -3.136773       -85.3559 
  20   1.0000      -3.136689       -85.3536 
  21   1.0000      -3.135984       -85.3345 
  22   1.0000      -3.135710       -85.3270 
  23   1.0000      -3.135385       -85.3182 
  24   1.0000      -3.117367       -84.8279 
  25   1.0000      -3.117231       -84.8242 
  26   1.0000      -3.114861       -84.7597 
  27   1.0000      -0.456230       -12.4147 
  28   1.0000      -0.442693       -12.0463 
  29   1.0000      -0.439945       -11.9715 
  30   1.0000      -0.434452       -11.8220 
  31   1.0000      -0.427198       -11.6246 
  32   1.0000      -0.426388       -11.6026 
  33   1.0000      -0.420751       -11.4492 
  34   1.0000      -0.408206       -11.1079 
  35   1.0000      -0.404938       -11.0189 
  36   1.0000      -0.400726       -10.9043 
  37   1.0000      -0.393864       -10.7176 
  38   1.0000      -0.392830       -10.6894 
  39   1.0000      -0.388463       -10.5706 
  40   1.0000      -0.387702       -10.5499 
  41   1.0000      -0.374395       -10.1878 
  42   1.0000      -0.295499        -8.0409 
  43   1.0000      -0.161428        -4.3927 
  44   0.0000      -0.040212        -1.0942 
  45   0.0000       0.002401         0.0653 
  46   0.0000       0.021166         0.5760 
  47   0.0000       0.042346         1.1523 
  48   0.0000       0.042476         1.1558 
  49   0.0000       0.067609         1.8397 
  50   0.0000       0.068549         1.8653 
  51   0.0000       0.068979         1.8770 
  52   0.0000       0.069639         1.8950 
  53   0.0000       0.105155         2.8614 
  54   0.0000       0.143227         3.8974 
  55   0.0000       0.153052         4.1647 
  56   0.0000       0.171134         4.6568 
  57   0.0000       0.173220         4.7135 
  58   0.0000       0.174526         4.7491 
  59   0.0000       0.218476         5.9450 
  60   0.0000       0.219090         5.9617 
  61   0.0000       0.235125         6.3981 
  62   0.0000       0.237585         6.4650 
  63   0.0000       0.240438         6.5427 
  64   0.0000       0.259668         7.0659 
  65   0.0000       0.261322         7.1109 
  66   0.0000       0.261633         7.1194 
  67   0.0000       0.272024         7.4021 
  68   0.0000       0.275497         7.4967 
  69   0.0000       0.288188         7.8420 
  70   0.0000       0.335077         9.1179 
  71   0.0000       0.335616         9.1326 
  72   0.0000       0.353204         9.6112 
  73   0.0000       0.374685        10.1957 
  74   0.0000       0.393775        10.7152 
  75   0.0000       0.394487        10.7345 
  76   0.0000       0.395854        10.7717 
  77   0.0000       0.400246        10.8913 
  78   0.0000       0.515583        14.0297 
  79   0.0000       0.575623        15.6635 
  80   0.0000       0.578241        15.7347 
  81   0.0000       0.733814        19.9681 
  82   0.0000       0.738976        20.1086 
  83   0.0000       0.791033        21.5251 
  84   0.0000       0.791475        21.5371 
  85   0.0000       0.842235        22.9184 
  86   0.0000       0.851551        23.1719 
  87   0.0000       0.908178        24.7128 
  88   0.0000       0.911512        24.8035 
  89   0.0000       0.920617        25.0513 
  90   0.0000       0.939326        25.5604 
  91   0.0000       0.969170        26.3724 
  92   0.0000       0.973691        26.4955 
  93   0.0000       1.033434        28.1212 
  94   0.0000       1.056572        28.7508 
  95   0.0000       1.084684        29.5158 
  96   0.0000       1.084769        29.5181 
  97   0.0000       1.161722        31.6121 
  98   0.0000       1.184313        32.2268 
  99   0.0000       1.189352        32.3639 
 100   0.0000       1.223398        33.2904 
 101   0.0000       1.231503        33.5109 
 102   0.0000       1.417987        38.5854 
 103   0.0000       1.422957        38.7206 
 104   0.0000       1.432615        38.9834 
 105   0.0000       3.258291        88.6626 
 106   0.0000       3.333163        90.7000 
 107   0.0000       3.343897        90.9921 
 108   0.0000       3.344834        91.0176 
 109   0.0000       3.360722        91.4499 
 110   0.0000       3.370196        91.7077 
 111   0.0000       3.372539        91.7714 
 112   0.0000       3.374113        91.8143 
 113   0.0000       3.409977        92.7902 
 114   0.0000       3.496538        95.1456 
 115   0.0000       3.643143        99.1350 
 116   0.0000       3.660727        99.6134 
 117   0.0000       3.668935        99.8368 
 118   0.0000       3.672990        99.9471 
 119   0.0000       3.677906       100.0809 
 120   0.0000       3.678725       100.1032 
 121   0.0000       3.682397       100.2031 
 122   0.0000       3.682410       100.2035 
 123   0.0000       3.684360       100.2565 
 124   0.0000       3.688221       100.3616 
 125   0.0000       3.692600       100.4808 
 126   0.0000       3.696338       100.5825 
 127   0.0000       3.702196       100.7419 
 128   0.0000       3.703560       100.7790 
 129   0.0000       3.706325       100.8542 
 130   0.0000       3.709718       100.9466 
 131   0.0000       3.712872       101.0324 
 132   0.0000       3.730147       101.5025 
 133   0.0000       3.733895       101.6044 
 134   0.0000       3.737051       101.6903 
 135   0.0000       3.847649       104.6999 
 136   0.0000       3.918162       106.6186 
 137   0.0000       3.927560       106.8743 
 138   0.0000       4.025616       109.5426 
 139   0.0000       4.028364       109.6174 
 140   0.0000       4.034508       109.7845 
 141   0.0000       4.061534       110.5200 
 142   0.0000       4.079369       111.0053 
 143   0.0000       4.092058       111.3506 
 144   0.0000       4.103782       111.6696 
 145   0.0000       4.142401       112.7205 
 146   0.0000       4.155510       113.0772 
 147   0.0000       4.286220       116.6340 
 148   0.0000       4.288957       116.7085 
 149   0.0000       4.307906       117.2241 
 150   0.0000       4.322049       117.6089 
 151   0.0000       4.549915       123.8095 
 152   0.0000       4.557066       124.0041 
 153   0.0000      13.475340       366.6826 
 154   0.0000      13.475466       366.6861 
 155   0.0000      13.475480       366.6865 
 156   0.0000      13.475485       366.6866 
 157   0.0000      13.476011       366.7009 
 158   0.0000      13.476126       366.7040 
 159   0.0000      13.476216       366.7065 
 160   0.0000      13.476223       366.7067 
 161   0.0000      13.476981       366.7273 
 162   0.0000      13.477108       366.7307 
 163   0.0000      13.477330       366.7368 
 164   0.0000      13.477345       366.7372 
 165   0.0000      13.477424       366.7394 
 166   0.0000      13.478072       366.7570 
 167   0.0000      13.478542       366.7698 
 168   0.0000      13.478550       366.7700 
 169   0.0000      13.478598       366.7713 
 170   0.0000      13.478607       366.7715 
 171   0.0000      13.495981       367.2443 
 172   0.0000      13.496826       367.2673 
 173   0.0000      13.497069       367.2739 
 174   0.0000      13.497601       367.2884 
 175   0.0000      13.498649       367.3169 
 176   0.0000      13.498797       367.3209 
 177   0.0000      13.499000       367.3265 
 178   0.0000      13.499254       367.3334 
 179   0.0000      13.499479       367.3395 
 180   0.0000      13.698114       372.7446 
 181   0.0000      13.699127       372.7722 
 182   0.0000      13.699391       372.7794 
 183   0.0000      13.699640       372.7861 
 184   0.0000      13.699890       372.7930 
 185   0.0000      13.701071       372.8251 
 186   0.0000      13.701562       372.8384 
 187   0.0000      13.702945       372.8761 
 188   0.0000      13.703929       372.9029 
 189   0.0000      13.707287       372.9942 
 190   0.0000      13.712032       373.1234 
 191   0.0000      13.713766       373.1705 
 192   0.0000      13.718381       373.2961 
 193   0.0000      13.719413       373.3242 
 194   0.0000      13.720701       373.3592 
 195   0.0000      13.728757       373.5785 
 196   0.0000      13.730315       373.6209 
 197   0.0000      13.730489       373.6256 
 198   0.0000      13.797555       375.4505 
 199   0.0000      13.807281       375.7152 
 200   0.0000      13.812412       375.8549 

                 SPIN DOWN ORBITALS
  NO   OCC          E(Eh)            E(eV) 
   0   1.0000    -326.726933     -8890.6918 
   1   1.0000    -326.726928     -8890.6917 
   2   1.0000    -326.707140     -8890.1533 
   3   1.0000     -40.101174     -1091.2084 
   4   1.0000     -40.101157     -1091.2079 
   5   1.0000     -40.083292     -1090.7218 
   6   1.0000     -35.046164      -953.6546 
   7   1.0000     -35.046152      -953.6543 
   8   1.0000     -35.046106      -953.6530 
   9   1.0000     -35.046100      -953.6529 
  10   1.0000     -35.046017      -953.6506 
  11   1.0000     -35.046010      -953.6504 
  12   1.0000     -35.028482      -953.1734 
  13   1.0000     -35.028115      -953.1635 
  14   1.0000     -35.027785      -953.1545 
  15   1.0000      -4.759765      -129.5198 
  16   1.0000      -4.759338      -129.5082 
  17   1.0000      -4.739177      -128.9596 
  18   1.0000      -3.141002       -85.4710 
  19   1.0000      -3.137981       -85.3888 
  20   1.0000      -3.136664       -85.3530 
  21   1.0000      -3.136055       -85.3364 
  22   1.0000      -3.135742       -85.3279 
  23   1.0000      -3.135143       -85.3116 
  24   1.0000      -3.117967       -84.8442 
  25   1.0000      -3.116230       -84.7969 
  26   1.0000      -3.114654       -84.7540 
  27   1.0000      -0.456803       -12.4302 
  28   1.0000      -0.441739       -12.0203 
  29   1.0000      -0.440760       -11.9937 
  30   1.0000      -0.433032       -11.7834 
  31   1.0000      -0.426401       -11.6030 
  32   1.0000      -0.426286       -11.5998 
  33   1.0000      -0.421261       -11.4631 
  34   1.0000      -0.408579       -11.1180 
  35   1.0000      -0.405451       -11.0329 
  36   1.0000      -0.401912       -10.9366 
  37   1.0000      -0.393326       -10.7029 
  38   1.0000      -0.392426       -10.6784 
  39   1.0000      -0.387627       -10.5479 
  40   1.0000      -0.385470       -10.4892 
  41   1.0000      -0.371082       -10.0977 
  42   1.0000      -0.277964        -7.5638 
  43   0.0000      -0.033198        -0.9034 
  44   0.0000      -0.010657        -0.2900 
  45   0.0000       0.007999         0.2177 
  46   0.0000       0.029978         0.8157 
  47   0.0000       0.055343         1.5060 
  48   0.0000       0.058912         1.6031 
  49   0.0000       0.068135         1.8541 
  50   0.0000       0.071582         1.9479 
  51   0.0000       0.076482         2.0812 
  52   0.0000       0.079686         2.1684 
  53   0.0000       0.106880         2.9083 
  54   0.0000       0.143004         3.8913 
  55   0.0000       0.154398         4.2014 
  56   0.0000       0.175653         4.7798 
  57   0.0000       0.185338         5.0433 
  58   0.0000       0.193982         5.2785 
  59   0.0000       0.219559         5.9745 
  60   0.0000       0.234119         6.3707 
  61   0.0000       0.237070         6.4510 
  62   0.0000       0.247735         6.7412 
  63   0.0000       0.250594         6.8190 
  64   0.0000       0.264283         7.1915 
  65   0.0000       0.266418         7.2496 
  66   0.0000       0.266952         7.2641 
  67   0.0000       0.277077         7.5396 
  68   0.0000       0.284397         7.7388 
  69   0.0000       0.292699         7.9647 
  70   0.0000       0.340149         9.2559 
  71   0.0000       0.341388         9.2896 
  72   0.0000       0.356365         9.6972 
  73   0.0000       0.375869        10.2279 
  74   0.0000       0.393763        10.7148 
  75   0.0000       0.398257        10.8371 
  76   0.0000       0.402953        10.9649 
  77   0.0000       0.404599        11.0097 
  78   0.0000       0.521961        14.2033 
  79   0.0000       0.576253        15.6806 
  80   0.0000       0.585626        15.9357 
  81   0.0000       0.735416        20.0117 
  82   0.0000       0.739203        20.1147 
  83   0.0000       0.796638        21.6776 
  84   0.0000       0.796805        21.6822 
  85   0.0000       0.843200        22.9446 
  86   0.0000       0.857982        23.3469 
  87   0.0000       0.910988        24.7892 
  88   0.0000       0.915790        24.9199 
  89   0.0000       0.931738        25.3539 
  90   0.0000       0.942281        25.6408 
  91   0.0000       0.974289        26.5117 
  92   0.0000       0.977541        26.6002 
  93   0.0000       1.038728        28.2652 
  94   0.0000       1.059321        28.8256 
  95   0.0000       1.090247        29.6671 
  96   0.0000       1.090744        29.6806 
  97   0.0000       1.166947        31.7543 
  98   0.0000       1.188578        32.3428 
  99   0.0000       1.196868        32.5684 
 100   0.0000       1.225438        33.3459 
 101   0.0000       1.236857        33.6566 
 102   0.0000       1.419486        38.6262 
 103   0.0000       1.426519        38.8176 
 104   0.0000       1.439010        39.1575 
 105   0.0000       3.259277        88.6894 
 106   0.0000       3.333931        90.7209 
 107   0.0000       3.346114        91.0524 
 108   0.0000       3.349227        91.1371 
 109   0.0000       3.361108        91.4604 
 110   0.0000       3.371475        91.7425 
 111   0.0000       3.374968        91.8376 
 112   0.0000       3.376798        91.8873 
 113   0.0000       3.410430        92.8025 
 114   0.0000       3.498919        95.2104 
 115   0.0000       3.645121        99.1888 
 116   0.0000       3.660741        99.6138 
 117   0.0000       3.671184        99.8980 
 118   0.0000       3.674888        99.9988 
 119   0.0000       3.678776       100.1046 
 120   0.0000       3.679676       100.1291 
 121   0.0000       3.682888       100.2165 
 122   0.0000       3.683955       100.2455 
 123   0.0000       3.685667       100.2921 
 124   0.0000       3.689314       100.3913 
 125   0.0000       3.693471       100.5045 
 126   0.0000       3.696721       100.5929 
 127   0.0000       3.704368       100.8010 
 128   0.0000       3.705341       100.8275 
 129   0.0000       3.708353       100.9094 
 130   0.0000       3.711385       100.9919 
 131   0.0000       3.714271       101.0705 
 132   0.0000       3.732833       101.5755 
 133   0.0000       3.736463       101.6743 
 134   0.0000       3.741384       101.8082 
 135   0.0000       3.848009       104.7097 
 136   0.0000       3.918801       106.6360 
 137   0.0000       3.928957       106.9124 
 138   0.0000       4.026133       109.5567 
 139   0.0000       4.028948       109.6332 
 140   0.0000       4.035118       109.8012 
 141   0.0000       4.061543       110.5202 
 142   0.0000       4.080176       111.0272 
 143   0.0000       4.094114       111.4065 
 144   0.0000       4.105112       111.7058 
 145   0.0000       4.142826       112.7320 
 146   0.0000       4.157585       113.1336 
 147   0.0000       4.287928       116.6804 
 148   0.0000       4.290655       116.7547 
 149   0.0000       4.310633       117.2983 
 150   0.0000       4.321776       117.6015 
 151   0.0000       4.549498       123.7981 
 152   0.0000       4.558265       124.0367 
 153   0.0000      13.475133       366.6770 
 154   0.0000      13.475190       366.6786 
 155   0.0000      13.475212       366.6791 
 156   0.0000      13.475289       366.6813 
 157   0.0000      13.475723       366.6931 
 158   0.0000      13.475956       366.6994 
 159   0.0000      13.475989       366.7003 
 160   0.0000      13.476007       366.7008 
 161   0.0000      13.476777       366.7218 
 162   0.0000      13.476964       366.7268 
 163   0.0000      13.477116       366.7310 
 164   0.0000      13.477221       366.7338 
 165   0.0000      13.477247       366.7345 
 166   0.0000      13.478053       366.7565 
 167   0.0000      13.478212       366.7608 
 168   0.0000      13.478219       366.7610 
 169   0.0000      13.478258       366.7620 
 170   0.0000      13.478282       366.7627 
 171   0.0000      13.496055       367.2463 
 172   0.0000      13.496885       367.2689 
 173   0.0000      13.496902       367.2694 
 174   0.0000      13.497472       367.2849 
 175   0.0000      13.498352       367.3088 
 176   0.0000      13.498641       367.3167 
 177   0.0000      13.498757       367.3198 
 178   0.0000      13.498915       367.3241 
 179   0.0000      13.499211       367.3322 
 180   0.0000      13.697932       372.7397 
 181   0.0000      13.699147       372.7727 
 182   0.0000      13.699209       372.7744 
 183   0.0000      13.699583       372.7846 
 184   0.0000      13.699679       372.7872 
 185   0.0000      13.700357       372.8057 
 186   0.0000      13.701569       372.8387 
 187   0.0000      13.702579       372.8661 
 188   0.0000      13.703299       372.8857 
 189   0.0000      13.706502       372.9729 
 190   0.0000      13.712070       373.1244 
 191   0.0000      13.713716       373.1692 
 192   0.0000      13.718662       373.3038 
 193   0.0000      13.718755       373.3063 
 194   0.0000      13.721031       373.3682 
 195   0.0000      13.728614       373.5746 
 196   0.0000      13.729897       373.6095 
 197   0.0000      13.730332       373.6213 
 198   0.0000      13.797409       375.4466 
 199   0.0000      13.806736       375.7004 
 200   0.0000      13.812167       375.8482 

                    ********************************
                    * MULLIKEN POPULATION ANALYSIS *
                    ********************************

--------------------------------------------
MULLIKEN ATOMIC CHARGES AND SPIN POPULATIONS
--------------------------------------------
   0 Cu:   -0.117377    0.556112
   1 Cu:    0.058694    0.221940
   2 Cu:    0.058683    0.221947
Sum of atomic charges         :   -0.0000000
Sum of atomic spin populations:    1.0000000

-----------------------------------------------------
MULLIKEN REDUCED ORBITAL CHARGES AND SPIN POPULATIONS
-----------------------------------------------------
CHARGE
  0 Cus       :     7.008748  s :     7.008748
      pz      :     4.006598  p :    12.167020
      px      :     4.003897
      py      :     4.156524
      dz2     :     1.992627  d :     9.941445
      dxz     :     1.997498
      dyz     :     1.992710
      dx2y2   :     1.990304
      dxy     :     1.968306
      f0      :     0.000016  f :     0.000164
      f+1     :     0.000009
      f-1     :     0.000026
      f+2     :     0.000010
      f-2     :     0.000020
      f+3     :     0.000041
      f-3     :     0.000041
      g0      :     0.000000  g :     0.000001
      g+1     :     0.000000
      g-1     :     0.000000
      g+2     :     0.000000
      g-2     :     0.000000
      g+3     :     0.000000
      g-3     :     0.000000
      g+4     :     0.000000
      g-4     :     0.000000
  1 Cus       :     6.737113  s :     6.737113
      pz      :     4.007407  p :    12.238352
      px      :     4.049661
      py      :     4.181284
      dz2     :     1.995218  d :     9.965625
      dxz     :     1.996278
      dyz     :     1.997822
      dx2y2   :     1.985063
      dxy     :     1.991245
      f0      :     0.000020  f :     0.000215
      f+1     :     0.000030
      f-1     :     0.000015
      f+2     :     0.000025
      f-2     :     0.000022
      f+3     :     0.000052
      f-3     :     0.000051
      g0      :     0.000000  g :     0.000001
      g+1     :     0.000000
      g-1     :     0.000000
      g+2     :     0.000000
      g-2     :     0.000000
      g+3     :     0.000000
      g-3     :     0.000000
      g+4     :     0.000000
      g-4     :     0.000000
  2 Cus       :     6.737123  s :     6.737123
      pz      :     4.007407  p :    12.238354
      px      :     4.049662
      py      :     4.181285
      dz2     :     1.995218  d :     9.965625
      dxz     :     1.996278
      dyz     :     1.997822
      dx2y2   :     1.985063
      dxy     :     1.991245
      f0      :     0.000020  f :     0.000215
      f+1     :     0.000030
      f-1     :     0.000015
      f+2     :     0.000025
      f-2     :     0.000022
      f+3     :     0.000052
      f-3     :     0.000051
      g0      :     0.000000  g :     0.000001
      g+1     :     0.000000
      g-1     :     0.000000
      g+2     :     0.000000
      g-2     :     0.000000
      g+3     :     0.000000
      g-3     :     0.000000
      g+4     :     0.000000
      g-4     :     0.000000

SPIN
  0 Cus       :     0.482031  s :     0.482031
      pz      :    -0.000262  p :     0.062978
      px      :     0.000120
      py      :     0.063120
      dz2     :     0.000844  d :     0.011108
      dxz     :     0.000398
      dyz     :     0.000999
      dx2y2   :     0.003196
      dxy     :     0.005671
      f0      :    -0.000001  f :    -0.000005
      f+1     :    -0.000000
      f-1     :    -0.000001
      f+2     :    -0.000000
      f-2     :    -0.000001
      f+3     :    -0.000002
      f-3     :     0.000001
      g0      :     0.000000  g :     0.000000
      g+1     :     0.000000
      g-1     :     0.000000
      g+2     :     0.000000
      g-2     :     0.000000
      g+3     :    -0.000000
      g-3     :    -0.000000
      g+4     :    -0.000000
      g-4     :    -0.000000
  1 Cus       :     0.077214  s :     0.077214
      pz      :    -0.000333  p :     0.143197
      px      :     0.004138
      py      :     0.139392
      dz2     :     0.000625  d :     0.001531
      dxz     :    -0.000133
      dyz     :    -0.000100
      dx2y2   :    -0.000632
      dxy     :     0.001771
      f0      :    -0.000000  f :    -0.000002
      f+1     :    -0.000000
      f-1     :     0.000000
      f+2     :    -0.000000
      f-2     :    -0.000000
      f+3     :     0.000001
      f-3     :    -0.000001
      g0      :    -0.000000  g :     0.000000
      g+1     :    -0.000000
      g-1     :     0.000000
      g+2     :     0.000000
      g-2     :    -0.000000
      g+3     :     0.000000
      g-3     :    -0.000000
      g+4     :     0.000000
      g-4     :     0.000000
  2 Cus       :     0.077221  s :     0.077221
      pz      :    -0.000333  p :     0.143197
      px      :     0.004138
      py      :     0.139392
      dz2     :     0.000625  d :     0.001531
      dxz     :    -0.000133
      dyz     :    -0.000100
      dx2y2   :    -0.000632
      dxy     :     0.001771
      f0      :    -0.000000  f :    -0.000002
      f+1     :    -0.000000
      f-1     :     0.000000
      f+2     :    -0.000000
      f-2     :    -0.000000
      f+3     :     0.000001
      f-3     :    -0.000001
      g0      :    -0.000000  g :     0.000000
      g+1     :    -0.000000
      g-1     :     0.000000
      g+2     :     0.000000
      g-2     :    -0.000000
      g+3     :     0.000000
      g-3     :    -0.000000
      g+4     :     0.000000
      g-4     :     0.000000


                     *******************************
                     * LOEWDIN POPULATION ANALYSIS *
                     *******************************

-------------------------------------------
LOEWDIN ATOMIC CHARGES AND SPIN POPULATIONS
-------------------------------------------
   0 Cu:   -0.030012    0.383901
   1 Cu:    0.015006    0.308049
   2 Cu:    0.015006    0.308050

----------------------------------------------------
LOEWDIN REDUCED ORBITAL CHARGES AND SPIN POPULATIONS
----------------------------------------------------
CHARGE
  0 Cus       :     6.647457  s :     6.647457
      pz      :     4.007332  p :    12.379627
      px      :     4.016825
      py      :     4.355471
      dz2     :     2.013378  d :    10.002473
      dxz     :     1.997491
      dyz     :     1.991780
      dx2y2   :     2.008058
      dxy     :     1.991765
      f0      :     0.000038  f :     0.000453
      f+1     :     0.000028
      f-1     :     0.000073
      f+2     :     0.000020
      f-2     :     0.000052
      f+3     :     0.000150
      f-3     :     0.000092
      g0      :     0.000000  g :     0.000002
      g+1     :     0.000000
      g-1     :     0.000000
      g+2     :     0.000000
      g-2     :     0.000000
      g+3     :     0.000000
      g-3     :     0.000000
      g+4     :     0.000000
      g-4     :     0.000000
  1 Cus       :     6.524976  s :     6.524976
      pz      :     4.008409  p :    12.425579
      px      :     4.122983
      py      :     4.294187
      dz2     :     2.012143  d :    10.033898
      dxz     :     1.995680
      dyz     :     1.997418
      dx2y2   :     2.013475
      dxy     :     2.015182
      f0      :     0.000044  f :     0.000538
      f+1     :     0.000070
      f-1     :     0.000044
      f+2     :     0.000052
      f-2     :     0.000038
      f+3     :     0.000184
      f-3     :     0.000104
      g0      :     0.000000  g :     0.000002
      g+1     :     0.000000
      g-1     :     0.000000
      g+2     :     0.000000
      g-2     :     0.000000
      g+3     :     0.000000
      g-3     :     0.000000
      g+4     :     0.000000
      g-4     :     0.000000
  2 Cus       :     6.524978  s :     6.524978
      pz      :     4.008409  p :    12.425579
      px      :     4.122983
      py      :     4.294187
      dz2     :     2.012143  d :    10.033898
      dxz     :     1.995680
      dyz     :     1.997418
      dx2y2   :     2.013474
      dxy     :     2.015182
      f0      :     0.000044  f :     0.000538
      f+1     :     0.000070
      f-1     :     0.000044
      f+2     :     0.000052
      f-2     :     0.000038
      f+3     :     0.000184
      f-3     :     0.000104
      g0      :     0.000000  g :     0.000002
      g+1     :     0.000000
      g-1     :     0.000000
      g+2     :     0.000000
      g-2     :     0.000000
      g+3     :     0.000000
      g-3     :     0.000000
      g+4     :     0.000000
      g-4     :     0.000000

SPIN
  0 Cus       :     0.207438  s :     0.207438
      pz      :     0.000007  p :     0.156819
      px      :    -0.000524
      py      :     0.157337
      dz2     :     0.003532  d :     0.019639
      dxz     :    -0.000118
      dyz     :     0.000793
      dx2y2   :     0.011597
      dxy     :     0.003835
      f0      :    -0.000000  f :     0.000005
      f+1     :     0.000000
      f-1     :     0.000004
      f+2     :     0.000000
      f-2     :    -0.000000
      f+3     :     0.000002
      f-3     :     0.000000
      g0      :     0.000000  g :     0.000000
      g+1     :     0.000000
      g-1     :     0.000000
      g+2     :     0.000000
      g-2     :    -0.000000
      g+3     :    -0.000000
      g-3     :     0.000000
      g+4     :    -0.000000
      g-4     :     0.000000
  1 Cus       :     0.049098  s :     0.049098
      pz      :    -0.000121  p :     0.233411
      px      :     0.004438
      py      :     0.229093
      dz2     :     0.003334  d :     0.025525
      dxz     :    -0.000233
      dyz     :     0.000014
      dx2y2   :     0.009634
      dxy     :     0.012777
      f0      :    -0.000000  f :     0.000016
      f+1     :    -0.000000
      f-1     :     0.000005
      f+2     :    -0.000000
      f-2     :    -0.000000
      f+3     :     0.000013
      f-3     :    -0.000001
      g0      :     0.000000  g :     0.000000
      g+1     :     0.000000
      g-1     :     0.000000
      g+2     :     0.000000
      g-2     :     0.000000
      g+3     :     0.000000
      g-3     :     0.000000
      g+4     :     0.000000
      g-4     :     0.000000
  2 Cus       :     0.049100  s :     0.049100
      pz      :    -0.000121  p :     0.233409
      px      :     0.004438
      py      :     0.229092
      dz2     :     0.003334  d :     0.025525
      dxz     :    -0.000233
      dyz     :     0.000014
      dx2y2   :     0.009633
      dxy     :     0.012777
      f0      :    -0.000000  f :     0.000016
      f+1     :    -0.000000
      f-1     :     0.000005
      f+2     :    -0.000000
      f-2     :    -0.000000
      f+3     :     0.000013
      f-3     :    -0.000001
      g0      :     0.000000  g :     0.000000
      g+1     :     0.000000
      g-1     :     0.000000
      g+2     :     0.000000
      g-2     :     0.000000
      g+3     :     0.000000
      g-3     :     0.000000
      g+4     :     0.000000
      g-4     :     0.000000


                      *****************************
                      * MAYER POPULATION ANALYSIS *
                      *****************************

  NA   - Mulliken gross atomic population
  ZA   - Total nuclear charge
  QA   - Mulliken gross atomic charge
  VA   - Mayer's total valence
  BVA  - Mayer's bonded valence
  FA   - Mayer's free valence

  ATOM       NA         ZA         QA         VA         BVA        FA
  0 Cu    29.1174    29.0000    -0.1174     1.3424     0.9779     0.3645
  1 Cu    28.9413    29.0000     0.0587     1.3312     1.2238     0.1074
  2 Cu    28.9413    29.0000     0.0587     1.3312     1.2238     0.1074

  Mayer bond orders larger than 0.100000
B(  0-Cu,  1-Cu) :   0.4889 B(  0-Cu,  2-Cu) :   0.4889 B(  1-Cu,  2-Cu) :   0.7349 


-------
TIMINGS
-------

Total SCF time: 0 days 0 hours 0 min 12 sec 

Total time                  ....      12.222 sec
Sum of individual times     ....      12.021 sec  ( 98.4%)

Fock matrix formation       ....      11.230 sec  ( 91.9%)
  XC integration            ....       1.017 sec  (  9.1% of F)
    Basis function eval.    ....       0.082 sec  (  8.1% of XC)
    Density eval.           ....       0.101 sec  (  9.9% of XC)
    XC-Functional eval.     ....       0.035 sec  (  3.4% of XC)
    XC-Potential eval.      ....       0.192 sec  ( 18.9% of XC)
Diagonalization             ....       0.243 sec  (  2.0%)
Density matrix formation    ....       0.029 sec  (  0.2%)
Population analysis         ....       0.012 sec  (  0.1%)
Initial guess               ....       0.121 sec  (  1.0%)
Orbital Transformation      ....       0.000 sec  (  0.0%)
Orbital Orthonormalization  ....       0.000 sec  (  0.0%)
DIIS solution               ....       0.087 sec  (  0.7%)
Grid generation             ....       0.299 sec  (  2.4%)


           ************************************************************
           *        Program running with 24 parallel MPI-processes    *
           *              working on a common directory               *
           ************************************************************

------------------------------------------------------------------------------
                                ORCA  MP2 
------------------------------------------------------------------------------

Freezing NCore=30 chemical core electrons

----------------------
RI-MP2 ENERGY+GRADIENT
----------------------
Dimension of the basis                    ...  201
Memory devoted to MP2                     ... 5000 MB   
Data format for buffers                   ... DOUBLE
Compression type for matrix containers    ... UNCOMPRESSED
Scaling for aa/bb pairs                   ...   4.000e-01
Scaling for ab pairs                      ...   4.700e-01
Overall scaling of the MP2 energy         ...   1.000e+00
Calculating two index integrals           ... done (    0.014 sec)
Cholesky decomposition of the V-matrix    ... done
Cholesky decomposition of V**-1           ... done (    0.020 sec)

-----------------
RI-TRANSFORMATION (AUX index driven)
-----------------

Dimension of the orbital-basis         ... 201
Dimension of the aux-basis             ... 675
Transformation of internal MOs         ...    0-  43
Transformation of internal/external MOs...    0-  43 to   44- 200
Number Format for Storage              ... Double (8 Byte)
Integral mode                          ... Direct

First Phase: integral generation and transformation of MO indices
  Aux angular momentum 0               ... done (    0.002 sec)
  Aux angular momentum 1               ... done (    0.004 sec)
  Aux angular momentum 2               ... done (    0.007 sec)
  Aux angular momentum 3               ... done (    0.005 sec)
  Aux angular momentum 4               ... done (    0.007 sec)
  Aux angular momentum 5               ... done (    0.011 sec)
  Aux angular momentum 6               ... done (    0.015 sec)
Closing buffer VIJ ( 0.00 GB; CompressionRatio= 1.00)
Closing buffer VIA ( 0.03 GB; CompressionRatio= 1.00)
  Phase 1 completed in     0.125 sec
Second Phase: sorting and transformation of aux index

IJ-Transformation
Memory available                       ... 4987 MB 
Max. # MO pairs treated in a batch     ... 2    
# of internal orbitals                 ... 44
# batches for internal orbitals        ... 1
Closing buffer IJV ( 0.00 GB; CompressionRatio= 1.00)
(ij|v) transformation done in     0.006 sec

IA-Transformation
Memory available                       ... 4987 MB 
Max. # MO pairs treated in a batch     ... 2    
# of internal orbitals                 ... 44
# batches for internal orbitals        ... 1
Closing buffer IAV ( 0.00 GB; CompressionRatio= 1.00)
(ia|v) transformation done in     0.022 sec

  Phase 2 completed in     0.075 sec
RI-Integral transformation completed in     0.202 sec

-----------------
RI-TRANSFORMATION (AUX index driven)
-----------------

Dimension of the orbital-basis         ... 201
Dimension of the aux-basis             ... 675
Transformation of internal MOs         ...    0-  42
Transformation of internal/external MOs...    0-  42 to   43- 200
Number Format for Storage              ... Double (8 Byte)
Integral mode                          ... Direct

First Phase: integral generation and transformation of MO indices
  Aux angular momentum 0               ... done (    0.002 sec)
  Aux angular momentum 1               ... done (    0.004 sec)
  Aux angular momentum 2               ... done (    0.007 sec)
  Aux angular momentum 3               ... done (    0.005 sec)
  Aux angular momentum 4               ... done (    0.007 sec)
  Aux angular momentum 5               ... done (    0.011 sec)
  Aux angular momentum 6               ... done (    0.015 sec)
Closing buffer VIJ ( 0.00 GB; CompressionRatio= 1.00)
Closing buffer VIA ( 0.03 GB; CompressionRatio= 1.00)
  Phase 1 completed in     0.137 sec
Second Phase: sorting and transformation of aux index

IJ-Transformation
Memory available                       ... 4987 MB 
Max. # MO pairs treated in a batch     ... 2    
# of internal orbitals                 ... 43
# batches for internal orbitals        ... 1
Closing buffer IJV ( 0.00 GB; CompressionRatio= 1.00)
(ij|v) transformation done in     0.008 sec

IA-Transformation
Memory available                       ... 4987 MB 
Max. # MO pairs treated in a batch     ... 2    
# of internal orbitals                 ... 43
# batches for internal orbitals        ... 1
Closing buffer IAV ( 0.00 GB; CompressionRatio= 1.00)
(ia|v) transformation done in     0.021 sec

  Phase 2 completed in     0.076 sec
RI-Integral transformation completed in     0.215 sec
Opening buffers                              ... done
Frozen core precalculation                   ... done

Starting loop over batches of integrals:

Operator 0  - window                       ... ( 15- 43)x( 44-200)
Operator 0  - Memory available             ...  5000 MB
Operator 0  - Memory needed per MO         ...   1.6 MB
Operator 0  - Number of orbitals per batch ... 2
Operator 0  - Number of batches            ... 1

OPERATOR  0   PASS   0:  MOs    15 ...   16 +   17 ...   18 +   19 ...   20 +   21 ...   22
                            +   23 ...   24 +   25 ...   26 +   27 ...   28 +   29 ...   30
                            +   31 ...   32 +   33 ...   34 +   35 ...   36 +   37 ...   38
                            +   39 ...   40 +   41 ...   42 +   43 ...   43
  Reading integrals       ... ok
Closing buffer GIPV ( 0.00 GB; CompressionRatio= 1.00)

Operator 1  - window                       ... ( 15- 42)x( 43-200)
Operator 1  - Memory available             ...  5000 MB
Operator 1  - Memory needed per MO         ...   1.6 MB
Operator 1  - Number of orbitals per batch ... 2
Operator 1  - Number of batches            ... 1

OPERATOR  1   PASS   0:  MOs    15 ...   16 +   17 ...   18 +   19 ...   20 +   21 ...   22
                            +   23 ...   24 +   25 ...   26 +   27 ...   28 +   29 ...   30
                            +   31 ...   32 +   33 ...   34 +   35 ...   36 +   37 ...   38
                            +   39 ...   40 +   41 ...   42
  Reading integrals       ... ok
Closing buffer GIPV ( 0.00 GB; CompressionRatio= 1.00)
Time spent in pair loops =     1.592 sec
Deleting buffer (Ka|jb)[aa] ...done
Deleting buffer (Ka|jb)[ab] ...done
Deleting buffer (Ka|jb)[ba] ...done
Deleting buffer (Ka|jb)[bb] ...done

Spin-scaled correlation energy components}
 E2 and T2 for alpha/alpha pairs :     -0.201003597 Eh      0.000000000
 E2 and T2 for beta/beta   pairs :     -0.195021452 Eh      0.000000000
 E2 and T2 for alpha/beta  pairs :     -0.876447598 Eh      0.000000000


-----------------------------------------------
 RI-MP2 CORRELATION ENERGY:     -1.272472647 Eh
-----------------------------------------------


---------------------
MP2 DENSITY FORMATION
---------------------

Completing the external part of the density      ... done
Storing the unrelaxed density                    ... done

Calculating the xc-kernel                        ... done
Calculating G(D)                                 ... done
Completing the Lagrangian                        ... done
Solving the Z-vector equations                   ... 

------------------------------------------------------------------------------
                           ORCA CP-SCF CALCULATION
------------------------------------------------------------------------------

Input orbitals are from        ... Cu03N0_D3H.gbw
Input Perturbation             ... Cu03N0_D3H.pin.tmp
Wavefunction output            ... Cu03N0_D3H.pout.tmp
Perturbation mode              ... Real perturbation (singlet)
Solver                         ... POPLE
Max. number of iterations      ... 128
Convergence tolerance          ... 1.000e-08
Integral handling              ... Direct
Number of perturbations        ... 1
Number of operators            ... 2
Orbital ranges used for CP-SCF:
 Operator 0:  Orbitals   0... 43  to  44...200
 Operator 1:  Orbitals   0... 42  to  43...200
DFT calculation                         ... on
Exchange functional (SCF)               ... B88
Exchange functional (CP-SCF)            ... B88
   X-Alpha parameter    XAlpha (SCF)    ...  0.666667
   X-Alpha parameter    XAlpha (CP-SCF) ...  0.666667
   Becke's b parameter  XBeta (SCF)     ...  0.004200
   Becke's b parameter  XBeta (CP-SCF)  ...  0.004200
Correlation functional (SCF)            ... LYP
Correlation functional (CP-SCF)         ... LYP
 LDA part of GGA corr.  LDAOpt (SCF)    ... VWN-5
 LDA part of GGA corr.  LDAOpt (CP-SCF) ... VWN-5
Hybrid DFT                              ... on
   Exchange mixing (SCF)                ...  0.710
   Exchange mixing (CP-SCF)             ...  0.710
   GGA exch. scaling(SCF)               ...  0.290
   GGA exch. scaling (CP-SCF)           ...  0.290
   GGA corr. scaling (SCF)              ...  0.540
   GGA corr. scaling (CP-SCF)           ...  0.540
Variables per vector in CP-SCF ... 13702
Number of vectors sought       ... 1
Recalculating density on grid  ... done
Calculating the xc-kernel      ... done
     CP-SCF ITERATION   0: 
     CP-SCF ITERATION   1:      0.002147222124
     CP-SCF ITERATION   2:      0.000298269878
     CP-SCF ITERATION   3:      0.000185183986
     CP-SCF ITERATION   4:      0.000009883250
     CP-SCF ITERATION   5:      0.000001422525
     CP-SCF ITERATION   6:      0.000000242476
     CP-SCF ITERATION   7:      0.000000035052
     CP-SCF ITERATION   8:      0.000000005427
done
Finalizing the relaxed density                   ... done
Transforming P to the AO basis                   ... done
Storing the relaxed density                      ... done

------------------------------------
ENERGY WEIGHTED DENSITY FINALIZATION
------------------------------------

Gathering the parts of the W-matrix              ... done
Forming the Z-density                            ... done
Transforming Z to the AO basis                   ... done
Calculating G(Z)                                 ... done
Finalizing the W-matrix                          ... done
Transforming W to the AO basis and storing       ... done
Entering the RIJONX and RIJCOSX sections
Starting the three-index derivative integrals:
Operator 0  - Memory available             ...  5000 MB
Operator 0  - Memory needed per MO         ...   2.1 MB
Operator 0  - Number of orbitals per batch ... 2
Operator 0  - Number of batches            ... 1

OPERATOR  0   PASS   0:  MOs    15 ...   16 +   17 ...   18 +   19 ...   20 +   21 ...   22
                            +   23 ...   24 +   25 ...   26 +   27 ...   28 +   29 ...   30
                            +   31 ...   32 +   33 ...   34 +   35 ...   36 +   37 ...   38
                            +   39 ...   40 +   41 ...   42 +   43 ...   43
Operator 1  - Memory available             ...  5000 MB
Operator 1  - Memory needed per MO         ...   2.1 MB
Operator 1  - Number of orbitals per batch ... 2
Operator 1  - Number of batches            ... 1

OPERATOR  1   PASS   0:  MOs    15 ...   16 +   17 ...   18 +   19 ...   20 +   21 ...   22
                            +   23 ...   24 +   25 ...   26 +   27 ...   28 +   29 ...   30
                            +   31 ...   32 +   33 ...   34 +   35 ...   36 +   37 ...   38
                            +   39 ...   40 +   41 ...   42

----------------------------------
MP2 DERIVATIVE INTEGRAL GENERATION
----------------------------------


Input Correlated Electron Density   ... Cu03N0_D3H.pmp2re
Input Energy Weighted Density       ... Cu03N0_D3H.wmp2.tmp
Input SCF Electron Density          ... Cu03N0_D3H.scfp

One-Electron Terms    ...
                        ... One-Electron Terms done
Prescreening matrices              ... done
Exchange-correlation gradient    ... done
Dispersion correction            ... done

                *********************************************
                * UNRELAXED MP2 DENSITY POPULATION ANALYSIS *
                *********************************************

------------------------------------------------------------------------------
                           ORCA POPULATION ANALYSIS
------------------------------------------------------------------------------
Input electron density              ... Cu03N0_D3H.pmp2ur
Input spin density                  ... Cu03N0_D3H.rmp2ur
BaseName (.gbw .S,...)              ... Cu03N0_D3H

                    ********************************
                    * MULLIKEN POPULATION ANALYSIS *
                    ********************************

------------------------------------------
MULLIKEN ATOMIC CHARGES AND SPIN DENSITIES
------------------------------------------
   0 Cu:   -0.113958    0.554163
   1 Cu:    0.056985    0.222915
   2 Cu:    0.056973    0.222922
Sum of atomic charges       :   -0.0000000
Sum of atomic spin densities:    1.0000000

---------------------------------------------------
MULLIKEN REDUCED ORBITAL CHARGES AND SPIN DENSITIES
---------------------------------------------------
CHARGE
  0 Cus       :     6.999599  s :     6.999599
      pz      :     4.014257  p :    12.184446
      px      :     4.011537
      py      :     4.158652
      dz2     :     1.987086  d :     9.911553
      dxz     :     1.992617
      dyz     :     1.987607
      dx2y2   :     1.984352
      dxy     :     1.959891
      f0      :     0.002415  f :     0.016999
      f+1     :     0.002406
      f-1     :     0.002426
      f+2     :     0.002411
      f-2     :     0.002425
      f+3     :     0.002457
      f-3     :     0.002458
      g0      :     0.000151  g :     0.001360
      g+1     :     0.000151
      g-1     :     0.000151
      g+2     :     0.000151
      g-2     :     0.000151
      g+3     :     0.000151
      g-3     :     0.000151
      g+4     :     0.000151
      g-4     :     0.000151
  1 Cus       :     6.737003  s :     6.737003
      pz      :     4.013544  p :    12.248055
      px      :     4.049962
      py      :     4.184549
      dz2     :     1.989987  d :     9.939839
      dxz     :     1.991768
      dyz     :     1.993474
      dx2y2   :     1.978817
      dxy     :     1.985791
      f0      :     0.002379  f :     0.016761
      f+1     :     0.002390
      f-1     :     0.002371
      f+2     :     0.002388
      f-2     :     0.002382
      f+3     :     0.002425
      f-3     :     0.002426
      g0      :     0.000151  g :     0.001358
      g+1     :     0.000151
      g-1     :     0.000151
      g+2     :     0.000151
      g-2     :     0.000151
      g+3     :     0.000151
      g-3     :     0.000151
      g+4     :     0.000151
      g-4     :     0.000151
  2 Cus       :     6.737013  s :     6.737013
      pz      :     4.013544  p :    12.248057
      px      :     4.049963
      py      :     4.184549
      dz2     :     1.989987  d :     9.939838
      dxz     :     1.991768
      dyz     :     1.993474
      dx2y2   :     1.978817
      dxy     :     1.985791
      f0      :     0.002379  f :     0.016761
      f+1     :     0.002390
      f-1     :     0.002371
      f+2     :     0.002388
      f-2     :     0.002382
      f+3     :     0.002425
      f-3     :     0.002426
      g0      :     0.000151  g :     0.001358
      g+1     :     0.000151
      g-1     :     0.000151
      g+2     :     0.000151
      g-2     :     0.000151
      g+3     :     0.000151
      g-3     :     0.000151
      g+4     :     0.000151
      g-4     :     0.000151

SPIN
  0 Cus       :     0.472649  s :     0.472649
      pz      :     0.000510  p :     0.068050
      px      :     0.001596
      py      :     0.065945
      dz2     :     0.001274  d :     0.013572
      dxz     :     0.000731
      dyz     :     0.001300
      dx2y2   :     0.003825
      dxy     :     0.006442
      f0      :    -0.000015  f :    -0.000105
      f+1     :    -0.000016
      f-1     :    -0.000016
      f+2     :    -0.000015
      f-2     :    -0.000015
      f+3     :    -0.000016
      f-3     :    -0.000012
      g0      :    -0.000000  g :    -0.000003
      g+1     :    -0.000000
      g-1     :    -0.000000
      g+2     :    -0.000000
      g-2     :    -0.000000
      g+3     :    -0.000000
      g-3     :    -0.000000
      g+4     :    -0.000000
      g-4     :    -0.000000
  1 Cus       :     0.076911  s :     0.076911
      pz      :    -0.000316  p :     0.143424
      px      :     0.004085
      py      :     0.139655
      dz2     :     0.000720  d :     0.002611
      dxz     :    -0.000087
      dyz     :     0.000124
      dx2y2   :    -0.000414
      dxy     :     0.002268
      f0      :    -0.000004  f :    -0.000030
      f+1     :    -0.000004
      f-1     :    -0.000004
      f+2     :    -0.000005
      f-2     :    -0.000004
      f+3     :    -0.000004
      f-3     :    -0.000005
      g0      :    -0.000000  g :    -0.000002
      g+1     :    -0.000000
      g-1     :    -0.000000
      g+2     :    -0.000000
      g-2     :    -0.000000
      g+3     :    -0.000000
      g-3     :    -0.000000
      g+4     :    -0.000000
      g-4     :    -0.000000
  2 Cus       :     0.076918  s :     0.076918
      pz      :    -0.000316  p :     0.143424
      px      :     0.004085
      py      :     0.139655
      dz2     :     0.000720  d :     0.002612
      dxz     :    -0.000087
      dyz     :     0.000124
      dx2y2   :    -0.000414
      dxy     :     0.002269
      f0      :    -0.000004  f :    -0.000030
      f+1     :    -0.000004
      f-1     :    -0.000004
      f+2     :    -0.000005
      f-2     :    -0.000004
      f+3     :    -0.000004
      f-3     :    -0.000005
      g0      :    -0.000000  g :    -0.000002
      g+1     :    -0.000000
      g-1     :    -0.000000
      g+2     :    -0.000000
      g-2     :    -0.000000
      g+3     :    -0.000000
      g-3     :    -0.000000
      g+4     :    -0.000000
      g-4     :    -0.000000


                     *******************************
                     * LOEWDIN POPULATION ANALYSIS *
                     *******************************

-----------------------------------------
LOEWDIN ATOMIC CHARGES AND SPIN DENSITIES
-----------------------------------------
   0 Cu:   -0.029294    0.385748
   1 Cu:    0.014647    0.307126
   2 Cu:    0.014647    0.307126

--------------------------------------------------
LOEWDIN REDUCED ORBITAL CHARGES AND SPIN DENSITIES
--------------------------------------------------
CHARGE
  0 Cus       :     6.638389  s :     6.638389
      pz      :     4.014357  p :    12.396272
      px      :     4.025967
      py      :     4.355947
      dz2     :     2.008206  d :     9.975886
      dxz     :     1.992652
      dyz     :     1.986905
      dx2y2   :     2.002417
      dxy     :     1.985707
      f0      :     0.002442  f :     0.017386
      f+1     :     0.002434
      f-1     :     0.002498
      f+2     :     0.002422
      f-2     :     0.002461
      f+3     :     0.002613
      f-3     :     0.002516
      g0      :     0.000151  g :     0.001361
      g+1     :     0.000151
      g-1     :     0.000151
      g+2     :     0.000151
      g-2     :     0.000151
      g+3     :     0.000151
      g-3     :     0.000151
      g+4     :     0.000151
      g-4     :     0.000152
  1 Cus       :     6.518870  s :     6.518870
      pz      :     4.014349  p :    12.436859
      px      :     4.126197
      py      :     4.296313
      dz2     :     2.007498  d :    10.011088
      dxz     :     1.991273
      dyz     :     1.993331
      dx2y2   :     2.008667
      dxy     :     2.010320
      f0      :     0.002408  f :     0.017177
      f+1     :     0.002450
      f-1     :     0.002411
      f+2     :     0.002420
      f-2     :     0.002401
      f+3     :     0.002600
      f-3     :     0.002487
      g0      :     0.000151  g :     0.001359
      g+1     :     0.000151
      g-1     :     0.000151
      g+2     :     0.000151
      g-2     :     0.000151
      g+3     :     0.000151
      g-3     :     0.000151
      g+4     :     0.000152
      g-4     :     0.000151
  2 Cus       :     6.518872  s :     6.518872
      pz      :     4.014349  p :    12.436858
      px      :     4.126197
      py      :     4.296312
      dz2     :     2.007498  d :    10.011087
      dxz     :     1.991273
      dyz     :     1.993331
      dx2y2   :     2.008666
      dxy     :     2.010320
      f0      :     0.002408  f :     0.017177
      f+1     :     0.002450
      f-1     :     0.002411
      f+2     :     0.002420
      f-2     :     0.002401
      f+3     :     0.002600
      f-3     :     0.002487
      g0      :     0.000151  g :     0.001359
      g+1     :     0.000151
      g-1     :     0.000151
      g+2     :     0.000151
      g-2     :     0.000151
      g+3     :     0.000151
      g-3     :     0.000151
      g+4     :     0.000152
      g-4     :     0.000151

SPIN
  0 Cus       :     0.205275  s :     0.205275
      pz      :     0.000578  p :     0.158885
      px      :     0.000117
      py      :     0.158190
      dz2     :     0.003826  d :     0.021690
      dxz     :     0.000160
      dyz     :     0.001211
      dx2y2   :     0.011939
      dxy     :     0.004553
      f0      :    -0.000015  f :    -0.000098
      f+1     :    -0.000015
      f-1     :    -0.000011
      f+2     :    -0.000015
      f-2     :    -0.000015
      f+3     :    -0.000014
      f-3     :    -0.000013
      g0      :    -0.000000  g :    -0.000003
      g+1     :    -0.000001
      g-1     :    -0.000000
      g+2     :    -0.000000
      g-2     :    -0.000000
      g+3     :    -0.000000
      g-3     :    -0.000000
      g+4     :    -0.000000
      g-4     :    -0.000000
  1 Cus       :     0.049719  s :     0.049719
      pz      :    -0.000125  p :     0.231062
      px      :     0.004664
      py      :     0.226523
      dz2     :     0.003486  d :     0.026359
      dxz     :    -0.000216
      dyz     :     0.000357
      dx2y2   :     0.009749
      dxy     :     0.012983
      f0      :    -0.000004  f :    -0.000012
      f+1     :    -0.000004
      f-1     :     0.000000
      f+2     :    -0.000004
      f-2     :    -0.000004
[...]
      f+2     :    -0.000004
      f-2     :    -0.000004
      f+3     :     0.000014
      f-3     :    -0.000004
      g0      :    -0.000000  g :    -0.000001
      g+1     :    -0.000000
      g-1     :    -0.000000
      g+2     :    -0.000000
      g-2     :    -0.000000
      g+3     :    -0.000000
      g-3     :    -0.000000
      g+4     :    -0.000000
      g-4     :    -0.000000
  2 Cus       :     0.048631  s :     0.048631
      pz      :     0.000038  p :     0.207175
      px      :     0.005240
      py      :     0.201897
      dz2     :     0.003476  d :     0.034424
      dxz     :    -0.000343
      dyz     :     0.000160
      dx2y2   :     0.015844
      dxy     :     0.015288
      f0      :    -0.000004  f :    -0.000005
      f+1     :    -0.000005
      f-1     :     0.000002
      f+2     :    -0.000004
      f-2     :    -0.000004
      f+3     :     0.000014
      f-3     :    -0.000004
      g0      :    -0.000000  g :    -0.000001
      g+1     :    -0.000000
      g-1     :    -0.000000
      g+2     :    -0.000000
      g-2     :    -0.000000
      g+3     :    -0.000000
      g-3     :    -0.000000
      g+4     :    -0.000000
      g-4     :    -0.000000


                      *****************************
                      * MAYER POPULATION ANALYSIS *
                      *****************************

  NA   - Mulliken gross atomic population
  ZA   - Total nuclear charge
  QA   - Mulliken gross atomic charge
  VA   - Mayer's total valence
  BVA  - Mayer's bonded valence
  FA   - Mayer's free valence

  ATOM       NA         ZA         QA         VA         BVA        FA
  0 Cu    29.1046    29.0000    -0.1046     1.7194     0.7222     0.9973
  1 Cu    28.9477    29.0000     0.0523     1.7960     1.1397     0.6563
  2 Cu    28.9477    29.0000     0.0523     1.7960     1.1397     0.6563

  Mayer bond orders larger than 0.100000
B(  0-Cu,  1-Cu) :   0.3611 B(  0-Cu,  2-Cu) :   0.3611 B(  1-Cu,  2-Cu) :   0.7787 



-------
TIMINGS
-------

Total time                :   26.139 sec
Integral trafo            :    0.442 sec (  1.7%)
FC preparation            :    0.125 sec (  0.5%)
I/O of integrals          :    0.007 sec (  0.0%)
K(i,j) Operators          :    0.162 sec (  0.6%)
T(i,j) pair energies      :    0.020 sec (  0.1%)
V-calculation             :    0.012 sec (  0.0%)
V**(-1/2)                 :    0.020 sec (  0.1%)
Gamma(ia|P)               :    0.111 sec (  0.4%)
Gamma-Trafo               :    0.028 sec (  0.1%)
D(virtual)                :    0.015 sec (  0.1%)
D(internal)               :    0.231 sec (  0.9%)
W(virtual)                :    0.014 sec (  0.1%)
W(internal)               :    0.144 sec (  0.6%)
L(virtual)                :    0.725 sec (  2.8%)
L(internal)               :    0.007 sec (  0.0%)
G(D)                      :    2.206 sec (  8.4%)
G(Z)                      :    2.212 sec (  8.5%)
Z-Vector Solution         :   10.204 sec ( 39.0%)
Z-Vector Solution         :   10.204 sec ( 39.0%)
3-Index Derivative 
+ Separable RIJ part      :    4.234 sec ( 16.2%)
2-Index Derivative 
+ Separable RIJ part      :    0.012 sec (  0.0%)
Separable Gradient (X)    :    4.410 sec ( 16.9%)


---------------------------------------
MP2 TOTAL ENERGY:    -4920.545340782 Eh
---------------------------------------

-----------------------------------
NORM OF THE MP2 GRADIENT:  0.000076
-----------------------------------


-------------------------------------------------------------------------------
                          DFT DISPERSION CORRECTION                            
                                                                               
                              DFTD3 V3.1  Rev 1                                
                          USING Becke-Johnson damping                          
-------------------------------------------------------------------------------
The DSD-BLYP/2013 functional is recognized
Active option DFTDOPT                   ...         4   

molecular C6(AA) [au] = 1575.098243 


            DFT-D V3
 parameters
 s6 scaling factor         :     0.5700 
 a1 scaling factor         :     0.0000 
 s8 scaling factor         :     0.0000 
 a2 scaling factor         :     5.4000 
 ad hoc parameters k1-k3   :    16.0000     1.3333    -4.0000 

 Edisp/kcal,au: -5.496614052934  -0.008759411123 
 E6   /kcal   :  -5.496614053 
 E8   /kcal   :  -0.000000000 
 % E8         :   0.000000000 

-------------------------   ----------------
Dispersion correction           -0.008759411
-------------------------   ----------------


-------------------------   --------------------
FINAL SINGLE POINT ENERGY     -4920.554100193609
-------------------------   --------------------

                                *** OPTIMIZATION RUN DONE ***

                            ***************************************
                            *     ORCA property calculations      *
                            ***************************************

                                    ---------------------
                                    Active property flags
                                    ---------------------
   (+) Dipole Moment


------------------------------------------------------------------------------
                       ORCA ELECTRIC PROPERTIES CALCULATION
------------------------------------------------------------------------------

Dipole Moment Calculation                       ... on
Quadrupole Moment Calculation                   ... off
Polarizability Calculation                      ... off
GBWName                                         ... Cu03N0_D3H.gbw
Electron density file                           ... Cu03N0_D3H.scfp
The origin for moment calculation is the CENTER OF MASS  = (-0.000000, -0.000000  0.000000)

-------------
DIPOLE MOMENT
-------------
                                X             Y             Z
Electronic contribution:      0.00000      -0.39663      -0.00000
Nuclear contribution   :      0.00000      -0.00000       0.00000
                        -----------------------------------------
Total Dipole Moment    :      0.00000      -0.39663      -0.00000
                        -----------------------------------------
Magnitude (a.u.)       :      0.39663
Magnitude (Debye)      :      1.00815



--------------------
Rotational spectrum 
--------------------
 
Rotational constants in cm-1:     0.098336     0.082852     0.044966 
Rotational constants in MHz :  2948.031617  2483.841341  1348.051190 

 Dipole components along the rotational axes: 
x,y,z [a.u.] :     0.396629    -0.000006    -0.000000 
x,y,z [Debye]:     1.008152    -0.000014    -0.000000 

 

                         *** MP2 UNRELAXED DENSITY ***

------------------------------------------------------------------------------
                       ORCA ELECTRIC PROPERTIES CALCULATION
------------------------------------------------------------------------------

Dipole Moment Calculation                       ... on
Quadrupole Moment Calculation                   ... off
Polarizability Calculation                      ... off
GBWName                                         ... Cu03N0_D3H.gbw
Electron density file                           ... Cu03N0_D3H.pmp2ur
The origin for moment calculation is the CENTER OF MASS  = (-0.000000, -0.000000  0.000000)

-------------
DIPOLE MOMENT
-------------
                                X             Y             Z
Electronic contribution:      0.00000      -0.39049      -0.00000
Nuclear contribution   :      0.00000      -0.00000       0.00000
                        -----------------------------------------
Total Dipole Moment    :      0.00000      -0.39049      -0.00000
                        -----------------------------------------
Magnitude (a.u.)       :      0.39049
Magnitude (Debye)      :      0.99254



--------------------
Rotational spectrum 
--------------------
 
Rotational constants in cm-1:     0.098336     0.082852     0.044966 
Rotational constants in MHz :  2948.031617  2483.841341  1348.051190 

 Dipole components along the rotational axes: 
x,y,z [a.u.] :     0.390489    -0.000006    -0.000000 
x,y,z [Debye]:     0.992545    -0.000014    -0.000000 

 

                           *** MP2 RELAXED DENSITY ***

------------------------------------------------------------------------------
                       ORCA ELECTRIC PROPERTIES CALCULATION
------------------------------------------------------------------------------

Dipole Moment Calculation                       ... on
Quadrupole Moment Calculation                   ... off
Polarizability Calculation                      ... off
GBWName                                         ... Cu03N0_D3H.gbw
Electron density file                           ... Cu03N0_D3H.pmp2re
The origin for moment calculation is the CENTER OF MASS  = (-0.000000, -0.000000  0.000000)

-------------
DIPOLE MOMENT
-------------
                                X             Y             Z
Electronic contribution:      0.00000      -0.39423      -0.00000
Nuclear contribution   :      0.00000      -0.00000       0.00000
                        -----------------------------------------
Total Dipole Moment    :      0.00000      -0.39423      -0.00000
                        -----------------------------------------
Magnitude (a.u.)       :      0.39423
Magnitude (Debye)      :      1.00206



--------------------
Rotational spectrum 
--------------------
 
Rotational constants in cm-1:     0.098336     0.082852     0.044966 
Rotational constants in MHz :  2948.031617  2483.841341  1348.051190 

 Dipole components along the rotational axes: 
x,y,z [a.u.] :     0.394234    -0.000007    -0.000000 
x,y,z [Debye]:     1.002063    -0.000019    -0.000000 

 

----------------------------------------------------------------------------
                           ORCA NUMERICAL FREQUENCIES
                              (24-process run)
----------------------------------------------------------------------------

Number of atoms                ... 3
Central differences            ... used
Number of displacements        ... 18
Numerical increment            ... 5.000e-03 bohr
IR-spectrum generation         ... on
Raman-spectrum generation      ... off
Surface Crossing Hessian       ... off

 WARNING: There are more processes than displacements to do
  ====> : Reducing number of processes to   9

The output will be reduced. Please look at the following files:
SCF program output             ... >Cu03N0_D3H.lastscf
Integral program output        ... >Cu03N0_D3H.lastint
Gradient program output        ... >Cu03N0_D3H.lastgrad
Dipole moment program output   ... >Cu03N0_D3H.lastmom
AutoCI program output          ... >Cu03N0_D3H.lastautoci


         <<< Energy and Gradient at the input geometry >>>

        <<< Energy and Gradient at displaced geometries >>>
             <<<Displacing   3/coordinate 3 (+)>>>
             <<<Displacing   2/coordinate 2 (+)>>>
             <<<Displacing   1/coordinate 1 (+)>>>
             <<<Displacing   2/coordinate 1 (+)>>>
             <<<Displacing   3/coordinate 1 (+)>>>
             <<<Displacing   1/coordinate 3 (+)>>>
             <<<Displacing   3/coordinate 2 (+)>>>
             <<<Displacing   2/coordinate 3 (+)>>>
             <<<Displacing   1/coordinate 2 (+)>>>
             <<<Displacing   1/coordinate 3 (-)>>>
             <<<Displacing   2/coordinate 3 (-)>>>
             <<<Displacing   3/coordinate 3 (-)>>>
             <<<Displacing   2/coordinate 1 (-)>>>
             <<<Displacing   1/coordinate 2 (-)>>>
             <<<Displacing   1/coordinate 1 (-)>>>
             <<<Displacing   3/coordinate 1 (-)>>>
             <<<Displacing   3/coordinate 2 (-)>>>
             <<<Displacing   2/coordinate 2 (-)>>>

-----------------------
VIBRATIONAL FREQUENCIES
-----------------------

Scaling factor for frequencies =  1.000000000 (already applied!)

   0:         0.00 cm**-1
   1:         0.00 cm**-1
   2:         0.00 cm**-1
   3:         0.00 cm**-1
   4:         0.00 cm**-1
   5:         0.00 cm**-1
   6:       -77.12 cm**-1 ***imaginary mode***
   7:       185.44 cm**-1
   8:       250.03 cm**-1


------------
NORMAL MODES
------------

These modes are the cartesian displacements weighted by the diagonal matrix
M(i,i)=1/sqrt(m[i]) where m[i] is the mass of the displaced atom
Thus, these vectors are normalized but *not* orthogonal

                  0          1          2          3          4          5    
      0       0.000000   0.000000   0.000000   0.000000   0.000000   0.000000
      1       0.000000   0.000000   0.000000   0.000000   0.000000   0.000000
      2       0.000000   0.000000   0.000000   0.000000   0.000000   0.000000
      3       0.000000   0.000000   0.000000   0.000000   0.000000   0.000000
      4       0.000000   0.000000   0.000000   0.000000   0.000000   0.000000
      5       0.000000   0.000000   0.000000   0.000000   0.000000   0.000000
      6       0.000000   0.000000   0.000000   0.000000   0.000000   0.000000
      7       0.000000   0.000000   0.000000   0.000000   0.000000   0.000000
      8       0.000000   0.000000   0.000000   0.000000   0.000000   0.000000
                   6          7          8    
      0       0.552130   0.000004   0.000012
      1      -0.000012   0.740257   0.344508
      2       0.000000   0.000000   0.000000
      3      -0.276077  -0.298355   0.641076
      4       0.520933  -0.370125  -0.172243
      5       0.000000   0.000000   0.000000
      6      -0.276053   0.298351  -0.641088
      7      -0.520920  -0.370132  -0.172266
      8       0.000000   0.000000   0.000000


-----------
IR SPECTRUM  
-----------

 Mode    freq (cm**-1)   T**2         TX         TY         TZ
-------------------------------------------------------------------
   7:       185.44    0.089635  (  0.000057  -0.299391  -0.000007)
   8:       250.03    1.067945  ( -0.000010  -1.033414  -0.000003)

The first frequency considered to be a vibration is 7
The total number of vibrations considered is 2


--------------------------
THERMOCHEMISTRY AT 298.15K
--------------------------

Temperature         ... 298.15 K
Pressure            ... 1.00 atm
Total Mass          ... 190.65 AMU

Throughout the following assumptions are being made:
  (1) The electronic state is orbitally nondegenerate
      but the spin degeneracy is treated
  (2) There are no thermally accessible electronically excited states
  (3) Hindered rotations indicated by low frequency modes are not
      treated as such but are treated as vibrations and this may
      cause some error
  (4) All equations used are the standard statistical mechanics
      equations for an ideal gas
  (5) All vibrations are strictly harmonic

freq.     185.44  E(vib)   ...       0.37 
freq.     250.03  E(vib)   ...       0.31 

------------
INNER ENERGY
------------

The inner energy is: U= E(el) + E(ZPE) + E(vib) + E(rot) + E(trans)
    E(el)   - is the total energy from the electronic structure calculation
              = E(kin-el) + E(nuc-el) + E(el-el) + E(nuc-nuc)
    E(ZPE)  - the the zero temperature vibrational energy from the frequency calculation
    E(vib)  - the the finite temperature correction to E(ZPE) due to population
              of excited vibrational states
    E(rot)  - is the rotational thermal energy
    E(trans)- is the translational thermal energy

Summary of contributions to the inner energy U:
Electronic energy                ...  -4920.55410016 Eh
Zero point energy                ...      0.00099207 Eh       0.62 kcal/mol
Thermal vibrational correction   ...      0.00107039 Eh       0.67 kcal/mol
Thermal rotational correction    ...      0.00141627 Eh       0.89 kcal/mol
Thermal translational correction ...      0.00141627 Eh       0.89 kcal/mol
-----------------------------------------------------------------------
Total thermal energy                  -4920.54920516 Eh


Summary of corrections to the electronic energy:
(perhaps to be used in another calculation)
Total thermal correction                  0.00390293 Eh       2.45 kcal/mol
Non-thermal (ZPE) correction              0.00099207 Eh       0.62 kcal/mol
-----------------------------------------------------------------------
Total correction                          0.00489500 Eh       3.07 kcal/mol


--------
ENTHALPY
--------

The enthalpy is H = U + kB*T
                kB is Boltzmann's constant
Total free energy                 ...  -4920.54920516 Eh 
Thermal Enthalpy correction       ...      0.00094421 Eh       0.59 kcal/mol
-----------------------------------------------------------------------
Total Enthalpy                    ...  -4920.54826095 Eh


Note: Rotational entropy computed according to Herzberg 
Infrared and Raman Spectra, Chapter V,1, Van Nostrand Reinhold, 1945 
Point Group:  Cs, Symmetry Number:   1  
Rotational constants in cm-1:     0.098336     0.082852     0.044966 

Vibrational entropy computed according to the QRRHO of S. Grimme
Chem.Eur.J. 2012 18 9955


-------
ENTROPY
-------

The entropy contributions are T*S = T*(S(el)+S(vib)+S(rot)+S(trans))
     S(el)   - electronic entropy
     S(vib)  - vibrational entropy
     S(rot)  - rotational entropy
     S(trans)- translational entropy
The entropies will be listed as mutliplied by the temperature to get
units of energy

Electronic entropy                ...      0.00065446 Eh      0.41 kcal/mol
Vibrational entropy               ...      0.00190352 Eh      1.19 kcal/mol
Rotational entropy                ...      0.01324595 Eh      8.31 kcal/mol
Translational entropy             ...      0.01978512 Eh     12.42 kcal/mol
-----------------------------------------------------------------------
Final entropy term                ...      0.03558904 Eh     22.33 kcal/mol

In case the symmetry of your molecule has not been determined correctly
or in case you have a reason to use a different symmetry number we print 
out the resulting rotational entropy values for sn=1,12 :
 --------------------------------------------------------
|  sn= 1 | S(rot)=       0.01324595 Eh      8.31 kcal/mol|
|  sn= 2 | S(rot)=       0.01259149 Eh      7.90 kcal/mol|
|  sn= 3 | S(rot)=       0.01220866 Eh      7.66 kcal/mol|
|  sn= 4 | S(rot)=       0.01193704 Eh      7.49 kcal/mol|
|  sn= 5 | S(rot)=       0.01172635 Eh      7.36 kcal/mol|
|  sn= 6 | S(rot)=       0.01155420 Eh      7.25 kcal/mol|
|  sn= 7 | S(rot)=       0.01140866 Eh      7.16 kcal/mol|
|  sn= 8 | S(rot)=       0.01128258 Eh      7.08 kcal/mol|
|  sn= 9 | S(rot)=       0.01117137 Eh      7.01 kcal/mol|
|  sn=10 | S(rot)=       0.01107189 Eh      6.95 kcal/mol|
|  sn=11 | S(rot)=       0.01098190 Eh      6.89 kcal/mol|
|  sn=12 | S(rot)=       0.01089975 Eh      6.84 kcal/mol|
 --------------------------------------------------------


-------------------
GIBBS FREE ENERGY
-------------------

The Gibbs free energy is G = H - T*S

Total enthalpy                    ...  -4920.54826095 Eh 
Total entropy correction          ...     -0.03558904 Eh    -22.33 kcal/mol
-----------------------------------------------------------------------
Final Gibbs free energy         ...  -4920.58384999 Eh

For completeness - the Gibbs free energy minus the electronic energy
G-E(el)                           ...     -0.02974984 Eh    -18.67 kcal/mol


Total Time for Numerical Frequencies  :       487.648 sec

Timings for individual modules:

Sum of individual times         ...      374.188 sec (=   6.236 min)
GTO integral calculation        ...        8.421 sec (=   0.140 min)   2.3 %
SCF iterations                  ...       69.784 sec (=   1.163 min)  18.6 %
MP2 module                      ...      295.650 sec (=   4.927 min)  79.0 %
Geometry relaxation             ...        0.333 sec (=   0.006 min)   0.1 %
                             ****ORCA TERMINATED NORMALLY****
TOTAL RUN TIME: 0 days 0 hours 13 minutes 53 seconds 203 msec
