
                                 *****************
                                 * O   R   C   A *
                                 *****************

           --- An Ab Initio, DFT and Semiempirical electronic structure package ---

                  #######################################################
                  #                        -***-                        #
                  #          Department of theory and spectroscopy      #
                  #               Directorship: Frank Neese             #
                  #        Max Planck Institute fuer Kohlenforschung    #
                  #                Kaiser Wilhelm Platz 1               #
                  #                 D-45470 Muelheim/Ruhr               #
                  #                      Germany                        #
                  #                                                     #
                  #                  All rights reserved                #
                  #                        -***-                        #
                  #######################################################


                         Program Version 4.2.0 -  RELEASE  -


 With contributions from (in alphabetic order):
   Daniel Aravena         : Magnetic Suceptibility
   Michael Atanasov       : Ab Initio Ligand Field Theory (pilot matlab implementation)
   Alexander A. Auer      : GIAO ZORA, VPT2
   Ute Becker             : Parallelization
   Giovanni Bistoni       : ED, misc. LED, open-shell LED, HFLED
   Martin Brehm           : Molecular dynamics
   Dmytro Bykov           : SCF Hessian
   Vijay G. Chilkuri      : MRCI spin determinant printing, contributions to CSF-ICE
   Dipayan Datta          : RHF DLPNO-CCSD density
   Achintya Kumar Dutta   : EOM-CC, STEOM-CC
   Dmitry Ganyushin       : Spin-Orbit,Spin-Spin,Magnetic field MRCI
   Miquel Garcia          : C-PCM Hessian, Gaussian charge scheme
   Yang Guo               : DLPNO-NEVPT2, CIM, IAO-localization
   Andreas Hansen         : Spin unrestricted coupled pair/coupled cluster methods
   Benjamin Helmich-Paris : CASSCF linear response (MC-RPA)
   Lee Huntington         : MR-EOM, pCC
   Robert Izsak           : Overlap fitted RIJCOSX, COSX-SCS-MP3, EOM
   Christian Kollmar      : KDIIS, OOCD, Brueckner-CCSD(T), CCSD density
   Simone Kossmann        : Meta GGA functionals, TD-DFT gradient, OOMP2, MP2 Hessian
   Martin Krupicka        : AUTO-CI
   Lucas Lang             : DCDCAS
   Dagmar Lenk            : GEPOL surface, SMD
   Dimitrios Liakos       : Extrapolation schemes; Compound Job, initial MDCI parallelization
   Dimitrios Manganas     : Further ROCIS development; embedding schemes
   Dimitrios Pantazis     : SARC Basis sets
   Taras Petrenko         : DFT Hessian,TD-DFT gradient, ASA, ECA, R-Raman, ABS, FL, XAS/XES, NRVS
   Peter Pinski           : DLPNO-MP2, DLPNO-MP2 Gradient
   Christoph Reimann      : Effective Core Potentials
   Marius Retegan         : Local ZFS, SOC
   Christoph Riplinger    : Optimizer, TS searches, QM/MM, DLPNO-CCSD(T), (RO)-DLPNO pert. Triples
   Tobias Risthaus        : Range-separated hybrids, TD-DFT gradient, RPA, STAB
   Michael Roemelt        : Original ROCIS implementation
   Masaaki Saitow         : Open-shell DLPNO-CCSD energy and density
   Barbara Sandhoefer     : DKH picture change effects
   Avijit Sen             : IP-ROCIS
   Kantharuban Sivalingam : CASSCF convergence, NEVPT2, FIC-MRCI
   Bernardo de Souza      : ESD, SOC TD-DFT
   Georgi Stoychev        : AutoAux, RI-MP2 NMR
   Willem Van den Heuvel  : Paramagnetic NMR
   Boris Wezisla          : Elementary symmetry handling
   Frank Wennmohs         : Technical directorship


 We gratefully acknowledge several colleagues who have allowed us to
 interface, adapt or use parts of their codes:
   Stefan Grimme, W. Hujo, H. Kruse,             : VdW corrections, initial TS optimization,
                  C. Bannwarth                     DFT functionals, gCP, sTDA/sTD-DF
   Ed Valeev, F. Pavosevic, A. Kumar             : LibInt (2-el integral package), F12 methods
   Garnet Chan, S. Sharma, J. Yang, R. Olivares  : DMRG
   Ulf Ekstrom                                   : XCFun DFT Library
   Mihaly Kallay                                 : mrcc  (arbitrary order and MRCC methods)
   Andreas Klamt, Michael Diedenhofen            : otool_cosmo (COSMO solvation model)
   Jiri Pittner, Ondrej Demel                    : Mk-CCSD
   Frank Weinhold                                : gennbo (NPA and NBO analysis)
   Christopher J. Cramer and Donald G. Truhlar   : smd solvation model
   Lars Goerigk                                  : TD-DFT with DH, B97 family of functionals
   V. Asgeirsson, H. Jonsson                     : NEB implementation
   FAccTs GmbH                                   : IRC, NEB, NEB-TS, Multilevel, MM, QM/MM, CI optimization
   S Lehtola, MJT Oliveira, MAL Marques          : LibXC Library


 Your calculation uses the libint2 library for the computation of 2-el integrals
 For citations please refer to: http://libint.valeyev.net

 Your ORCA version has been built with support for libXC version: 4.2.3
 For citations please refer to: https://tddft.org/programs/libxc/

 This ORCA versions uses:
   CBLAS   interface :  Fast vector & matrix operations
   LAPACKE interface :  Fast linear algebra routines
   SCALAPACK package :  Parallel linear algebra routines


Your calculation utilizes the atom-pairwise dispersion correction
with the Becke-Johnson damping scheme (D3BJ)
Cite in your paper:
S.Grimme, S.Ehrlich, L.Goerigk, J Comput Chem, (2011), 32, 1456–1465 
S.Grimme, J.Antony, S.Ehrlich and H.Krieg, J.Chem.Phys., 132, (2010), 154104 
   

----- Orbital basis set information -----
Your calculation utilizes the basis: def2-TZVPPD
   F. Weigend and R. Ahlrichs, Phys. Chem. Chem. Phys. 7, 3297 (2005).
   D. Rappoport and F. Furche, J. Chem. Phys. 133 134105 (2010).

----- AuxC basis set information -----
Your calculation utilizes the auxiliary basis: def2-TZVPPD/C
   A. Hellweg, C. Hattig, S. Hofener and W. Klopper, Theor. Chem. Acc. 117, 587 (2007).

----- AuxJK basis set information -----
Your calculation utilizes the auxiliary basis: def2/JK
   H-Ba, Hf-Rn: F. Weigend, J. Comput. Chem. 29, 167 (2008).

================================================================================
                                        WARNINGS
                       Please study these warnings very carefully!
================================================================================


WARNING: The frozen-core approximation for MP2-gradient calculations is turned on by default.

WARNING: Geometry Optimization
  ===> : Switching off AutoStart
         For restart on a previous wavefunction, please use MOREAD

WARNING: There are different parametrizations of Gershom Martin's DSD-DFs
         for use with and without D3(BJ)!
         You are using the D3(BJ) parametrized version,
         consistent with the 2013 article (S. Kozuch and J. M. L. Martin, JCC 2013, 34, 2327)

WARNING: The frozen-core approximation is turned on by default for 
         the MP2 part of double-hybrid DFT.

INFO   : the flag for use of LIBINT has been found!

================================================================================
                                       INPUT FILE
================================================================================
NAME = Cu03C1_D3H.in
|  1> #
|  2> # Cu03C1_D3H ri-DSD-BLYP/2013-D3BJ/Def2-TZVPPD
|  3> #
|  4> ! rijk ri-dsd-blyp/2013 d3bj def2-tzvppd def2/jk def2-tzvppd/c grid4 nofinalgrid opt xyzfile numfreq
|  5> 
|  6> *xyz 1 1
|  7> Cu       0.000000    1.349261   -0.000000 
|  8> Cu       1.168494   -0.674630    0.000000 
|  9> Cu      -1.168494   -0.674630   -0.000000 
| 10> *
| 11> 
| 12> %maxcore 5000
| 13> 
| 14> %pal
| 15> nprocs = 24
| 16> end
| 17> 
| 18> 
| 19>                          ****END OF INPUT****
================================================================================

                       *****************************
                       * Geometry Optimization Run *
                       *****************************

Geometry optimization settings:
Update method            Update   .... BFGS
Choice of coordinates    CoordSys .... Z-matrix Internals
Initial Hessian          InHess   .... Almoef's Model

Convergence Tolerances:
Energy Change            TolE     ....  5.0000e-06 Eh
Max. Gradient            TolMAXG  ....  3.0000e-04 Eh/bohr
RMS Gradient             TolRMSG  ....  1.0000e-04 Eh/bohr
Max. Displacement        TolMAXD  ....  4.0000e-03 bohr
RMS Displacement         TolRMSD  ....  2.0000e-03 bohr
Strict Convergence                ....  False
------------------------------------------------------------------------------
                        ORCA OPTIMIZATION COORDINATE SETUP
------------------------------------------------------------------------------

The optimization will be done in new redundant internal coordinates
Making redundant internal coordinates   ...  (new redundants) done
Evaluating the initial hessian          ...  (Almloef) done
Evaluating the coordinates              ...  done
Calculating the B-matrix                .... done
Calculating the G-matrix                .... done
Diagonalizing the G-matrix              .... done
The first mode is                       ....    3
The number of degrees of freedom        ....    3

    -----------------------------------------------------------------
                    Redundant Internal Coordinates


    -----------------------------------------------------------------
         Definition                    Initial Value    Approx d2E/dq
    -----------------------------------------------------------------
      1. B(Cu  1,Cu  0)                  2.3370         1.973010   
      2. B(Cu  2,Cu  1)                  2.3370         1.973010   
      3. B(Cu  2,Cu  0)                  2.3370         1.973010   
      4. A(Cu  1,Cu  0,Cu  2)           60.0000         1.051884   
      5. A(Cu  0,Cu  1,Cu  2)           60.0000         1.051884   
      6. A(Cu  0,Cu  2,Cu  1)           60.0000         1.051884   
    -----------------------------------------------------------------

Number of atoms                         .... 3
Number of degrees of freedom            .... 6

         *************************************************************
         *                GEOMETRY OPTIMIZATION CYCLE   1            *
         *************************************************************
---------------------------------
CARTESIAN COORDINATES (ANGSTROEM)
---------------------------------
  Cu     0.000000    1.349261   -0.000000
  Cu     1.168494   -0.674630    0.000000
  Cu    -1.168494   -0.674630   -0.000000

----------------------------
CARTESIAN COORDINATES (A.U.)
----------------------------
  NO LB      ZA    FRAG     MASS         X           Y           Z
   0 Cu   29.0000    0    63.550    0.000000    2.549734   -0.000000
   1 Cu   29.0000    0    63.550    2.208134   -1.274866    0.000000
   2 Cu   29.0000    0    63.550   -2.208134   -1.274866   -0.000000

--------------------------------
INTERNAL COORDINATES (ANGSTROEM)
--------------------------------
 Cu     0   0   0     0.000000000000     0.00000000     0.00000000
 Cu     1   0   0     2.336988020491     0.00000000     0.00000000
 Cu     2   1   0     2.336988000000    60.00000029     0.00000000

---------------------------
INTERNAL COORDINATES (A.U.)
---------------------------
 Cu     0   0   0     0.000000000000     0.00000000     0.00000000
 Cu     1   0   0     4.416267336982     0.00000000     0.00000000
 Cu     2   1   0     4.416267298260    60.00000029     0.00000000

---------------------
BASIS SET INFORMATION
---------------------
There are 1 groups of distinct atoms

 Group   1 Type Cu  : 17s13p7d2f1g contracted to 6s6p4d2f1g pattern {842111/631111/4111/11/1}

Atom   0Cu   basis set group =>   1
Atom   1Cu   basis set group =>   1
Atom   2Cu   basis set group =>   1
---------------------------------
AUXILIARY/C BASIS SET INFORMATION
---------------------------------
There are 1 groups of distinct atoms

 Group   1 Type Cu  : 10s10p9d7f5g3h1i contracted to 10s10p9d7f5g3h1i pattern {1111111111/1111111111/111111111/1111111/11111/111/1}

Atom   0Cu   basis set group =>   1
Atom   1Cu   basis set group =>   1
Atom   2Cu   basis set group =>   1
----------------------------------
AUXILIARY/JK BASIS SET INFORMATION
----------------------------------
There are 1 groups of distinct atoms

 Group   1 Type Cu  : 19s14p12d10f7g3h1i contracted to 16s13p11d9f5g3h1i pattern {4111111111111111/2111111111111/21111111111/211111111/31111/111/1}

Atom   0Cu   basis set group =>   1
Atom   1Cu   basis set group =>   1
Atom   2Cu   basis set group =>   1


           ************************************************************
           *        Program running with 24 parallel MPI-processes    *
           *              working on a common directory               *
           ************************************************************
------------------------------------------------------------------------------
                           ORCA GTO INTEGRAL CALCULATION
                           -- RI-GTO INTEGRALS CHOSEN --
------------------------------------------------------------------------------

                         BASIS SET STATISTICS AND STARTUP INFO

Gaussian basis set:
 # of primitive gaussian shells          ...  120
 # of primitive gaussian functions       ...  342
 # of contracted shells                  ...   57
 # of contracted basis functions         ...  201
 Highest angular momentum                ...    4
 Maximum contraction depth               ...    8
Auxiliary gaussian basis set:
 # of primitive gaussian shells          ...  198
 # of primitive gaussian functions       ...  900
 # of contracted shells                  ...  174
 # of contracted aux-basis functions     ...  792
 Highest angular momentum                ...    6
 Maximum contraction depth               ...    4
Ratio of auxiliary to basis functions    ...  3.94
Integral package used                  ... LIBINT
 One Electron integrals                  ... done
 Ordering auxiliary basis shells         ... done
 Integral threshhold             Thresh  ...  2.500e-11
 Primitive cut-off               TCut    ...  2.500e-12
 Pre-screening matrix                    ... done
 Shell pair data                         ... 
 Ordering of the shell pairs             ... done (   0.000 sec) 1533 of 1653 pairs
 Determination of significant pairs      ... done (   0.000 sec)
 Creation of shell pair data             ... done (   0.000 sec)
 Storage of shell pair data              ... done (   0.068 sec)
 Shell pair data done in (   0.068 sec)
 Computing two index integrals           ... done
 Cholesky decomposition of the V-matrix  ... done


Timings:
 Total evaluation time                   ...   0.426 sec (  0.007 min)
 One electron matrix time                ...   0.022 sec (  0.000 min) =  5.1%
 Schwartz matrix evaluation time         ...   0.177 sec (  0.003 min) = 41.7%
 Two index repulsion integral time       ...   0.118 sec (  0.002 min) = 27.8%
 Cholesky decomposition of V             ...   0.010 sec (  0.000 min) =  2.4%
 Three index repulsion integral time     ...   0.000 sec (  0.000 min) =  0.0%



           ************************************************************
           *        Program running with 24 parallel MPI-processes    *
           *              working on a common directory               *
           ************************************************************
-------------------------------------------------------------------------------
                                 ORCA SCF
-------------------------------------------------------------------------------

------------
SCF SETTINGS
------------
Hamiltonian:
 Density Functional     Method          .... DFT(GTOs)
 Exchange Functional    Exchange        .... B88
   X-Alpha parameter    XAlpha          ....  0.666667
   Becke's b parameter  XBeta           ....  0.004200
 Correlation Functional Correlation     .... LYP
 LDA part of GGA corr.  LDAOpt          .... VWN-5
 Gradients option       PostSCFGGA      .... off
 Hybrid DFT is turned on
   Fraction HF Exchange ScalHFX         ....  0.710000
   Scaling of DF-GGA-X  ScalDFX         ....  0.290000
   Scaling of DF-GGA-C  ScalDFC         ....  0.540000
   Scaling of DF-LDA-C  ScalLDAC        ....  0.540000
   Perturbative correction              ....  1.000000
   Density functional embedding theory  .... OFF
 RI-approximation to the Coulomb term is turned on
   Number of auxiliary basis functions  .... 792
   RI-JK (J+K treated both via RI)      .... on


General Settings:
 Integral files         IntName         .... Cu03C1_D3H
 Hartree-Fock type      HFTyp           .... RHF
 Total Charge           Charge          ....    1
 Multiplicity           Mult            ....    1
 Number of Electrons    NEL             ....   86
 Basis Dimension        Dim             ....  201
 Nuclear Repulsion      ENuc            ....    571.2969380830 Eh

Convergence Acceleration:
 DIIS                   CNVDIIS         .... on
   Start iteration      DIISMaxIt       ....    12
   Startup error        DIISStart       ....  0.200000
   # of expansion vecs  DIISMaxEq       ....     5
   Bias factor          DIISBfac        ....   1.050
   Max. coefficient     DIISMaxC        ....  10.000
 Newton-Raphson         CNVNR           .... off
 SOSCF                  CNVSOSCF        .... off
 Level Shifting         CNVShift        .... on
   Level shift para.    LevelShift      ....    0.2500
   Turn off err/grad.   ShiftErr        ....    0.0010
 Zerner damping         CNVZerner       .... off
 Static damping         CNVDamp         .... on
   Fraction old density DampFac         ....    0.7000
   Max. Damping (<1)    DampMax         ....    0.9800
   Min. Damping (>=0)   DampMin         ....    0.0000
   Turn off err/grad.   DampErr         ....    0.1000
 Fernandez-Rico         CNVRico         .... off

SCF Procedure:
 Maximum # iterations   MaxIter         ....   125
 SCF integral mode      SCFMode         .... Direct
   Integral package                     .... LIBINT
 Reset frequency        DirectResetFreq ....    20
 Integral Threshold     Thresh          ....  2.500e-11 Eh
 Primitive CutOff       TCut            ....  2.500e-12 Eh

Convergence Tolerance:
 Convergence Check Mode ConvCheckMode   .... Total+1el-Energy
 Convergence forced     ConvForced      .... 0
 Energy Change          TolE            ....  1.000e-08 Eh
 1-El. energy change                    ....  1.000e-05 Eh
 DIIS Error             TolErr          ....  5.000e-07


Diagonalization of the overlap matrix:
Smallest eigenvalue                        ... 7.677e-04
Time for diagonalization                   ...    0.007 sec
Threshold for overlap eigenvalues          ... 1.000e-08
Number of eigenvalues below threshold      ... 0
Time for construction of square roots      ...    0.006 sec
Total time needed                          ...    0.013 sec

-------------------
DFT GRID GENERATION
-------------------

General Integration Accuracy     IntAcc      ...  4.670
Radial Grid Type                 RadialGrid  ... Gauss-Chebyshev
Angular Grid (max. acc.)         AngularGrid ... Lebedev-302
Angular grid pruning method      GridPruning ... 3 (G Style)
Weight generation scheme         WeightScheme... Becke
Basis function cutoff            BFCut       ...    1.0000e-11
Integration weight cutoff        WCut        ...    1.0000e-14
Grids for H and He will be reduced by one unit

# of grid points (after initial pruning)     ...  28668 (   0.0 sec)
# of grid points (after weights+screening)   ...  28566 (   0.0 sec)
nearest neighbour list constructed           ...    0.0 sec
Grid point re-assignment to atoms done       ...    0.0 sec
Grid point division into batches done        ...    0.2 sec
Reduced shell lists constructed in    0.2 sec

Total number of grid points                  ...    28566
Total number of batches                      ...      448
Average number of points per batch           ...       63
Average number of grid points per atom       ...     9522
Average number of shells per batch           ...    13.75 (24.12%)
Average number of basis functions per batch  ...    38.75 (19.28%)
Average number of large shells per batch     ...    10.10 (73.45%)
Average number of large basis fcns per batch ...    28.00 (72.26%)
Average number of aux-shells per batch       ...    13.75 ( 7.90%)
Average number of aux functions per batch    ...    38.75 ( 4.89%)
Maximum spatial batch extension              ...  20.08, 17.16, 22.17 au
Average spatial batch extension              ...   0.56,  0.48,  0.54 au

Time for grid setup =    0.326 sec

------------------------------
INITIAL GUESS: MODEL POTENTIAL
------------------------------
Loading Hartree-Fock densities                     ... done
Calculating cut-offs                               ... done
Setting up the integral package                    ... done
Initializing the effective Hamiltonian             ... done
Starting the Coulomb interaction                   ... done (   0.0 sec)
Reading the grid                                   ... done
Mapping shells                                     ... done
Starting the XC term evaluation                    ... done (   0.0 sec)
  promolecular density results
     # of electrons  =     87.000079694
     EX              =   -197.429217917
     EC              =     -0.607083652
     EX+EC           =   -198.036301569
Transforming the Hamiltonian                       ... done (   0.0 sec)
Diagonalizing the Hamiltonian                      ... done (   0.0 sec)
Back transforming the eigenvectors                 ... done (   0.0 sec)
Now organizing SCF variables                       ... done
                      ------------------
                      INITIAL GUESS DONE (   0.5 sec)
                      ------------------
--------------
SCF ITERATIONS
--------------
ITER       Energy         Delta-E        Max-DP      RMS-DP      [F,P]     Damp
  0  -4919.0212533975   0.000000000000 0.03317150  0.00078579  0.0707630 0.7000
  1  -4919.0382383062  -0.016984908708 0.03690156  0.00082471  0.0498753 0.7000
                               ***Turning on DIIS***
  2  -4919.0831734842  -0.044935177952 0.10862525  0.00222974  0.0342833 0.0000
  3  -4919.0877290084  -0.004555524249 0.01337648  0.00035635  0.0304306 0.0000
  4  -4919.0920353475  -0.004306339116 0.00839537  0.00015718  0.0072747 0.0000
  5  -4919.0923766231  -0.000341275548 0.00453973  0.00008118  0.0060360 0.0000
  6  -4919.0925081010  -0.000131477962 0.00286915  0.00004721  0.0029955 0.0000
  7  -4919.0925510875  -0.000042986429 0.00204393  0.00003824  0.0009498 0.0000
  8  -4919.0925631710  -0.000012083567 0.00045798  0.00000988  0.0002138 0.0000
  9  -4919.0925640778  -0.000000906763 0.00021508  0.00000332  0.0000590 0.0000
 10  -4919.0925641726  -0.000000094815 0.00008179  0.00000119  0.0000214 0.0000
 11  -4919.0925641826  -0.000000009974 0.00002501  0.00000037  0.0000205 0.0000
 12  -4919.0925641838  -0.000000001204 0.00001708  0.00000025  0.0000195 0.0000
 13  -4919.0925641845  -0.000000000668 0.00000723  0.00000013  0.0000042 0.0000
 14  -4919.0925641845  -0.000000000076 0.00000489  0.00000008  0.0000051 0.0000
                            ***DIIS convergence achieved***

               *****************************************************
               *                     SUCCESS                       *
               *           SCF CONVERGED AFTER  15 CYCLES          *
               *****************************************************


----------------
TOTAL SCF ENERGY
----------------

Total Energy       :        -4919.09256418 Eh         -133855.31374 eV

Components:
Nuclear Repulsion  :          571.29693808 Eh           15545.78002 eV
Electronic Energy  :        -5490.38950227 Eh         -149401.09376 eV
One Electron Energy:        -7992.01879163 Eh         -217473.88748 eV
Two Electron Energy:         2501.62928936 Eh           68072.79372 eV

Virial components:
Potential Energy   :        -9834.71591806 Eh         -267616.22548 eV
Kinetic Energy     :         4915.62335388 Eh          133760.91173 eV
Virial Ratio       :            2.00070575


DFT components:
N(Alpha)           :       42.999999077996 electrons
N(Beta)            :       42.999999077996 electrons
N(Total)           :       85.999998155992 electrons
E(X)               :      -57.394154584943 Eh       
E(C)               :       -2.234810810744 Eh       
E(XC)              :      -59.628965395687 Eh       
DFET-embed. en.    :        0.000000000000 Eh       

---------------
SCF CONVERGENCE
---------------

  Last Energy change         ...   -1.1096e-10  Tolerance :   1.0000e-08
  Last MAX-Density change    ...    1.5144e-06  Tolerance :   1.0000e-07
  Last RMS-Density change    ...    2.7202e-08  Tolerance :   5.0000e-09
  Last DIIS Error            ...    5.0780e-07  Tolerance :   5.0000e-07

             **** THE GBW FILE WAS UPDATED (Cu03C1_D3H.gbw) ****
             **** DENSITY FILE WAS UPDATED (Cu03C1_D3H.scfp) ****
             **** ENERGY FILE WAS UPDATED (Cu03C1_D3H.en.tmp) ****
             **** THE GBW FILE WAS UPDATED (Cu03C1_D3H.gbw) ****
             **** DENSITY FILE WAS UPDATED (Cu03C1_D3H.scfp) ****
----------------
ORBITAL ENERGIES
----------------

  NO   OCC          E(Eh)            E(eV) 
   0   2.0000    -326.920358     -8895.9552 
   1   2.0000    -326.920357     -8895.9552 
   2   2.0000    -326.920350     -8895.9550 
   3   2.0000     -40.293302     -1096.4365 
   4   2.0000     -40.293302     -1096.4365 
   5   2.0000     -40.293277     -1096.4358 
   6   2.0000     -35.238910      -958.8995 
   7   2.0000     -35.238895      -958.8991 
   8   2.0000     -35.238894      -958.8991 
   9   2.0000     -35.238105      -958.8776 
  10   2.0000     -35.238104      -958.8776 
  11   2.0000     -35.238101      -958.8775 
  12   2.0000     -35.238101      -958.8775 
  13   2.0000     -35.238092      -958.8772 
  14   2.0000     -35.238092      -958.8772 
  15   2.0000      -4.952952      -134.7767 
  16   2.0000      -4.952327      -134.7597 
  17   2.0000      -4.952326      -134.7596 
  18   2.0000      -3.334569       -90.7382 
  19   2.0000      -3.332123       -90.6717 
  20   2.0000      -3.332123       -90.6717 
  21   2.0000      -3.329362       -90.5965 
  22   2.0000      -3.329032       -90.5876 
  23   2.0000      -3.329030       -90.5875 
  24   2.0000      -3.328808       -90.5815 
  25   2.0000      -3.328339       -90.5687 
  26   2.0000      -3.328337       -90.5687 
  27   2.0000      -0.653697       -17.7880 
  28   2.0000      -0.637229       -17.3399 
  29   2.0000      -0.636947       -17.3322 
  30   2.0000      -0.636943       -17.3321 
  31   2.0000      -0.625223       -17.0132 
  32   2.0000      -0.622163       -16.9299 
  33   2.0000      -0.622153       -16.9296 
  34   2.0000      -0.603637       -16.4258 
  35   2.0000      -0.603636       -16.4258 
  36   2.0000      -0.601497       -16.3676 
  37   2.0000      -0.596823       -16.2404 
  38   2.0000      -0.596805       -16.2399 
  39   2.0000      -0.595321       -16.1995 
  40   2.0000      -0.595302       -16.1990 
  41   2.0000      -0.575937       -15.6720 
  42   2.0000      -0.470969       -12.8157 
  43   0.0000      -0.196218        -5.3394 
  44   0.0000      -0.196218        -5.3394 
  45   0.0000      -0.151868        -4.1325 
  46   0.0000      -0.115220        -3.1353 
  47   0.0000      -0.092936        -2.5289 
  48   0.0000      -0.092936        -2.5289 
  49   0.0000      -0.062556        -1.7022 
  50   0.0000      -0.062556        -1.7022 
  51   0.0000      -0.041528        -1.1300 
  52   0.0000      -0.041528        -1.1300 
  53   0.0000      -0.012524        -0.3408 
  54   0.0000       0.003154         0.0858 
  55   0.0000       0.008989         0.2446 
  56   0.0000       0.024245         0.6597 
  57   0.0000       0.036289         0.9875 
  58   0.0000       0.036289         0.9875 
  59   0.0000       0.073569         2.0019 
  60   0.0000       0.073569         2.0019 
  61   0.0000       0.081896         2.2285 
  62   0.0000       0.098940         2.6923 
  63   0.0000       0.098941         2.6923 
  64   0.0000       0.103942         2.8284 
  65   0.0000       0.103943         2.8284 
  66   0.0000       0.118776         3.2321 
  67   0.0000       0.124689         3.3930 
  68   0.0000       0.124690         3.3930 
  69   0.0000       0.131191         3.5699 
  70   0.0000       0.180723         4.9177 
  71   0.0000       0.180724         4.9177 
  72   0.0000       0.200875         5.4661 
  73   0.0000       0.224031         6.0962 
  74   0.0000       0.240633         6.5480 
  75   0.0000       0.240634         6.5480 
  76   0.0000       0.242323         6.5940 
  77   0.0000       0.242323         6.5940 
  78   0.0000       0.356242         9.6938 
  79   0.0000       0.408916        11.1272 
  80   0.0000       0.408917        11.1272 
  81   0.0000       0.557227        15.1629 
  82   0.0000       0.561952        15.2915 
  83   0.0000       0.612312        16.6619 
  84   0.0000       0.612313        16.6619 
  85   0.0000       0.668342        18.1865 
  86   0.0000       0.668343        18.1865 
  87   0.0000       0.725314        19.7368 
  88   0.0000       0.733204        19.9515 
  89   0.0000       0.733204        19.9515 
  90   0.0000       0.754288        20.5252 
  91   0.0000       0.784897        21.3581 
  92   0.0000       0.784898        21.3582 
  93   0.0000       0.851450        23.1691 
  94   0.0000       0.871951        23.7270 
  95   0.0000       0.895818        24.3764 
  96   0.0000       0.895820        24.3765 
  97   0.0000       0.973239        26.4832 
  98   0.0000       0.995963        27.1015 
  99   0.0000       0.995966        27.1016 
 100   0.0000       1.039490        28.2860 
 101   0.0000       1.039493        28.2860 
 102   0.0000       1.229261        33.4499 
 103   0.0000       1.229267        33.4501 
 104   0.0000       1.238680        33.7062 
 105   0.0000       3.063843        83.3714 
 106   0.0000       3.141587        85.4869 
 107   0.0000       3.141589        85.4870 
 108   0.0000       3.142352        85.5077 
 109   0.0000       3.171647        86.3049 
 110   0.0000       3.171656        86.3051 
 111   0.0000       3.176594        86.4395 
 112   0.0000       3.176595        86.4395 
 113   0.0000       3.209444        87.3334 
 114   0.0000       3.299601        89.7867 
 115   0.0000       3.441867        93.6580 
 116   0.0000       3.467082        94.3441 
 117   0.0000       3.467086        94.3442 
 118   0.0000       3.470394        94.4342 
 119   0.0000       3.479842        94.6913 
 120   0.0000       3.479842        94.6913 
 121   0.0000       3.484220        94.8105 
 122   0.0000       3.486558        94.8741 
 123   0.0000       3.486561        94.8741 
 124   0.0000       3.487614        94.9028 
 125   0.0000       3.487617        94.9029 
 126   0.0000       3.489223        94.9466 
 127   0.0000       3.497455        95.1706 
 128   0.0000       3.498949        95.2112 
 129   0.0000       3.498954        95.2114 
 130   0.0000       3.507253        95.4372 
 131   0.0000       3.507271        95.4377 
 132   0.0000       3.532425        96.1222 
 133   0.0000       3.532429        96.1223 
 134   0.0000       3.532636        96.1279 
 135   0.0000       3.644474        99.1712 
 136   0.0000       3.723354       101.3176 
 137   0.0000       3.723360       101.3178 
 138   0.0000       3.829140       104.1962 
 139   0.0000       3.831431       104.2585 
 140   0.0000       3.831436       104.2587 
 141   0.0000       3.863725       105.1373 
 142   0.0000       3.884636       105.7063 
 143   0.0000       3.884638       105.7064 
 144   0.0000       3.903286       106.2138 
 145   0.0000       3.949660       107.4757 
 146   0.0000       3.949668       107.4759 
 147   0.0000       4.089472       111.2802 
 148   0.0000       4.089487       111.2806 
 149   0.0000       4.103041       111.6494 
 150   0.0000       4.122104       112.1682 
 151   0.0000       4.352478       118.4369 
 152   0.0000       4.352510       118.4378 
 153   0.0000      13.280732       361.3871 
 154   0.0000      13.281116       361.3975 
 155   0.0000      13.281395       361.4051 
 156   0.0000      13.281436       361.4062 
 157   0.0000      13.282063       361.4233 
 158   0.0000      13.282065       361.4234 
 159   0.0000      13.282080       361.4238 
 160   0.0000      13.282107       361.4245 
 161   0.0000      13.282154       361.4258 
 162   0.0000      13.282459       361.4341 
 163   0.0000      13.282711       361.4409 
 164   0.0000      13.282748       361.4420 
 165   0.0000      13.283270       361.4561 
 166   0.0000      13.283387       361.4593 
 167   0.0000      13.283679       361.4673 
 168   0.0000      13.283841       361.4717 
 169   0.0000      13.283894       361.4731 
 170   0.0000      13.283909       361.4735 
 171   0.0000      13.283956       361.4748 
 172   0.0000      13.284019       361.4765 
 173   0.0000      13.284059       361.4776 
 174   0.0000      13.284108       361.4790 
 175   0.0000      13.284114       361.4791 
 176   0.0000      13.284229       361.4822 
 177   0.0000      13.284240       361.4826 
 178   0.0000      13.285213       361.5090 
 179   0.0000      13.285266       361.5105 
 180   0.0000      13.504169       367.4671 
 181   0.0000      13.504194       367.4678 
 182   0.0000      13.504426       367.4741 
 183   0.0000      13.504430       367.4742 
 184   0.0000      13.504894       367.4868 
 185   0.0000      13.505187       367.4948 
 186   0.0000      13.506159       367.5213 
 187   0.0000      13.506162       367.5214 
 188   0.0000      13.506997       367.5441 
 189   0.0000      13.507711       367.5635 
 190   0.0000      13.507720       367.5637 
 191   0.0000      13.509670       367.6168 
 192   0.0000      13.515232       367.7681 
 193   0.0000      13.518037       367.8445 
 194   0.0000      13.521204       367.9307 
 195   0.0000      13.521209       367.9308 
 196   0.0000      13.523934       368.0050 
 197   0.0000      13.523940       368.0051 
 198   0.0000      13.601169       370.1066 
 199   0.0000      13.605274       370.2183 
 200   0.0000      13.605286       370.2186 

                    ********************************
                    * MULLIKEN POPULATION ANALYSIS *
                    ********************************

-----------------------
MULLIKEN ATOMIC CHARGES
-----------------------
   0 Cu:    0.333342
   1 Cu:    0.333328
   2 Cu:    0.333331
Sum of atomic charges:    1.0000000

--------------------------------
MULLIKEN REDUCED ORBITAL CHARGES
--------------------------------
  0 Cus       :     6.611079  s :     6.611079
      pz      :     4.006687  p :    12.097893
      px      :     4.005430
      py      :     4.085776
      dz2     :     1.995576  d :     9.957492
      dxz     :     1.998273
      dyz     :     1.994978
      dx2y2   :     1.990514
      dxy     :     1.978151
      f0      :     0.000019  f :     0.000194
      f+1     :     0.000009
      f-1     :     0.000034
      f+2     :     0.000017
      f-2     :     0.000026
      f+3     :     0.000042
      f-3     :     0.000047
      g0      :     0.000000  g :     0.000001
      g+1     :     0.000000
      g-1     :     0.000000
      g+2     :     0.000000
      g-2     :     0.000000
      g+3     :     0.000000
      g-3     :     0.000000
      g+4     :     0.000000
      g-4     :     0.000000
  1 Cus       :     6.611092  s :     6.611092
      pz      :     4.006686  p :    12.097893
      px      :     4.065690
      py      :     4.025517
      dz2     :     1.995575  d :     9.957493
      dxz     :     1.995802
      dyz     :     1.997449
      dx2y2   :     1.981245
      dxy     :     1.987422
      f0      :     0.000019  f :     0.000194
      f+1     :     0.000028
      f-1     :     0.000015
      f+2     :     0.000024
      f-2     :     0.000019
      f+3     :     0.000042
      f-3     :     0.000047
      g0      :     0.000000  g :     0.000001
      g+1     :     0.000000
      g-1     :     0.000000
      g+2     :     0.000000
      g-2     :     0.000000
      g+3     :     0.000000
      g-3     :     0.000000
      g+4     :     0.000000
      g-4     :     0.000000
  2 Cus       :     6.611090  s :     6.611090
      pz      :     4.006686  p :    12.097892
      px      :     4.065689
      py      :     4.025517
      dz2     :     1.995575  d :     9.957493
      dxz     :     1.995802
      dyz     :     1.997449
      dx2y2   :     1.981245
      dxy     :     1.987422
      f0      :     0.000019  f :     0.000194
      f+1     :     0.000028
      f-1     :     0.000015
      f+2     :     0.000024
      f-2     :     0.000019
      f+3     :     0.000042
      f-3     :     0.000047
      g0      :     0.000000  g :     0.000001
      g+1     :     0.000000
      g-1     :     0.000000
      g+2     :     0.000000
      g-2     :     0.000000
      g+3     :     0.000000
      g-3     :     0.000000
      g+4     :     0.000000
      g-4     :     0.000000


                     *******************************
                     * LOEWDIN POPULATION ANALYSIS *
                     *******************************

----------------------
LOEWDIN ATOMIC CHARGES
----------------------
   0 Cu:    0.333336
   1 Cu:    0.333332
   2 Cu:    0.333332

-------------------------------
LOEWDIN REDUCED ORBITAL CHARGES
-------------------------------
  0 Cus       :     6.450248  s :     6.450248
      pz      :     4.006987  p :    12.207629
      px      :     4.016585
      py      :     4.184057
      dz2     :     2.013148  d :    10.008291
      dxz     :     1.998226
      dyz     :     1.994659
      dx2y2   :     2.003061
      dxy     :     1.999198
      f0      :     0.000042  f :     0.000493
      f+1     :     0.000029
      f-1     :     0.000080
      f+2     :     0.000028
      f-2     :     0.000057
      f+3     :     0.000157
      f-3     :     0.000100
      g0      :     0.000000  g :     0.000002
      g+1     :     0.000000
      g-1     :     0.000000
      g+2     :     0.000000
      g-2     :     0.000000
      g+3     :     0.000000
      g-3     :     0.000000
      g+4     :     0.000000
      g-4     :     0.000000
  1 Cus       :     6.450252  s :     6.450252
      pz      :     4.006987  p :    12.207629
      px      :     4.142188
      py      :     4.058454
      dz2     :     2.013147  d :    10.008293
      dxz     :     1.995552
      dyz     :     1.997333
      dx2y2   :     2.000167
      dxy     :     2.002093
      f0      :     0.000042  f :     0.000493
      f+1     :     0.000067
      f-1     :     0.000042
      f+2     :     0.000050
      f-2     :     0.000035
      f+3     :     0.000157
      f-3     :     0.000100
      g0      :     0.000000  g :     0.000002
      g+1     :     0.000000
      g-1     :     0.000000
      g+2     :     0.000000
      g-2     :     0.000000
      g+3     :     0.000000
      g-3     :     0.000000
      g+4     :     0.000000
      g-4     :     0.000000
  2 Cus       :     6.450252  s :     6.450252
      pz      :     4.006987  p :    12.207629
      px      :     4.142188
      py      :     4.058454
      dz2     :     2.013147  d :    10.008293
      dxz     :     1.995552
      dyz     :     1.997333
      dx2y2   :     2.000167
      dxy     :     2.002093
      f0      :     0.000042  f :     0.000493
      f+1     :     0.000067
      f-1     :     0.000042
      f+2     :     0.000050
      f-2     :     0.000035
      f+3     :     0.000157
      f-3     :     0.000100
      g0      :     0.000000  g :     0.000002
      g+1     :     0.000000
      g-1     :     0.000000
      g+2     :     0.000000
      g-2     :     0.000000
      g+3     :     0.000000
      g-3     :     0.000000
      g+4     :     0.000000
      g-4     :     0.000000


                      *****************************
                      * MAYER POPULATION ANALYSIS *
                      *****************************

  NA   - Mulliken gross atomic population
  ZA   - Total nuclear charge
  QA   - Mulliken gross atomic charge
  VA   - Mayer's total valence
  BVA  - Mayer's bonded valence
  FA   - Mayer's free valence

  ATOM       NA         ZA         QA         VA         BVA        FA
  0 Cu    28.6667    29.0000     0.3333     0.9794     0.9794     0.0000
  1 Cu    28.6667    29.0000     0.3333     0.9794     0.9794     0.0000
  2 Cu    28.6667    29.0000     0.3333     0.9794     0.9794    -0.0000

  Mayer bond orders larger than 0.100000
B(  0-Cu,  1-Cu) :   0.4897 B(  0-Cu,  2-Cu) :   0.4897 B(  1-Cu,  2-Cu) :   0.4897 


-------
TIMINGS
-------

Total SCF time: 0 days 0 hours 0 min 6 sec 

Total time                  ....       6.930 sec
Sum of individual times     ....       6.779 sec  ( 97.8%)

Fock matrix formation       ....       6.143 sec  ( 88.7%)
  XC integration            ....       0.599 sec  (  9.8% of F)
    Basis function eval.    ....       0.068 sec  ( 11.3% of XC)
    Density eval.           ....       0.048 sec  (  8.0% of XC)
    XC-Functional eval.     ....       0.016 sec  (  2.7% of XC)
    XC-Potential eval.      ....       0.085 sec  ( 14.1% of XC)
Diagonalization             ....       0.102 sec  (  1.5%)
Density matrix formation    ....       0.017 sec  (  0.2%)
Population analysis         ....       0.006 sec  (  0.1%)
Initial guess               ....       0.129 sec  (  1.9%)
Orbital Transformation      ....       0.000 sec  (  0.0%)
Orbital Orthonormalization  ....       0.000 sec  (  0.0%)
DIIS solution               ....       0.055 sec  (  0.8%)
Grid generation             ....       0.326 sec  (  4.7%)


           ************************************************************
           *        Program running with 24 parallel MPI-processes    *
           *              working on a common directory               *
           ************************************************************

------------------------------------------------------------------------------
                                ORCA  MP2 
------------------------------------------------------------------------------

Freezing NCore=30 chemical core electrons

----------------------
RI-MP2 ENERGY+GRADIENT
----------------------
Dimension of the basis                    ...  201
Memory devoted to MP2                     ... 5000 MB   
Data format for buffers                   ... DOUBLE
Compression type for matrix containers    ... UNCOMPRESSED
Scaling for aa/bb pairs                   ...   4.000e-01
Scaling for ab pairs                      ...   4.700e-01
Overall scaling of the MP2 energy         ...   1.000e+00
Calculating two index integrals           ... done (    0.015 sec)
Cholesky decomposition of the V-matrix    ... done
Cholesky decomposition of V**-1           ... done (    0.028 sec)

-----------------
RI-TRANSFORMATION (AUX index driven)
-----------------

Dimension of the orbital-basis         ... 201
Dimension of the aux-basis             ... 675
Transformation of internal MOs         ...    0-  42
Transformation of internal/external MOs...    0-  42 to   43- 200
Number Format for Storage              ... Double (8 Byte)
Integral mode                          ... Direct

First Phase: integral generation and transformation of MO indices
  Aux angular momentum 0               ... done (    0.002 sec)
  Aux angular momentum 1               ... done (    0.004 sec)
  Aux angular momentum 2               ... done (    0.007 sec)
  Aux angular momentum 3               ... done (    0.005 sec)
  Aux angular momentum 4               ... done (    0.007 sec)
  Aux angular momentum 5               ... done (    0.011 sec)
  Aux angular momentum 6               ... done (    0.016 sec)
Closing buffer VIJ ( 0.00 GB; CompressionRatio= 1.00)
Closing buffer VIA ( 0.03 GB; CompressionRatio= 1.00)
  Phase 1 completed in     0.173 sec
Second Phase: sorting and transformation of aux index

IJ-Transformation
Memory available                       ... 4989 MB 
Max. # MO pairs treated in a batch     ... 2    
# of internal orbitals                 ... 43
# batches for internal orbitals        ... 1
Closing buffer IJV ( 0.00 GB; CompressionRatio= 1.00)
(ij|v) transformation done in     0.006 sec

IA-Transformation
Memory available                       ... 4989 MB 
Max. # MO pairs treated in a batch     ... 2    
# of internal orbitals                 ... 43
# batches for internal orbitals        ... 1
Closing buffer IAV ( 0.00 GB; CompressionRatio= 1.00)
(ia|v) transformation done in     0.021 sec

  Phase 2 completed in     0.085 sec
RI-Integral transformation completed in     0.259 sec
Opening buffers                              ... done
Frozen core precalculation                   ... done

Starting loop over batches of integrals:

Operator 0  - window                       ... ( 15- 42)x( 43-200)
Operator 0  - Memory available             ...  5000 MB
Operator 0  - Memory needed per MO         ...   1.6 MB
Operator 0  - Number of orbitals per batch ... 2
Operator 0  - Number of batches            ... 1

OPERATOR  0   PASS   0:  MOs    15 ...   16 +   17 ...   18 +   19 ...   20 +   21 ...   22
                            +   23 ...   24 +   25 ...   26 +   27 ...   28 +   29 ...   30
                            +   31 ...   32 +   33 ...   34 +   35 ...   36 +   37 ...   38
                            +   39 ...   40 +   41 ...   42
  Reading integrals       ... ok
Closing buffer GIPV ( 0.00 GB; CompressionRatio= 1.00)
Time spent in pair loops =     0.673 sec
Deleting buffer (Ka|jb)[aa] ...done

-----------------------------------------------
 RI-MP2 CORRELATION ENERGY:     -1.250053902 Eh
-----------------------------------------------


---------------------
MP2 DENSITY FORMATION
---------------------

Completing the external part of the density      ... done
Storing the unrelaxed density                    ... done

Calculating the xc-kernel                        ... done
Calculating G(D)                                 ... done
Completing the Lagrangian                        ... done
Solving the Z-vector equations                   ... 

------------------------------------------------------------------------------
                           ORCA CP-SCF CALCULATION
------------------------------------------------------------------------------

Input orbitals are from        ... Cu03C1_D3H.gbw
Input Perturbation             ... Cu03C1_D3H.pin.tmp
Wavefunction output            ... Cu03C1_D3H.pout.tmp
Perturbation mode              ... Real perturbation (singlet)
Solver                         ... POPLE
Max. number of iterations      ... 128
Convergence tolerance          ... 1.000e-08
Integral handling              ... Direct
Number of perturbations        ... 1
Number of operators            ... 1
Orbital ranges used for CP-SCF:
 Operator 0:  Orbitals   0... 42  to  43...200
DFT calculation                         ... on
Exchange functional (SCF)               ... B88
Exchange functional (CP-SCF)            ... B88
   X-Alpha parameter    XAlpha (SCF)    ...  0.666667
   X-Alpha parameter    XAlpha (CP-SCF) ...  0.666667
   Becke's b parameter  XBeta (SCF)     ...  0.004200
   Becke's b parameter  XBeta (CP-SCF)  ...  0.004200
Correlation functional (SCF)            ... LYP
Correlation functional (CP-SCF)         ... LYP
 LDA part of GGA corr.  LDAOpt (SCF)    ... VWN-5
 LDA part of GGA corr.  LDAOpt (CP-SCF) ... VWN-5
Hybrid DFT                              ... on
   Exchange mixing (SCF)                ...  0.710
   Exchange mixing (CP-SCF)             ...  0.710
   GGA exch. scaling(SCF)               ...  0.290
   GGA exch. scaling (CP-SCF)           ...  0.290
   GGA corr. scaling (SCF)              ...  0.540
   GGA corr. scaling (CP-SCF)           ...  0.540
Variables per vector in CP-SCF ... 6794
Number of vectors sought       ... 1
Recalculating density on grid  ... done
Calculating the xc-kernel      ... done
     CP-SCF ITERATION   0: 
     CP-SCF ITERATION   1:      0.003729411219
     CP-SCF ITERATION   2:      0.000235782608
     CP-SCF ITERATION   3:      0.000019696113
     CP-SCF ITERATION   4:      0.000002297586
     CP-SCF ITERATION   5:      0.000000169855
     CP-SCF ITERATION   6:      0.000000008858
done
Finalizing the relaxed density                   ... done
Transforming P to the AO basis                   ... done
Storing the relaxed density                      ... done

------------------------------------
ENERGY WEIGHTED DENSITY FINALIZATION
------------------------------------

Gathering the parts of the W-matrix              ... done
Forming the Z-density                            ... done
Transforming Z to the AO basis                   ... done
Calculating G(Z)                                 ... done
Finalizing the W-matrix                          ... done
Transforming W to the AO basis and storing       ... done
Entering the RIJONX and RIJCOSX sections
Starting the three-index derivative integrals:
Operator 0  - Memory available             ...  5000 MB
Operator 0  - Memory needed per MO         ...   2.1 MB
Operator 0  - Number of orbitals per batch ... 2
Operator 0  - Number of batches            ... 1

OPERATOR  0   PASS   0:  MOs    15 ...   16 +   17 ...   18 +   19 ...   20 +   21 ...   22
                            +   23 ...   24 +   25 ...   26 +   27 ...   28 +   29 ...   30
                            +   31 ...   32 +   33 ...   34 +   35 ...   36 +   37 ...   38
                            +   39 ...   40 +   41 ...   42

----------------------------------
MP2 DERIVATIVE INTEGRAL GENERATION
----------------------------------


Input Correlated Electron Density   ... Cu03C1_D3H.pmp2re
Input Energy Weighted Density       ... Cu03C1_D3H.wmp2.tmp
Input SCF Electron Density          ... Cu03C1_D3H.scfp

One-Electron Terms    ...
                        ... One-Electron Terms done
Prescreening matrices              ... done
Exchange-correlation gradient    ... done
Dispersion correction            ... done

                *********************************************
                * UNRELAXED MP2 DENSITY POPULATION ANALYSIS *
                *********************************************

------------------------------------------------------------------------------
                           ORCA POPULATION ANALYSIS
------------------------------------------------------------------------------
Input electron density              ... Cu03C1_D3H.pmp2ur
BaseName (.gbw .S,...)              ... Cu03C1_D3H

                    ********************************
                    * MULLIKEN POPULATION ANALYSIS *
                    ********************************

-----------------------
MULLIKEN ATOMIC CHARGES
-----------------------
   0 Cu:    0.333342
   1 Cu:    0.333327
   2 Cu:    0.333331
Sum of atomic charges:    1.0000000

--------------------------------
MULLIKEN REDUCED ORBITAL CHARGES
--------------------------------
  0 Cus       :     6.612541  s :     6.612541
      pz      :     4.011408  p :    12.104931
      px      :     4.009405
      py      :     4.084119
      dz2     :     1.990465  d :     9.931230
      dxz     :     1.993764
      dyz     :     1.990634
      dx2y2   :     1.985023
      dxy     :     1.971345
      f0      :     0.002358  f :     0.016598
      f+1     :     0.002347
      f-1     :     0.002371
      f+2     :     0.002356
      f-2     :     0.002370
      f+3     :     0.002394
      f-3     :     0.002401
      g0      :     0.000151  g :     0.001358
      g+1     :     0.000151
      g-1     :     0.000151
      g+2     :     0.000151
      g-2     :     0.000151
      g+3     :     0.000151
      g-3     :     0.000151
      g+4     :     0.000151
      g-4     :     0.000151
  1 Cus       :     6.612555  s :     6.612555
      pz      :     4.011408  p :    12.104932
      px      :     4.065440
      py      :     4.028084
      dz2     :     1.990463  d :     9.931231
      dxz     :     1.991417
      dyz     :     1.992981
      dx2y2   :     1.974767
      dxy     :     1.981602
      f0      :     0.002358  f :     0.016598
      f+1     :     0.002365
      f-1     :     0.002353
      f+2     :     0.002367
      f-2     :     0.002360
      f+3     :     0.002394
      f-3     :     0.002401
      g0      :     0.000151  g :     0.001358
      g+1     :     0.000151
      g-1     :     0.000151
      g+2     :     0.000151
      g-2     :     0.000151
      g+3     :     0.000151
      g-3     :     0.000151
      g+4     :     0.000151
      g-4     :     0.000151
  2 Cus       :     6.612552  s :     6.612552
      pz      :     4.011408  p :    12.104931
      px      :     4.065440
      py      :     4.028084
      dz2     :     1.990463  d :     9.931231
      dxz     :     1.991417
      dyz     :     1.992981
      dx2y2   :     1.974767
      dxy     :     1.981602
      f0      :     0.002358  f :     0.016598
      f+1     :     0.002365
      f-1     :     0.002353
      f+2     :     0.002367
      f-2     :     0.002360
      f+3     :     0.002394
      f-3     :     0.002401
      g0      :     0.000151  g :     0.001358
      g+1     :     0.000151
      g-1     :     0.000151
      g+2     :     0.000151
      g-2     :     0.000151
      g+3     :     0.000151
      g-3     :     0.000151
      g+4     :     0.000151
      g-4     :     0.000151


                     *******************************
                     * LOEWDIN POPULATION ANALYSIS *
                     *******************************

----------------------
LOEWDIN ATOMIC CHARGES
----------------------
   0 Cu:    0.333337
   1 Cu:    0.333332
   2 Cu:    0.333332

-------------------------------
LOEWDIN REDUCED ORBITAL CHARGES
-------------------------------
  0 Cus       :     6.445300  s :     6.445300
      pz      :     4.011550  p :    12.217930
      px      :     4.022625
      py      :     4.183755
      dz2     :     2.008454  d :     9.985092
      dxz     :     1.993772
      dyz     :     1.990407
      dx2y2   :     1.998206
      dxy     :     1.994253
      f0      :     0.002385  f :     0.016982
      f+1     :     0.002374
      f-1     :     0.002438
      f+2     :     0.002369
      f-2     :     0.002406
      f+3     :     0.002549
      f-3     :     0.002461
      g0      :     0.000151  g :     0.001359
      g+1     :     0.000151
      g-1     :     0.000151
      g+2     :     0.000151
      g-2     :     0.000151
      g+3     :     0.000151
      g-3     :     0.000151
      g+4     :     0.000151
      g-4     :     0.000151
  1 Cus       :     6.445304  s :     6.445304
      pz      :     4.011550  p :    12.217930
      px      :     4.143472
      py      :     4.062909
      dz2     :     2.008453  d :     9.985093
      dxz     :     1.991250
      dyz     :     1.992930
      dx2y2   :     1.995245
      dxy     :     1.997215
      f0      :     0.002385  f :     0.016982
      f+1     :     0.002422
      f-1     :     0.002390
      f+2     :     0.002397
      f-2     :     0.002378
      f+3     :     0.002549
      f-3     :     0.002461
      g0      :     0.000151  g :     0.001359
      g+1     :     0.000151
      g-1     :     0.000151
      g+2     :     0.000151
      g-2     :     0.000151
      g+3     :     0.000151
      g-3     :     0.000151
      g+4     :     0.000151
      g-4     :     0.000151
  2 Cus       :     6.445303  s :     6.445303
      pz      :     4.011550  p :    12.217930
      px      :     4.143472
      py      :     4.062909
      dz2     :     2.008453  d :     9.985093
      dxz     :     1.991250
      dyz     :     1.992930
      dx2y2   :     1.995245
      dxy     :     1.997215
      f0      :     0.002385  f :     0.016982
      f+1     :     0.002422
      f-1     :     0.002390
      f+2     :     0.002397
      f-2     :     0.002378
      f+3     :     0.002549
      f-3     :     0.002461
      g0      :     0.000151  g :     0.001359
      g+1     :     0.000151
      g-1     :     0.000151
      g+2     :     0.000151
      g-2     :     0.000151
      g+3     :     0.000151
      g-3     :     0.000151
      g+4     :     0.000151
      g-4     :     0.000151


                      *****************************
                      * MAYER POPULATION ANALYSIS *
                      *****************************

  NA   - Mulliken gross atomic population
  ZA   - Total nuclear charge
  QA   - Mulliken gross atomic charge
  VA   - Mayer's total valence
  BVA  - Mayer's bonded valence
  FA   - Mayer's free valence

  ATOM       NA         ZA         QA         VA         BVA        FA
  0 Cu    28.6667    29.0000     0.3333     1.5103     0.9194     0.5909
  1 Cu    28.6667    29.0000     0.3333     1.5103     0.9194     0.5909
  2 Cu    28.6667    29.0000     0.3333     1.5103     0.9194     0.5909

  Mayer bond orders larger than 0.100000
B(  0-Cu,  1-Cu) :   0.4597 B(  0-Cu,  2-Cu) :   0.4597 B(  1-Cu,  2-Cu) :   0.4597 



                *******************************************
                * RELAXED MP2 DENSITY POPULATION ANALYSIS *
                *******************************************

------------------------------------------------------------------------------
                           ORCA POPULATION ANALYSIS
------------------------------------------------------------------------------
Input electron density              ... Cu03C1_D3H.pmp2re
BaseName (.gbw .S,...)              ... Cu03C1_D3H

                    ********************************
                    * MULLIKEN POPULATION ANALYSIS *
                    ********************************

-----------------------
MULLIKEN ATOMIC CHARGES
-----------------------
   0 Cu:    0.333336
   1 Cu:    0.333331
   2 Cu:    0.333333
Sum of atomic charges:    1.0000000

--------------------------------
MULLIKEN REDUCED ORBITAL CHARGES
--------------------------------
  0 Cus       :     6.646353  s :     6.646353
      pz      :     4.015282  p :    12.100829
      px      :     4.014012
      py      :     4.071534
      dz2     :     1.987193  d :     9.901487
      dxz     :     1.992762
      dyz     :     1.987746
      dx2y2   :     1.978149
      dxy     :     1.955637
      f0      :     0.002363  f :     0.016637
      f+1     :     0.002349
      f-1     :     0.002377
      f+2     :     0.002360
      f-2     :     0.002376
      f+3     :     0.002400
      f-3     :     0.002412
      g0      :     0.000151  g :     0.001358
      g+1     :     0.000151
      g-1     :     0.000151
      g+2     :     0.000151
      g-2     :     0.000151
      g+3     :     0.000151
      g-3     :     0.000151
      g+4     :     0.000151
      g-4     :     0.000151
  1 Cus       :     6.646360  s :     6.646360
      pz      :     4.015282  p :    12.100826
      px      :     4.057152
      py      :     4.028392
      dz2     :     1.987191  d :     9.901487
      dxz     :     1.989001
      dyz     :     1.991507
      dx2y2   :     1.961269
      dxy     :     1.972518
      f0      :     0.002363  f :     0.016637
      f+1     :     0.002370
      f-1     :     0.002356
      f+2     :     0.002372
      f-2     :     0.002364
      f+3     :     0.002400
      f-3     :     0.002412
      g0      :     0.000151  g :     0.001358
      g+1     :     0.000151
      g-1     :     0.000151
      g+2     :     0.000151
      g-2     :     0.000151
      g+3     :     0.000151
      g-3     :     0.000151
      g+4     :     0.000151
      g-4     :     0.000151
  2 Cus       :     6.646359  s :     6.646359
      pz      :     4.015282  p :    12.100826
      px      :     4.057151
      py      :     4.028392
      dz2     :     1.987191  d :     9.901487
      dxz     :     1.989001
      dyz     :     1.991507
      dx2y2   :     1.961269
      dxy     :     1.972518
      f0      :     0.002363  f :     0.016637
      f+1     :     0.002370
      f-1     :     0.002356
      f+2     :     0.002372
      f-2     :     0.002364
      f+3     :     0.002400
      f-3     :     0.002412
      g0      :     0.000151  g :     0.001358
      g+1     :     0.000151
      g-1     :     0.000151
      g+2     :     0.000151
      g-2     :     0.000151
      g+3     :     0.000151
      g-3     :     0.000151
      g+4     :     0.000151
      g-4     :     0.000151


                     *******************************
                     * LOEWDIN POPULATION ANALYSIS *
                     *******************************

----------------------
LOEWDIN ATOMIC CHARGES
----------------------
   0 Cu:    0.333337
   1 Cu:    0.333331
   2 Cu:    0.333331

-------------------------------
LOEWDIN REDUCED ORBITAL CHARGES
-------------------------------
  0 Cus       :     6.449537  s :     6.449537
      pz      :     4.015903  p :    12.231271
      px      :     4.031043
      py      :     4.184325
      dz2     :     2.009696  d :     9.967457
      dxz     :     1.992779
      dyz     :     1.987027
      dx2y2   :     1.993788
      dxy     :     1.984168
      f0      :     0.002392  f :     0.017038
      f+1     :     0.002377
      f-1     :     0.002443
      f+2     :     0.002374
      f-2     :     0.002415
      f+3     :     0.002560
      f-3     :     0.002478
      g0      :     0.000151  g :     0.001359
      g+1     :     0.000151
      g-1     :     0.000151
      g+2     :     0.000151
      g-2     :     0.000151
      g+3     :     0.000151
      g-3     :     0.000151
      g+4     :     0.000151
      g-4     :     0.000151
  1 Cus       :     6.449540  s :     6.449540
      pz      :     4.015903  p :    12.231272
      px      :     4.146004
      py      :     4.069365
      dz2     :     2.009694  d :     9.967460
      dxz     :     1.988467
      dyz     :     1.991339
      dx2y2   :     1.986580
      dxy     :     1.991380
      f0      :     0.002392  f :     0.017038
      f+1     :     0.002427
      f-1     :     0.002393
      f+2     :     0.002405
      f-2     :     0.002384
      f+3     :     0.002560
      f-3     :     0.002478
      g0      :     0.000151  g :     0.001359
      g+1     :     0.000151
      g-1     :     0.000151
      g+2     :     0.000151
      g-2     :     0.000151
      g+3     :     0.000151
      g-3     :     0.000151
      g+4     :     0.000151
      g-4     :     0.000151
  2 Cus       :     6.449540  s :     6.449540
      pz      :     4.015903  p :    12.231272
      px      :     4.146004
      py      :     4.069365
      dz2     :     2.009694  d :     9.967460
      dxz     :     1.988467
      dyz     :     1.991339
      dx2y2   :     1.986580
      dxy     :     1.991380
      f0      :     0.002392  f :     0.017038
      f+1     :     0.002427
      f-1     :     0.002393
      f+2     :     0.002405
      f-2     :     0.002384
      f+3     :     0.002560
      f-3     :     0.002478
      g0      :     0.000151  g :     0.001359
      g+1     :     0.000151
      g-1     :     0.000151
      g+2     :     0.000151
      g-2     :     0.000151
      g+3     :     0.000151
      g-3     :     0.000151
      g+4     :     0.000151
      g-4     :     0.000151


                      *****************************
                      * MAYER POPULATION ANALYSIS *
                      *****************************

  NA   - Mulliken gross atomic population
  ZA   - Total nuclear charge
  QA   - Mulliken gross atomic charge
  VA   - Mayer's total valence
  BVA  - Mayer's bonded valence
  FA   - Mayer's free valence

  ATOM       NA         ZA         QA         VA         BVA        FA
  0 Cu    28.6667    29.0000     0.3333     1.5508     0.9935     0.5573
  1 Cu    28.6667    29.0000     0.3333     1.5508     0.9935     0.5573
  2 Cu    28.6667    29.0000     0.3333     1.5508     0.9935     0.5573

  Mayer bond orders larger than 0.100000
B(  0-Cu,  1-Cu) :   0.4967 B(  0-Cu,  2-Cu) :   0.4967 B(  1-Cu,  2-Cu) :   0.4967 



-------
TIMINGS
-------

Total time                :   19.133 sec
Integral trafo            :    0.271 sec (  1.4%)
FC preparation            :    0.033 sec (  0.2%)
I/O of integrals          :    0.004 sec (  0.0%)
K(i,j) Operators          :    0.039 sec (  0.2%)
T(i,j) pair energies      :    0.007 sec (  0.0%)
V-calculation             :    0.015 sec (  0.1%)
V**(-1/2)                 :    0.028 sec (  0.1%)
Gamma(ia|P)               :    0.027 sec (  0.1%)
Gamma-Trafo               :    0.014 sec (  0.1%)
D(virtual)                :    0.001 sec (  0.0%)
D(internal)               :    0.064 sec (  0.3%)
W(virtual)                :    0.001 sec (  0.0%)
W(internal)               :    0.052 sec (  0.3%)
L(virtual)                :    0.370 sec (  1.9%)
L(internal)               :    0.004 sec (  0.0%)
G(D)                      :    1.508 sec (  7.9%)
G(Z)                      :    1.419 sec (  7.4%)
Z-Vector Solution         :    7.639 sec ( 39.9%)
Z-Vector Solution         :    7.639 sec ( 39.9%)
3-Index Derivative 
+ Separable RIJ part      :    2.379 sec ( 12.4%)
2-Index Derivative 
+ Separable RIJ part      :    0.012 sec (  0.1%)
Separable Gradient (X)    :    4.618 sec ( 24.1%)


---------------------------------------
MP2 TOTAL ENERGY:    -4920.342618087 Eh
---------------------------------------

-----------------------------------
NORM OF THE MP2 GRADIENT:  0.027390
-----------------------------------


-------------------------------------------------------------------------------
                          DFT DISPERSION CORRECTION                            
                                                                               
                              DFTD3 V3.1  Rev 1                                
                          USING Becke-Johnson damping                          
-------------------------------------------------------------------------------
The DSD-BLYP/2013 functional is recognized
Active option DFTDOPT                   ...         4   

molecular C6(AA) [au] = 1575.005828 


            DFT-D V3
 parameters
 s6 scaling factor         :     0.5700 
 a1 scaling factor         :     0.0000 
 s8 scaling factor         :     0.0000 
 a2 scaling factor         :     5.4000 
 ad hoc parameters k1-k3   :    16.0000     1.3333    -4.0000 

 Edisp/kcal,au: -5.829290406335  -0.009289564581 
 E6   /kcal   :  -5.829290406 
 E8   /kcal   :  -0.000000000 
 % E8         :   0.000000000 

-------------------------   ----------------
Dispersion correction           -0.009289565
-------------------------   ----------------


-------------------------   --------------------
FINAL SINGLE POINT ENERGY     -4920.351907651323
-------------------------   --------------------

------------------------------------------------------------------------------
                         ORCA GEOMETRY RELAXATION STEP
------------------------------------------------------------------------------

Reading the OPT-File                    .... done
Getting information on internals        .... done
Copying old internal coords+grads       .... done
Making the new internal coordinates     .... (new redundants).... done
Validating the new internal coordinates .... (new redundants).... done
Calculating the B-matrix                .... done
Calculating the G,G- and P matrices     .... done
Transforming gradient to internals      .... done
Projecting the internal gradient        .... done
Number of atoms                         ....   3
Number of internal coordinates          ....   6
Current Energy                          .... -4920.351907651 Eh
Current gradient norm                   ....     0.027390241 Eh/bohr
Maximum allowed component of the step   ....  0.300
Current trust radius                    ....  0.300
Evaluating the initial hessian          ....  (Almloef) done
Projecting the Hessian                  .... done
Forming the augmented Hessian           .... done
Diagonalizing the augmented Hessian     .... done
Last element of RFO vector              ....  0.999967885
Lowest eigenvalues of augmented Hessian:
 -0.000126740  1.850211544  1.850211632  1.973136365 1000.000000000
Length of the computed step             ....  0.008014535
The final length of the internal step   ....  0.008014535
Converting the step to cartesian space:
 Initial RMS(Int)=    0.0032719204
Transforming coordinates:
 Iter   0:  RMS(Cart)=    0.0015424000 RMS(Int)=    0.0032719204
 Iter   1:  RMS(Cart)=    0.0000000005 RMS(Int)=    0.0000000008
done
Storing new coordinates                 .... done

                                .--------------------.
          ----------------------|Geometry convergence|-------------------------
          Item                value                   Tolerance       Converged
          ---------------------------------------------------------------------
          RMS gradient        0.0064559437            0.0001000000      NO
          MAX gradient        0.0091405330            0.0003000000      NO
          RMS step            0.0032719204            0.0020000000      NO
          MAX step            0.0046328413            0.0040000000      NO
          ........................................................
          Max(Bonds)      0.0025      Max(Angles)    0.00
          Max(Dihed)        0.00      Max(Improp)    0.00
          ---------------------------------------------------------------------

The optimization has not yet converged - more geometry cycles are needed


    ---------------------------------------------------------------------------
                         Redundant Internal Coordinates
                            (Angstroem and degrees)

        Definition                    Value    dE/dq     Step     New-Value
    ----------------------------------------------------------------------------
     1. B(Cu  1,Cu  0)                2.3370 -0.009141  0.0025    2.3394   
     2. B(Cu  2,Cu  1)                2.3370 -0.009109  0.0024    2.3394   
     3. B(Cu  2,Cu  0)                2.3370 -0.009141  0.0025    2.3394   
     4. A(Cu  1,Cu  0,Cu  2)           60.00  0.000008   -0.00     60.00   
     5. A(Cu  0,Cu  1,Cu  2)           60.00 -0.000004    0.00     60.00   
     6. A(Cu  0,Cu  2,Cu  1)           60.00 -0.000004    0.00     60.00   
    ----------------------------------------------------------------------------

         *************************************************************
         *                GEOMETRY OPTIMIZATION CYCLE   2            *
         *************************************************************
---------------------------------
CARTESIAN COORDINATES (ANGSTROEM)
---------------------------------
  Cu     0.000000    1.350678    0.000000
  Cu     1.169715   -0.675339    0.000000
  Cu    -1.169715   -0.675339    0.000000

----------------------------
CARTESIAN COORDINATES (A.U.)
----------------------------
  NO LB      ZA    FRAG     MASS         X           Y           Z
   0 Cu   29.0000    0    63.550    0.000000    2.552412    0.000000
   1 Cu   29.0000    0    63.550    2.210442   -1.276205    0.000000
   2 Cu   29.0000    0    63.550   -2.210442   -1.276205    0.000000

--------------------------------
INTERNAL COORDINATES (ANGSTROEM)
--------------------------------
 Cu     0   0   0     0.000000000000     0.00000000     0.00000000
 Cu     1   0   0     2.339439612012     0.00000000     0.00000000
 Cu     2   1   0     2.339430618456    60.00012725     0.00000000

---------------------------
INTERNAL COORDINATES (A.U.)
---------------------------
 Cu     0   0   0     0.000000000000     0.00000000     0.00000000
 Cu     1   0   0     4.420900173550     0.00000000     0.00000000
 Cu     2   1   0     4.420883178192    60.00012725     0.00000000



           ************************************************************
           *        Program running with 24 parallel MPI-processes    *
           *              working on a common directory               *
           ************************************************************
 One Electron integrals                  ... done
 Pre-screening matrix                    ... done


           ************************************************************
           *        Program running with 24 parallel MPI-processes    *
           *              working on a common directory               *
           ************************************************************

Diagonalization of the overlap matrix:
Smallest eigenvalue                        ... 7.703e-04
Time for diagonalization                   ...    0.009 sec
Threshold for overlap eigenvalues          ... 1.000e-08
Number of eigenvalues below threshold      ... 0
Time for construction of square roots      ...    0.005 sec
Total time needed                          ...    0.015 sec

-------------------
DFT GRID GENERATION
-------------------

General Integration Accuracy     IntAcc      ...  4.670
Radial Grid Type                 RadialGrid  ... Gauss-Chebyshev
Angular Grid (max. acc.)         AngularGrid ... Lebedev-302
Angular grid pruning method      GridPruning ... 3 (G Style)
Weight generation scheme         WeightScheme... Becke
Basis function cutoff            BFCut       ...    1.0000e-11
Integration weight cutoff        WCut        ...    1.0000e-14
Grids for H and He will be reduced by one unit

# of grid points (after initial pruning)     ...  28668 (   0.0 sec)
# of grid points (after weights+screening)   ...  28566 (   0.0 sec)
nearest neighbour list constructed           ...    0.0 sec
Grid point re-assignment to atoms done       ...    0.0 sec
Grid point division into batches done        ...    0.2 sec
Reduced shell lists constructed in    0.2 sec

Total number of grid points                  ...    28566
Total number of batches                      ...      448
Average number of points per batch           ...       63
Average number of grid points per atom       ...     9522
Average number of shells per batch           ...    13.70 (24.04%)
Average number of basis functions per batch  ...    38.50 (19.15%)
Average number of large shells per batch     ...    10.10 (73.72%)
Average number of large basis fcns per batch ...    28.00 (72.73%)
Average number of aux-shells per batch       ...    13.70 ( 7.87%)
Average number of aux functions per batch    ...    38.50 ( 4.86%)
Maximum spatial batch extension              ...  20.09, 17.16, 22.17 au
Average spatial batch extension              ...   0.56,  0.48,  0.54 au

Time for grid setup =    0.339 sec

--------------
SCF ITERATIONS
--------------
ITER       Energy         Delta-E        Max-DP      RMS-DP      [F,P]     Damp
  0  -4919.0927625365   0.000000000000 0.00006966  0.00000175  0.0010040 0.7000
  1  -4919.0931024479  -0.000339911375 0.00007293  0.00000174  0.0007040 0.7000
                               ***Turning on DIIS***
  2  -4919.0930068102   0.000095637684 0.00020174  0.00000476  0.0004928 0.0000
  3  -4919.0927628585   0.000243951641 0.00003032  0.00000130  0.0000559 0.0000
  4  -4919.0927628729  -0.000000014386 0.00001725  0.00000053  0.0000545 0.0000
  5  -4919.0927628789  -0.000000005984 0.00000667  0.00000021  0.0000303 0.0000
  6  -4919.0927628812  -0.000000002237 0.00000133  0.00000005  0.0000039 0.0000
                            ***DIIS convergence achieved***

               *****************************************************
               *                     SUCCESS                       *
               *           SCF CONVERGED AFTER   7 CYCLES          *
               *****************************************************

Total Energy       :        -4919.09276288 Eh         -133855.31915 eV
  Last Energy change         ...   -8.1855e-12  Tolerance :   1.0000e-08
  Last MAX-Density change    ...    9.9060e-07  Tolerance :   1.0000e-07
             **** THE GBW FILE WAS UPDATED (Cu03C1_D3H.gbw) ****
             **** DENSITY FILE WAS UPDATED (Cu03C1_D3H.scfp) ****
             **** ENERGY FILE WAS UPDATED (Cu03C1_D3H.en.tmp) ****
             **** THE GBW FILE WAS UPDATED (Cu03C1_D3H.gbw) ****
             **** DENSITY FILE WAS UPDATED (Cu03C1_D3H.scfp) ****
Total SCF time: 0 days 0 hours 0 min 3 sec 


           ************************************************************
           *        Program running with 24 parallel MPI-processes    *
           *              working on a common directory               *
           ************************************************************

------------------------------------------------------------------------------
                                ORCA  MP2 
------------------------------------------------------------------------------

Freezing NCore=30 chemical core electrons

----------------------
RI-MP2 ENERGY+GRADIENT
----------------------
Dimension of the basis                    ...  201
Memory devoted to MP2                     ... 5000 MB   
Data format for buffers                   ... DOUBLE
Compression type for matrix containers    ... UNCOMPRESSED
Scaling for aa/bb pairs                   ...   4.000e-01
Scaling for ab pairs                      ...   4.700e-01
Overall scaling of the MP2 energy         ...   1.000e+00
Calculating two index integrals           ... done (    0.013 sec)
Cholesky decomposition of the V-matrix    ... done
Cholesky decomposition of V**-1           ... done (    0.028 sec)

-----------------
RI-TRANSFORMATION (AUX index driven)
-----------------

Dimension of the orbital-basis         ... 201
Dimension of the aux-basis             ... 675
Transformation of internal MOs         ...    0-  42
Transformation of internal/external MOs...    0-  42 to   43- 200
Number Format for Storage              ... Double (8 Byte)
Integral mode                          ... Direct

First Phase: integral generation and transformation of MO indices
  Aux angular momentum 0               ... done (    0.002 sec)
  Aux angular momentum 1               ... done (    0.004 sec)
  Aux angular momentum 2               ... done (    0.007 sec)
  Aux angular momentum 3               ... done (    0.005 sec)
  Aux angular momentum 4               ... done (    0.007 sec)
  Aux angular momentum 5               ... done (    0.011 sec)
  Aux angular momentum 6               ... done (    0.016 sec)
Closing buffer VIJ ( 0.00 GB; CompressionRatio= 1.00)
Closing buffer VIA ( 0.03 GB; CompressionRatio= 1.00)
  Phase 1 completed in     0.156 sec
Second Phase: sorting and transformation of aux index

IJ-Transformation
Memory available                       ... 4989 MB 
Max. # MO pairs treated in a batch     ... 2    
# of internal orbitals                 ... 43
# batches for internal orbitals        ... 1
Closing buffer IJV ( 0.00 GB; CompressionRatio= 1.00)
(ij|v) transformation done in     0.007 sec

IA-Transformation
Memory available                       ... 4989 MB 
Max. # MO pairs treated in a batch     ... 2    
# of internal orbitals                 ... 43
# batches for internal orbitals        ... 1
Closing buffer IAV ( 0.00 GB; CompressionRatio= 1.00)
(ia|v) transformation done in     0.021 sec

  Phase 2 completed in     0.087 sec
RI-Integral transformation completed in     0.245 sec
Opening buffers                              ... done
Frozen core precalculation                   ... done

Starting loop over batches of integrals:

[...]
      f+3     :     0.002480
      f-3     :     0.002425
      g0      :     0.000151  g :     0.001357
      g+1     :     0.000151
      g-1     :     0.000151
      g+2     :     0.000151
      g-2     :     0.000151
      g+3     :     0.000151
      g-3     :     0.000151
      g+4     :     0.000151
      g-4     :     0.000151
  2 Cus       :     6.453071  s :     6.453071
      pz      :     4.013567  p :    12.220985
      px      :     4.142108
      py      :     4.065310
      dz2     :     2.010532  d :     9.974512
      dxz     :     1.989916
      dyz     :     1.992178
      dx2y2   :     1.988318
      dxy     :     1.993569
      f0      :     0.002362  f :     0.016759
      f+1     :     0.002394
      f-1     :     0.002366
      f+2     :     0.002373
      f-2     :     0.002359
      f+3     :     0.002480
      f-3     :     0.002425
      g0      :     0.000151  g :     0.001357
      g+1     :     0.000151
      g-1     :     0.000151
      g+2     :     0.000151
      g-2     :     0.000151
      g+3     :     0.000151
      g-3     :     0.000151
      g+4     :     0.000151
      g-4     :     0.000151


                      *****************************
                      * MAYER POPULATION ANALYSIS *
                      *****************************

  NA   - Mulliken gross atomic population
  ZA   - Total nuclear charge
  QA   - Mulliken gross atomic charge
  VA   - Mayer's total valence
  BVA  - Mayer's bonded valence
  FA   - Mayer's free valence

  ATOM       NA         ZA         QA         VA         BVA        FA
  0 Cu    28.6665    29.0000     0.3335     1.5274     0.9728     0.5546
  1 Cu    28.6667    29.0000     0.3333     1.5276     0.9730     0.5546
  2 Cu    28.6667    29.0000     0.3333     1.5276     0.9730     0.5546

  Mayer bond orders larger than 0.100000
B(  0-Cu,  1-Cu) :   0.4864 B(  0-Cu,  2-Cu) :   0.4864 B(  1-Cu,  2-Cu) :   0.4866 



-------
TIMINGS
-------

Total time                :   20.080 sec
Integral trafo            :    0.221 sec (  1.1%)
FC preparation            :    0.035 sec (  0.2%)
I/O of integrals          :    0.004 sec (  0.0%)
K(i,j) Operators          :    0.039 sec (  0.2%)
T(i,j) pair energies      :    0.007 sec (  0.0%)
V-calculation             :    0.011 sec (  0.1%)
V**(-1/2)                 :    0.028 sec (  0.1%)
Gamma(ia|P)               :    0.028 sec (  0.1%)
Gamma-Trafo               :    0.014 sec (  0.1%)
D(virtual)                :    0.001 sec (  0.0%)
D(internal)               :    0.066 sec (  0.3%)
W(virtual)                :    0.001 sec (  0.0%)
W(internal)               :    0.054 sec (  0.3%)
L(virtual)                :    0.375 sec (  1.9%)
L(internal)               :    0.004 sec (  0.0%)
G(D)                      :    1.504 sec (  7.5%)
G(Z)                      :    1.447 sec (  7.2%)
Z-Vector Solution         :    8.724 sec ( 43.4%)
Z-Vector Solution         :    8.724 sec ( 43.4%)
3-Index Derivative 
+ Separable RIJ part      :    2.254 sec ( 11.2%)
2-Index Derivative 
+ Separable RIJ part      :    0.012 sec (  0.1%)
Separable Gradient (X)    :    4.484 sec ( 22.3%)


---------------------------------------
MP2 TOTAL ENERGY:    -4920.342879654 Eh
---------------------------------------

-----------------------------------
NORM OF THE MP2 GRADIENT:  0.000037
-----------------------------------


-------------------------------------------------------------------------------
                          DFT DISPERSION CORRECTION                            
                                                                               
                              DFTD3 V3.1  Rev 1                                
                          USING Becke-Johnson damping                          
-------------------------------------------------------------------------------
The DSD-BLYP/2013 functional is recognized
Active option DFTDOPT                   ...         4   

molecular C6(AA) [au] = 1575.063542 


            DFT-D V3
 parameters
 s6 scaling factor         :     0.5700 
 a1 scaling factor         :     0.0000 
 s8 scaling factor         :     0.0000 
 a2 scaling factor         :     5.4000 
 ad hoc parameters k1-k3   :    16.0000     1.3333    -4.0000 

 Edisp/kcal,au: -5.514924945839  -0.008788591385 
 E6   /kcal   :  -5.514924946 
 E8   /kcal   :  -0.000000000 
 % E8         :   0.000000000 

-------------------------   ----------------
Dispersion correction           -0.008788591
-------------------------   ----------------


-------------------------   --------------------
FINAL SINGLE POINT ENERGY     -4920.351668245614
-------------------------   --------------------

                                *** OPTIMIZATION RUN DONE ***

                            ***************************************
                            *     ORCA property calculations      *
                            ***************************************

                                    ---------------------
                                    Active property flags
                                    ---------------------
   (+) Dipole Moment


------------------------------------------------------------------------------
                       ORCA ELECTRIC PROPERTIES CALCULATION
------------------------------------------------------------------------------

Dipole Moment Calculation                       ... on
Quadrupole Moment Calculation                   ... off
Polarizability Calculation                      ... off
GBWName                                         ... Cu03C1_D3H.gbw
Electron density file                           ... Cu03C1_D3H.scfp
The origin for moment calculation is the CENTER OF MASS  = (-0.000000,  0.000001  0.000000)

-------------
DIPOLE MOMENT
-------------
                                X             Y             Z
Electronic contribution:      0.00000       0.00018       0.00000
Nuclear contribution   :      0.00000       0.00000       0.00000
                        -----------------------------------------
Total Dipole Moment    :      0.00000       0.00018       0.00000
                        -----------------------------------------
Magnitude (a.u.)       :      0.00018
Magnitude (Debye)      :      0.00045



--------------------
Rotational spectrum 
--------------------
 
Rotational constants in cm-1:     0.090250     0.090215     0.045116 
Rotational constants in MHz :  2705.629607  2704.581150  1352.552639 

 Dipole components along the rotational axes: 
x,y,z [a.u.] :    -0.000176    -0.000000     0.000000 
x,y,z [Debye]:    -0.000448    -0.000000     0.000000 

 

                         *** MP2 UNRELAXED DENSITY ***

------------------------------------------------------------------------------
                       ORCA ELECTRIC PROPERTIES CALCULATION
------------------------------------------------------------------------------

Dipole Moment Calculation                       ... on
Quadrupole Moment Calculation                   ... off
Polarizability Calculation                      ... off
GBWName                                         ... Cu03C1_D3H.gbw
Electron density file                           ... Cu03C1_D3H.pmp2ur
The origin for moment calculation is the CENTER OF MASS  = (-0.000000,  0.000001  0.000000)

-------------
DIPOLE MOMENT
-------------
                                X             Y             Z
Electronic contribution:      0.00000       0.00018       0.00000
Nuclear contribution   :      0.00000       0.00000       0.00000
                        -----------------------------------------
Total Dipole Moment    :      0.00000       0.00018       0.00000
                        -----------------------------------------
Magnitude (a.u.)       :      0.00018
Magnitude (Debye)      :      0.00045



--------------------
Rotational spectrum 
--------------------
 
Rotational constants in cm-1:     0.090250     0.090215     0.045116 
Rotational constants in MHz :  2705.629607  2704.581150  1352.552639 

 Dipole components along the rotational axes: 
x,y,z [a.u.] :    -0.000177    -0.000000     0.000000 
x,y,z [Debye]:    -0.000450    -0.000000     0.000000 

 

                           *** MP2 RELAXED DENSITY ***

------------------------------------------------------------------------------
                       ORCA ELECTRIC PROPERTIES CALCULATION
------------------------------------------------------------------------------

Dipole Moment Calculation                       ... on
Quadrupole Moment Calculation                   ... off
Polarizability Calculation                      ... off
GBWName                                         ... Cu03C1_D3H.gbw
Electron density file                           ... Cu03C1_D3H.pmp2re
The origin for moment calculation is the CENTER OF MASS  = (-0.000000,  0.000001  0.000000)

-------------
DIPOLE MOMENT
-------------
                                X             Y             Z
Electronic contribution:      0.00000       0.00021       0.00000
Nuclear contribution   :      0.00000       0.00000       0.00000
                        -----------------------------------------
Total Dipole Moment    :      0.00000       0.00021       0.00000
                        -----------------------------------------
Magnitude (a.u.)       :      0.00021
Magnitude (Debye)      :      0.00054



--------------------
Rotational spectrum 
--------------------
 
Rotational constants in cm-1:     0.090250     0.090215     0.045116 
Rotational constants in MHz :  2705.629607  2704.581150  1352.552639 

 Dipole components along the rotational axes: 
x,y,z [a.u.] :    -0.000213    -0.000000     0.000000 
x,y,z [Debye]:    -0.000542    -0.000000     0.000000 

 

----------------------------------------------------------------------------
                           ORCA NUMERICAL FREQUENCIES
                              (24-process run)
----------------------------------------------------------------------------

Number of atoms                ... 3
Central differences            ... used
Number of displacements        ... 18
Numerical increment            ... 5.000e-03 bohr
IR-spectrum generation         ... on
Raman-spectrum generation      ... off
Surface Crossing Hessian       ... off

 WARNING: There are more processes than displacements to do
  ====> : Reducing number of processes to   9

The output will be reduced. Please look at the following files:
SCF program output             ... >Cu03C1_D3H.lastscf
Integral program output        ... >Cu03C1_D3H.lastint
Gradient program output        ... >Cu03C1_D3H.lastgrad
Dipole moment program output   ... >Cu03C1_D3H.lastmom
AutoCI program output          ... >Cu03C1_D3H.lastautoci


         <<< Energy and Gradient at the input geometry >>>

        <<< Energy and Gradient at displaced geometries >>>
             <<<Displacing   1/coordinate 2 (+)>>>
             <<<Displacing   1/coordinate 1 (+)>>>
             <<<Displacing   2/coordinate 1 (+)>>>
             <<<Displacing   1/coordinate 3 (+)>>>
             <<<Displacing   3/coordinate 2 (+)>>>
             <<<Displacing   2/coordinate 2 (+)>>>
             <<<Displacing   2/coordinate 3 (+)>>>
             <<<Displacing   3/coordinate 1 (+)>>>
             <<<Displacing   3/coordinate 3 (+)>>>
             <<<Displacing   1/coordinate 3 (-)>>>
             <<<Displacing   2/coordinate 3 (-)>>>
             <<<Displacing   3/coordinate 3 (-)>>>
             <<<Displacing   1/coordinate 1 (-)>>>
             <<<Displacing   2/coordinate 1 (-)>>>
             <<<Displacing   1/coordinate 2 (-)>>>
             <<<Displacing   3/coordinate 2 (-)>>>
             <<<Displacing   2/coordinate 2 (-)>>>
             <<<Displacing   3/coordinate 1 (-)>>>

-----------------------
VIBRATIONAL FREQUENCIES
-----------------------

Scaling factor for frequencies =  1.000000000 (already applied!)

   0:         0.00 cm**-1
   1:         0.00 cm**-1
   2:         0.00 cm**-1
   3:         0.00 cm**-1
   4:         0.00 cm**-1
   5:         0.00 cm**-1
   6:       177.60 cm**-1
   7:       178.05 cm**-1
   8:       247.24 cm**-1


------------
NORMAL MODES
------------

These modes are the cartesian displacements weighted by the diagonal matrix
M(i,i)=1/sqrt(m[i]) where m[i] is the mass of the displaced atom
Thus, these vectors are normalized but *not* orthogonal

                  0          1          2          3          4          5    
      0       0.000000   0.000000   0.000000   0.000000   0.000000   0.000000
      1       0.000000   0.000000   0.000000   0.000000   0.000000   0.000000
      2       0.000000   0.000000   0.000000   0.000000   0.000000   0.000000
      3       0.000000   0.000000   0.000000   0.000000   0.000000   0.000000
      4       0.000000   0.000000   0.000000   0.000000   0.000000   0.000000
      5       0.000000   0.000000   0.000000   0.000000   0.000000   0.000000
      6       0.000000   0.000000   0.000000   0.000000   0.000000   0.000000
      7       0.000000   0.000000   0.000000   0.000000   0.000000   0.000000
      8       0.000000   0.000000   0.000000   0.000000   0.000000   0.000000
                   6          7          8    
      0       0.577291  -0.001991  -0.000004
      1       0.001989   0.575726   0.578966
      2       0.000000   0.000000   0.000000
      3      -0.290371  -0.500401   0.498598
      4       0.499051  -0.289588  -0.289486
      5       0.000000   0.000000   0.000000
      6      -0.286920   0.502392  -0.498595
      7      -0.501040  -0.286139  -0.289480
      8       0.000000   0.000000   0.000000


-----------
IR SPECTRUM  
-----------

 Mode    freq (cm**-1)   T**2         TX         TY         TZ
-------------------------------------------------------------------
   6:       177.60    2.632656  ( -1.622537   0.005596  -0.000004)
   7:       178.05    2.625553  (  0.005582   1.620346  -0.000007)
   8:       247.24    0.000024  (  0.000012   0.004920  -0.000001)

The first frequency considered to be a vibration is 6
The total number of vibrations considered is 3


--------------------------
THERMOCHEMISTRY AT 298.15K
--------------------------

Temperature         ... 298.15 K
Pressure            ... 1.00 atm
Total Mass          ... 190.65 AMU

Throughout the following assumptions are being made:
  (1) The electronic state is orbitally nondegenerate
  (2) There are no thermally accessible electronically excited states
  (3) Hindered rotations indicated by low frequency modes are not
      treated as such but are treated as vibrations and this may
      cause some error
  (4) All equations used are the standard statistical mechanics
      equations for an ideal gas
  (5) All vibrations are strictly harmonic

freq.     177.60  E(vib)   ...       0.37 
freq.     178.05  E(vib)   ...       0.37 
freq.     247.24  E(vib)   ...       0.31 

------------
INNER ENERGY
------------

The inner energy is: U= E(el) + E(ZPE) + E(vib) + E(rot) + E(trans)
    E(el)   - is the total energy from the electronic structure calculation
              = E(kin-el) + E(nuc-el) + E(el-el) + E(nuc-nuc)
    E(ZPE)  - the the zero temperature vibrational energy from the frequency calculation
    E(vib)  - the the finite temperature correction to E(ZPE) due to population
              of excited vibrational states
    E(rot)  - is the rotational thermal energy
    E(trans)- is the translational thermal energy

Summary of contributions to the inner energy U:
Electronic energy                ...  -4920.35166772 Eh
Zero point energy                ...      0.00137349 Eh       0.86 kcal/mol
Thermal vibrational correction   ...      0.00168305 Eh       1.06 kcal/mol
Thermal rotational correction    ...      0.00141627 Eh       0.89 kcal/mol
Thermal translational correction ...      0.00141627 Eh       0.89 kcal/mol
-----------------------------------------------------------------------
Total thermal energy                  -4920.34577864 Eh


Summary of corrections to the electronic energy:
(perhaps to be used in another calculation)
Total thermal correction                  0.00451559 Eh       2.83 kcal/mol
Non-thermal (ZPE) correction              0.00137349 Eh       0.86 kcal/mol
-----------------------------------------------------------------------
Total correction                          0.00588908 Eh       3.70 kcal/mol


--------
ENTHALPY
--------

The enthalpy is H = U + kB*T
                kB is Boltzmann's constant
Total free energy                 ...  -4920.34577864 Eh 
Thermal Enthalpy correction       ...      0.00094421 Eh       0.59 kcal/mol
-----------------------------------------------------------------------
Total Enthalpy                    ...  -4920.34483443 Eh


Note: Rotational entropy computed according to Herzberg 
Infrared and Raman Spectra, Chapter V,1, Van Nostrand Reinhold, 1945 
Point Group:  C2v, Symmetry Number:   2  
Rotational constants in cm-1:     0.090250     0.090215     0.045116 

Vibrational entropy computed according to the QRRHO of S. Grimme
Chem.Eur.J. 2012 18 9955


-------
ENTROPY
-------

The entropy contributions are T*S = T*(S(el)+S(vib)+S(rot)+S(trans))
     S(el)   - electronic entropy
     S(vib)  - vibrational entropy
     S(rot)  - rotational entropy
     S(trans)- translational entropy
The entropies will be listed as mutliplied by the temperature to get
units of energy

Electronic entropy                ...      0.00000000 Eh      0.00 kcal/mol
Vibrational entropy               ...      0.00306249 Eh      1.92 kcal/mol
Rotational entropy                ...      0.01259023 Eh      7.90 kcal/mol
Translational entropy             ...      0.01978512 Eh     12.42 kcal/mol
-----------------------------------------------------------------------
Final entropy term                ...      0.03543783 Eh     22.24 kcal/mol

In case the symmetry of your molecule has not been determined correctly
or in case you have a reason to use a different symmetry number we print 
out the resulting rotational entropy values for sn=1,12 :
 --------------------------------------------------------
|  sn= 1 | S(rot)=       0.01324469 Eh      8.31 kcal/mol|
|  sn= 2 | S(rot)=       0.01259023 Eh      7.90 kcal/mol|
|  sn= 3 | S(rot)=       0.01220740 Eh      7.66 kcal/mol|
|  sn= 4 | S(rot)=       0.01193577 Eh      7.49 kcal/mol|
|  sn= 5 | S(rot)=       0.01172509 Eh      7.36 kcal/mol|
|  sn= 6 | S(rot)=       0.01155294 Eh      7.25 kcal/mol|
|  sn= 7 | S(rot)=       0.01140740 Eh      7.16 kcal/mol|
|  sn= 8 | S(rot)=       0.01128132 Eh      7.08 kcal/mol|
|  sn= 9 | S(rot)=       0.01117011 Eh      7.01 kcal/mol|
|  sn=10 | S(rot)=       0.01107063 Eh      6.95 kcal/mol|
|  sn=11 | S(rot)=       0.01098064 Eh      6.89 kcal/mol|
|  sn=12 | S(rot)=       0.01089849 Eh      6.84 kcal/mol|
 --------------------------------------------------------


-------------------
GIBBS FREE ENERGY
-------------------

The Gibbs free energy is G = H - T*S

Total enthalpy                    ...  -4920.34483443 Eh 
Total entropy correction          ...     -0.03543783 Eh    -22.24 kcal/mol
-----------------------------------------------------------------------
Final Gibbs free energy         ...  -4920.38027226 Eh

For completeness - the Gibbs free energy minus the electronic energy
G-E(el)                           ...     -0.02860454 Eh    -17.95 kcal/mol


Total Time for Numerical Frequencies  :       351.039 sec

Timings for individual modules:

Sum of individual times         ...      178.835 sec (=   2.981 min)
GTO integral calculation        ...        5.849 sec (=   0.097 min)   3.3 %
SCF iterations                  ...       29.248 sec (=   0.487 min)  16.4 %
MP2 module                      ...      143.553 sec (=   2.393 min)  80.3 %
Geometry relaxation             ...        0.184 sec (=   0.003 min)   0.1 %
                             ****ORCA TERMINATED NORMALLY****
TOTAL RUN TIME: 0 days 0 hours 8 minutes 26 seconds 746 msec
