
    -----------------------------------------------------------------------
          Psi4: An Open-Source Ab Initio Electronic Structure Package
                               Psi4 1.3.2 release

                         Git: Rev {HEAD} ecbda83 


    R. M. Parrish, L. A. Burns, D. G. A. Smith, A. C. Simmonett,
    A. E. DePrince III, E. G. Hohenstein, U. Bozkaya, A. Yu. Sokolov,
    R. Di Remigio, R. M. Richard, J. F. Gonthier, A. M. James,
    H. R. McAlexander, A. Kumar, M. Saitow, X. Wang, B. P. Pritchard,
    P. Verma, H. F. Schaefer III, K. Patkowski, R. A. King, E. F. Valeev,
    F. A. Evangelista, J. M. Turney, T. D. Crawford, and C. D. Sherrill,
    J. Chem. Theory Comput. 13(7) pp 3185--3197 (2017).
    (doi: 10.1021/acs.jctc.7b00174)


                         Additional Contributions by
    P. Kraus, H. Kruse, M. H. Lechner, M. C. Schieber, R. A. Shaw,
    A. Alenaizan, R. Galvelis, Z. L. Glick, S. Lehtola, and J. P. Misiewicz

    -----------------------------------------------------------------------


    Psi4 started on: Thursday, 28 October 2021 03:24PM

    Process ID: 197064
    Host:       bp1-compute00024.data.bp.acrc.priv
    PSIDATADIR: /work/zw18965/.conda/envs/p4env/share/psi4
    Memory:     500.0 MiB
    Threads:    24
    
  ==> Input File <==

--------------------------------------------------------------------------
memory 144 GB

molecule {
0 1
Ag       0.000000    0.000000    0.033547 
H        0.000000    0.000000   -1.576706 
 }

set basis Def2-TZVPPD

energy("GAM")
--------------------------------------------------------------------------

  Memory set to 134.110 GiB by Python driver.

*** tstart() called on bp1-compute00024.data.bp.acrc.priv
*** at Thu Oct 28 15:24:04 2021

   => Loading Basis Set <=

    Name: DEF2-TZVPPD
    Role: ORBITAL
    Keyword: BASIS
    atoms 1 entry AG         line  2174 (ECP: line  3646) file /work/zw18965/.conda/envs/p4env/share/psi4/basis/def2-tzvppd.gbs 
    atoms 2 entry H          line    14 file /work/zw18965/.conda/envs/p4env/share/psi4/basis/def2-tzvppd.gbs 

    !!!  WARNING: ECP capability is in beta. Please check occupations closely.  !!!


         ---------------------------------------------------------
                                   SCF
               by Justin Turney, Rob Parrish, Andy Simmonett
                          and Daniel G. A. Smith
                              RKS Reference
                       24 Threads, 137329 MiB Core
         ---------------------------------------------------------

  ==> Geometry <==

    Molecular point group: c2v
    Full point group: C_inf_v

    Geometry (in Angstrom), charge = 0, multiplicity = 1:

       Center              X                  Y                   Z               Mass       
    ------------   -----------------  -----------------  -----------------  -----------------
         AG           0.000000000000     0.000000000000     0.015038545267   106.905091600000
         H            0.000000000000     0.000000000000    -1.595214454733     1.007825032230

  Running in c2v symmetry.

  Rotational constants: A = ************  B =      6.51176  C =      6.51176 [cm^-1]
  Rotational constants: A = ************  B = 195217.55314  C = 195217.55314 [MHz]
  Nuclear repulsion =    6.243967254046415

  Charge       = 0
  Multiplicity = 1
  Electrons    = 20
  Nalpha       = 10
  Nbeta        = 10

  ==> Algorithm <==

  SCF Algorithm Type is DF.
  DIIS enabled.
  MOM disabled.
  Fractional occupation disabled.
  Guess Type is SAD.
  Energy threshold   = 1.00e-06
  Density threshold  = 1.00e-06
  Integral threshold = 0.00e+00

  ==> Primary Basis <==

  Basis Set: DEF2-TZVPPD
    Blend: DEF2-TZVPPD
    Number of shells: 23
    Number of basis function: 73
    Number of Cartesian functions: 89
    Spherical Harmonics?: true
    Max angular momentum: 4

  Core potential: DEF2-TZVPPD
    Number of shells: 4
    Number of ECP primitives: 14
    Number of ECP core electrons: 28
    Max angular momentum: 3

  ==> DFT Potential <==

   => Composite Functional: GAM <= 

   GAM GGA Minessota Exchange-Correlation Functional

    H.S. Yu, et al., Phys. Chem. Chem. Phys. 17, 12146, 2015


    Deriv               =              1
    GGA                 =           TRUE
    Meta                =          FALSE

    Exchange Hybrid     =          FALSE
    MP2 Hybrid          =          FALSE

   => Exchange Functionals <=

    1.0000     XC_GGA_X_GAM

   => Correlation Functionals <=

    1.0000     XC_GGA_C_GAM

   => Molecular Quadrature <=

    Radial Scheme          =       TREUTLER
    Pruning Scheme         =           FLAT
    Nuclear Scheme         =       TREUTLER

    BS radius alpha        =              1
    Pruning alpha          =              1
    Radial Points          =             75
    Spherical Points       =            302
    Total Points           =          45039
    Total Blocks           =            422
    Max Points             =            256
    Max Functions          =             73

   => Loading Basis Set <=

    Name: (DEF2-TZVPPD AUX)
    Role: JKFIT
    Keyword: DF_BASIS_SCF
    atoms 1 entry AG         line  4369 file /work/zw18965/.conda/envs/p4env/share/psi4/basis/def2-tzvpp-jkfit.gbs 
    atoms 2 entry H          line    23 file /work/zw18965/.conda/envs/p4env/share/psi4/basis/def2-tzvpp-jkfit.gbs 

  ==> Pre-Iterations <==

   -------------------------------------------------------
    Irrep   Nso     Nmo     Nalpha   Nbeta   Ndocc  Nsocc
   -------------------------------------------------------
     A1        31      31       0       0       0       0
     A2         8       8       0       0       0       0
     B1        17      17       0       0       0       0
     B2        17      17       0       0       0       0
   -------------------------------------------------------
    Total      73      73      10      10      10       0
   -------------------------------------------------------

  ==> Integral Setup <==

  DFHelper Memory: AOs need 0.014 GiB; user supplied 100.496 GiB. Using in-core AOs.

  ==> MemDFJK: Density-Fitted J/K Matrices <==

    J tasked:                   Yes
    K tasked:                    No
    wK tasked:                   No
    OpenMP threads:              24
    Memory [MiB]:            102908
    Algorithm:                 Core
    Schwarz Cutoff:           1E-12
    Mask sparsity (%):       0.0000
    Fitting Condition:        1E-10

   => Auxiliary Basis Set <=

  Basis Set: (DEF2-TZVPPD AUX)
    Blend: DEF2-TZVPP-JKFIT
    Number of shells: 55
    Number of basis function: 273
    Number of Cartesian functions: 404
    Spherical Harmonics?: true
    Max angular momentum: 6

  Cached 100.0% of DFT collocation blocks in 0.086 [GiB].

  Minimum eigenvalue in the overlap matrix is 3.3162039647E-03.
  Using Symmetric Orthogonalization.

  SCF Guess: Superposition of Atomic Densities via on-the-fly atomic UHF.

  ==> Iterations <==

                           Total Energy        Delta E     RMS |[F,P]|

   @DF-RKS iter SAD:  -147.88369629025686   -1.47884e+02   0.00000e+00 
   @DF-RKS iter   1:  -148.09170841764666   -2.08012e-01   7.90839e-03 DIIS
   @DF-RKS iter   2:  -147.82238407177465    2.69324e-01   1.82367e-02 DIIS
   @DF-RKS iter   3:  -148.15027682502478   -3.27893e-01   2.05847e-03 DIIS
   @DF-RKS iter   4:  -148.15172203561616   -1.44521e-03   1.38106e-03 DIIS
   @DF-RKS iter   5:  -148.15245123479633   -7.29199e-04   3.64290e-04 DIIS
   @DF-RKS iter   6:  -148.15262893596804   -1.77701e-04   6.23959e-05 DIIS
   @DF-RKS iter   7:  -148.15263429111837   -5.35515e-06   1.30821e-05 DIIS
   @DF-RKS iter   8:  -148.15263442469939   -1.33581e-07   1.73527e-06 DIIS
   @DF-RKS iter   9:  -148.15263442803806   -3.33867e-09   2.34306e-07 DIIS
  Energy and wave function converged.


  ==> Post-Iterations <==

    Orbital Energies [Eh]
    ---------------------

    Doubly Occupied:                                                      

       1A1    -3.595522     2A1    -2.231270     1B1    -2.222202  
       1B2    -2.222202     3A1    -0.343598     2B1    -0.291795  
       2B2    -0.291795     1A2    -0.283431     4A1    -0.283430  
       5A1    -0.211813  

    Virtual:                                                              

       6A1    -0.101449     3B2    -0.019751     3B1    -0.019751  
       7A1     0.066525     8A1     0.089514     9A1     0.155009  
       4B2     0.160121     4B1     0.160121     5B2     0.198693  
       5B1     0.198693    10A1     0.360600     2A2     0.376556  
      11A1     0.376556    12A1     0.409445     6B1     0.487013  
       6B2     0.487013    13A1     0.554233     7B1     0.822776  
       7B2     0.822776    14A1     1.022053    15A1     1.516262  
       3A2     1.516263     8B2     1.527242     8B1     1.527242  
       9B1     1.549065     9B2     1.549065    10B1     1.592819  
      10B2     1.592819    16A1     1.611268    17A1     1.781864  
      18A1     1.946713     4A2     1.965663    19A1     1.965664  
      11B1     2.028164    11B2     2.028164    20A1     2.149132  
      21A1     2.557597    22A1     3.165695     5A2     3.165712  
      12B1     3.364148    12B2     3.364148    13B1     3.783930  
      13B2     3.783930    23A1     3.821865    24A1     4.432823  
      14B2     4.663927    14B1     4.663927    25A1     4.676482  
       6A2     4.676488    15B1     4.856185    15B2     4.856185  
      26A1     5.063030    16B2     5.410405    16B1     5.410405  
      27A1     5.412739     7A2     5.412746     8A2     5.414444  
      28A1     5.414468    17B1     5.545762    17B2     5.545762  
      29A1     6.001826    30A1    33.507434    31A1   110.819289  

    Final Occupation by Irrep:
             A1    A2    B1    B2 
    DOCC [     5,    1,    2,    2 ]

  @DF-RKS Final Energy:  -148.15263442803806

   => Energetics <=

    Nuclear Repulsion Energy =              6.2439672540464146
    One-Electron Energy =                -274.4429962854626410
    Two-Electron Energy =                 135.1795313998310633
    DFT Exchange-Correlation Energy =     -15.1331367964529022
    Empirical Dispersion Energy =           0.0000000000000000
    VV10 Nonlocal Energy =                  0.0000000000000000
    Total Energy =                       -148.1526344280380556

Computation Completed


Properties will be evaluated at   0.000000,   0.000000,   0.000000 [a0]

Properties computed using the SCF density matrix

  Nuclear Dipole Moment: [e a0]
     X:     0.0000      Y:     0.0000      Z:    -2.4746

  Electronic Dipole Moment: [e a0]
     X:     0.0000      Y:     0.0000      Z:     3.4787

  Dipole Moment: [e a0]
     X:     0.0000      Y:     0.0000      Z:     1.0042     Total:     1.0042

  Dipole Moment: [D]
     X:     0.0000      Y:     0.0000      Z:     2.5523     Total:     2.5523


*** tstop() called on bp1-compute00024.data.bp.acrc.priv at Thu Oct 28 15:24:09 2021
Module time:
	user time   =      54.10 seconds =       0.90 minutes
	system time =       2.45 seconds =       0.04 minutes
	total time  =          5 seconds =       0.08 minutes
Total time:
	user time   =      54.10 seconds =       0.90 minutes
	system time =       2.45 seconds =       0.04 minutes
	total time  =          5 seconds =       0.08 minutes

    Psi4 stopped on: Thursday, 28 October 2021 03:24PM
    Psi4 wall time for execution: 0:00:05.08

*** Psi4 exiting successfully. Buy a developer a beer!
