
    -----------------------------------------------------------------------
          Psi4: An Open-Source Ab Initio Electronic Structure Package
                               Psi4 1.3.2 release

                         Git: Rev {HEAD} ecbda83 


    R. M. Parrish, L. A. Burns, D. G. A. Smith, A. C. Simmonett,
    A. E. DePrince III, E. G. Hohenstein, U. Bozkaya, A. Yu. Sokolov,
    R. Di Remigio, R. M. Richard, J. F. Gonthier, A. M. James,
    H. R. McAlexander, A. Kumar, M. Saitow, X. Wang, B. P. Pritchard,
    P. Verma, H. F. Schaefer III, K. Patkowski, R. A. King, E. F. Valeev,
    F. A. Evangelista, J. M. Turney, T. D. Crawford, and C. D. Sherrill,
    J. Chem. Theory Comput. 13(7) pp 3185--3197 (2017).
    (doi: 10.1021/acs.jctc.7b00174)


                         Additional Contributions by
    P. Kraus, H. Kruse, M. H. Lechner, M. C. Schieber, R. A. Shaw,
    A. Alenaizan, R. Galvelis, Z. L. Glick, S. Lehtola, and J. P. Misiewicz

    -----------------------------------------------------------------------


    Psi4 started on: Thursday, 28 October 2021 03:23PM

    Process ID: 78533
    Host:       bp1-compute00162.data.bp.acrc.priv
    PSIDATADIR: /work/zw18965/.conda/envs/p4env/share/psi4
    Memory:     500.0 MiB
    Threads:    24
    
  ==> Input File <==

--------------------------------------------------------------------------
memory 144 GB

molecule {
0 1
Ag       0.000000    0.000000    0.317712 
F        0.000000    0.000000   -1.659163 
 }

set basis Def2-TZVPPD

energy("GAM")
--------------------------------------------------------------------------

  Memory set to 134.110 GiB by Python driver.

*** tstart() called on bp1-compute00162.data.bp.acrc.priv
*** at Thu Oct 28 15:23:54 2021

   => Loading Basis Set <=

    Name: DEF2-TZVPPD
    Role: ORBITAL
    Keyword: BASIS
    atoms 1 entry AG         line  2174 (ECP: line  3646) file /work/zw18965/.conda/envs/p4env/share/psi4/basis/def2-tzvppd.gbs 
    atoms 2 entry F          line   257 file /work/zw18965/.conda/envs/p4env/share/psi4/basis/def2-tzvppd.gbs 

    !!!  WARNING: ECP capability is in beta. Please check occupations closely.  !!!


         ---------------------------------------------------------
                                   SCF
               by Justin Turney, Rob Parrish, Andy Simmonett
                          and Daniel G. A. Smith
                              RKS Reference
                       24 Threads, 137329 MiB Core
         ---------------------------------------------------------

  ==> Geometry <==

    Molecular point group: c2v
    Full point group: C_inf_v

    Geometry (in Angstrom), charge = 0, multiplicity = 1:

       Center              X                  Y                   Z               Mass       
    ------------   -----------------  -----------------  -----------------  -----------------
         AG           0.000000000000     0.000000000000     0.298303619952   106.905091600000
         F            0.000000000000     0.000000000000    -1.678571380048    18.998403162730

  Running in c2v symmetry.

  Rotational constants: A = ************  B =      0.26740  C =      0.26740 [cm^-1]
  Rotational constants: A = ************  B =   8016.43133  C =   8016.43133 [MHz]
  Nuclear repulsion =   45.773912374110651

  Charge       = 0
  Multiplicity = 1
  Electrons    = 28
  Nalpha       = 14
  Nbeta        = 14

  ==> Algorithm <==

  SCF Algorithm Type is DF.
  DIIS enabled.
  MOM disabled.
  Fractional occupation disabled.
  Guess Type is SAD.
  Energy threshold   = 1.00e-06
  Density threshold  = 1.00e-06
  Integral threshold = 0.00e+00

  ==> Primary Basis <==

  Basis Set: DEF2-TZVPPD
    Blend: DEF2-TZVPPD
    Number of shells: 30
    Number of basis function: 96
    Number of Cartesian functions: 117
    Spherical Harmonics?: true
    Max angular momentum: 4

  Core potential: DEF2-TZVPPD
    Number of shells: 4
    Number of ECP primitives: 14
    Number of ECP core electrons: 28
    Max angular momentum: 3

  ==> DFT Potential <==

   => Composite Functional: GAM <= 

   GAM GGA Minessota Exchange-Correlation Functional

    H.S. Yu, et al., Phys. Chem. Chem. Phys. 17, 12146, 2015


    Deriv               =              1
    GGA                 =           TRUE
    Meta                =          FALSE

    Exchange Hybrid     =          FALSE
    MP2 Hybrid          =          FALSE

   => Exchange Functionals <=

    1.0000     XC_GGA_X_GAM

   => Correlation Functionals <=

    1.0000     XC_GGA_C_GAM

   => Molecular Quadrature <=

    Radial Scheme          =       TREUTLER
    Pruning Scheme         =           FLAT
    Nuclear Scheme         =       TREUTLER

    BS radius alpha        =              1
    Pruning alpha          =              1
    Radial Points          =             75
    Spherical Points       =            302
    Total Points           =          45055
    Total Blocks           =            425
    Max Points             =            254
    Max Functions          =             95

   => Loading Basis Set <=

    Name: (DEF2-TZVPPD AUX)
    Role: JKFIT
    Keyword: DF_BASIS_SCF
    atoms 1 entry AG         line  4369 file /work/zw18965/.conda/envs/p4env/share/psi4/basis/def2-tzvpp-jkfit.gbs 
    atoms 2 entry F          line   383 file /work/zw18965/.conda/envs/p4env/share/psi4/basis/def2-tzvpp-jkfit.gbs 

  ==> Pre-Iterations <==

   -------------------------------------------------------
    Irrep   Nso     Nmo     Nalpha   Nbeta   Ndocc  Nsocc
   -------------------------------------------------------
     A1        41      41       0       0       0       0
     A2        11      11       0       0       0       0
     B1        22      22       0       0       0       0
     B2        22      22       0       0       0       0
   -------------------------------------------------------
    Total      96      96      14      14      14       0
   -------------------------------------------------------

  ==> Integral Setup <==

  DFHelper Memory: AOs need 0.028 GiB; user supplied 100.478 GiB. Using in-core AOs.

  ==> MemDFJK: Density-Fitted J/K Matrices <==

    J tasked:                   Yes
    K tasked:                    No
    wK tasked:                   No
    OpenMP threads:              24
    Memory [MiB]:            102889
    Algorithm:                 Core
    Schwarz Cutoff:           1E-12
    Mask sparsity (%):       0.4557
    Fitting Condition:        1E-10

   => Auxiliary Basis Set <=

  Basis Set: (DEF2-TZVPPD AUX)
    Blend: DEF2-TZVPP-JKFIT
    Number of shells: 74
    Number of basis function: 332
    Number of Cartesian functions: 477
    Spherical Harmonics?: true
    Max angular momentum: 6

  Cached 100.0% of DFT collocation blocks in 0.105 [GiB].

  Minimum eigenvalue in the overlap matrix is 3.3921717907E-03.
  Using Symmetric Orthogonalization.

  SCF Guess: Superposition of Atomic Densities via on-the-fly atomic UHF.

  ==> Iterations <==

                           Total Energy        Delta E     RMS |[F,P]|

   @DF-RKS iter SAD:  -246.92305683885766   -2.46923e+02   0.00000e+00 
   @DF-RKS iter   1:  -247.19934081648023   -2.76284e-01   1.46341e-02 DIIS
   @DF-RKS iter   2:  -237.09982355918959    1.00995e+01   5.79387e-02 DIIS
   @DF-RKS iter   3:  -247.36717465869066   -1.02674e+01   6.02463e-03 DIIS
   @DF-RKS iter   4:  -247.39142804168458   -2.42534e-02   5.38703e-03 DIIS
   @DF-RKS iter   5:  -247.41314296561123   -2.17149e-02   1.35425e-03 DIIS
   @DF-RKS iter   6:  -247.41405977739333   -9.16812e-04   7.86562e-04 DIIS
   @DF-RKS iter   7:  -247.41471926264526   -6.59485e-04   1.66268e-04 DIIS
   @DF-RKS iter   8:  -247.41473884794675   -1.95853e-05   8.25070e-05 DIIS
   @DF-RKS iter   9:  -247.41474648268445   -7.63474e-06   1.11104e-05 DIIS
   @DF-RKS iter  10:  -247.41474660987319   -1.27189e-07   6.86643e-07 DIIS
  Energy and wave function converged.


  ==> Post-Iterations <==

    Orbital Energies [Eh]
    ---------------------

    Doubly Occupied:                                                      

       1A1   -24.110739     2A1    -3.610608     3A1    -2.242540  
       1B1    -2.240544     1B2    -2.240544     4A1    -0.953090  
       5A1    -0.349749     2B1    -0.319898     2B2    -0.319898  
       6A1    -0.305440     1A2    -0.305435     7A1    -0.243713  
       3B1    -0.239280     3B2    -0.239280  

    Virtual:                                                              

       8A1    -0.145444     4B1    -0.015407     4B2    -0.015407  
       9A1     0.029772    10A1     0.085663    11A1     0.144558  
       5B1     0.151465     5B2     0.151465     6B1     0.182827  
       6B2     0.182827    12A1     0.226430    13A1     0.322501  
      14A1     0.354441     2A2     0.354442     7B1     0.444852  
       7B2     0.444852    15A1     0.493184     3A2     0.536105  
      16A1     0.536105     8B2     0.660170     8B1     0.660170  
      17A1     0.661824     9B1     0.770320     9B2     0.770320  
      18A1     1.037454    19A1     1.082496    10B2     1.501066  
      10B1     1.501066    20A1     1.515202     4A2     1.515205  
      11B1     1.526538    11B2     1.526538    21A1     1.591684  
      12B1     1.610568    12B2     1.610568    22A1     1.707615  
      23A1     1.900429    24A1     1.951525     5A2     1.951531  
      13B1     1.961790    13B2     1.961790    25A1     1.998727  
      26A1     2.255827     6A2     2.255844    14B1     2.328116  
      14B2     2.328116    27A1     2.691060    15B1     3.324830  
      15B2     3.324830    28A1     3.630012    29A1     4.048918  
      16B1     4.644287    16B2     4.644287    30A1     4.654699  
       7A2     4.654775    17B1     4.719891    17B2     4.719891  
      31A1     4.912305    32A1     5.388206     8A2     5.388224  
      18B1     5.388424    18B2     5.388424    33A1     5.389602  
       9A2     5.389636    19B1     5.391327    19B2     5.391327  
      34A1     5.455497    35A1     6.815944    10A2     6.815952  
      20B1     6.829492    20B2     6.829492    21B2     6.842329  
      21B1     6.842329    36A1     6.957944    37A1     8.347035  
      11A2     8.347086    22B1     8.380737    22B2     8.380737  
      38A1     8.580638    39A1    33.338070    40A1    56.905165  
      41A1   110.761627  

    Final Occupation by Irrep:
             A1    A2    B1    B2 
    DOCC [     7,    1,    3,    3 ]

  @DF-RKS Final Energy:  -247.41474660987319

   => Energetics <=

    Nuclear Repulsion Energy =             45.7739123741106511
    One-Electron Energy =                -493.4697179492545729
    Two-Electron Energy =                 225.5609865170868318
    DFT Exchange-Correlation Energy =     -25.2799275518160727
    Empirical Dispersion Energy =           0.0000000000000000
    VV10 Nonlocal Energy =                  0.0000000000000000
    Total Energy =                       -247.4147466098731911

Computation Completed


Properties will be evaluated at   0.000000,   0.000000,   0.000000 [a0]

Properties computed using the SCF density matrix

  Nuclear Dipole Moment: [e a0]
     X:     0.0000      Y:     0.0000      Z:   -17.8378

  Electronic Dipole Moment: [e a0]
     X:     0.0000      Y:     0.0000      Z:    19.9290

  Dipole Moment: [e a0]
     X:     0.0000      Y:     0.0000      Z:     2.0912     Total:     2.0912

  Dipole Moment: [D]
     X:     0.0000      Y:     0.0000      Z:     5.3152     Total:     5.3152


*** tstop() called on bp1-compute00162.data.bp.acrc.priv at Thu Oct 28 15:23:59 2021
Module time:
	user time   =      50.38 seconds =       0.84 minutes
	system time =       2.85 seconds =       0.05 minutes
	total time  =          5 seconds =       0.08 minutes
Total time:
	user time   =      50.38 seconds =       0.84 minutes
	system time =       2.85 seconds =       0.05 minutes
	total time  =          5 seconds =       0.08 minutes

    Psi4 stopped on: Thursday, 28 October 2021 03:23PM
    Psi4 wall time for execution: 0:00:04.91

*** Psi4 exiting successfully. Buy a developer a beer!
