
    -----------------------------------------------------------------------
          Psi4: An Open-Source Ab Initio Electronic Structure Package
                               Psi4 1.3.2 release

                         Git: Rev {HEAD} ecbda83 


    R. M. Parrish, L. A. Burns, D. G. A. Smith, A. C. Simmonett,
    A. E. DePrince III, E. G. Hohenstein, U. Bozkaya, A. Yu. Sokolov,
    R. Di Remigio, R. M. Richard, J. F. Gonthier, A. M. James,
    H. R. McAlexander, A. Kumar, M. Saitow, X. Wang, B. P. Pritchard,
    P. Verma, H. F. Schaefer III, K. Patkowski, R. A. King, E. F. Valeev,
    F. A. Evangelista, J. M. Turney, T. D. Crawford, and C. D. Sherrill,
    J. Chem. Theory Comput. 13(7) pp 3185--3197 (2017).
    (doi: 10.1021/acs.jctc.7b00174)


                         Additional Contributions by
    P. Kraus, H. Kruse, M. H. Lechner, M. C. Schieber, R. A. Shaw,
    A. Alenaizan, R. Galvelis, Z. L. Glick, S. Lehtola, and J. P. Misiewicz

    -----------------------------------------------------------------------


    Psi4 started on: Thursday, 28 October 2021 03:24PM

    Process ID: 78885
    Host:       bp1-compute00162.data.bp.acrc.priv
    PSIDATADIR: /work/zw18965/.conda/envs/p4env/share/psi4
    Memory:     500.0 MiB
    Threads:    24
    
  ==> Input File <==

--------------------------------------------------------------------------
memory 144 GB

molecule {
1 1
Ag       0.000000    1.529877    0.000000 
Ag       1.324912   -0.764938    0.000000 
Ag      -1.324912   -0.764938    0.000000 
 }

set basis Def2-TZVPPD

energy("GAM")
--------------------------------------------------------------------------

  Memory set to 134.110 GiB by Python driver.

*** tstart() called on bp1-compute00162.data.bp.acrc.priv
*** at Thu Oct 28 15:24:11 2021

   => Loading Basis Set <=

    Name: DEF2-TZVPPD
    Role: ORBITAL
    Keyword: BASIS
    atoms 1-3 entry AG         line  2174 (ECP: line  3646) file /work/zw18965/.conda/envs/p4env/share/psi4/basis/def2-tzvppd.gbs 

    !!!  WARNING: ECP capability is in beta. Please check occupations closely.  !!!


         ---------------------------------------------------------
                                   SCF
               by Justin Turney, Rob Parrish, Andy Simmonett
                          and Daniel G. A. Smith
                              RKS Reference
                       24 Threads, 137329 MiB Core
         ---------------------------------------------------------

  ==> Geometry <==

    Molecular point group: c2v
    Full point group: C2v

    Geometry (in Angstrom), charge = 1, multiplicity = 1:

       Center              X                  Y                   Z               Mass       
    ------------   -----------------  -----------------  -----------------  -----------------
         AG           0.000000000000     0.000000000000     1.529876666667   106.905091600000
         AG           1.324912000000     0.000000000000    -0.764938333333   106.905091600000
         AG          -1.324912000000    -0.000000000000    -0.764938333333   106.905091600000

  Running in c2v symmetry.

  Rotational constants: A =      0.04492  B =      0.04492  C =      0.02246 [cm^-1]
  Rotational constants: A =   1346.52601  B =   1346.52589  C =    673.26298 [MHz]
  Nuclear repulsion =  216.278102475318548

  Charge       = 1
  Multiplicity = 1
  Electrons    = 56
  Nalpha       = 28
  Nbeta        = 28

  ==> Algorithm <==

  SCF Algorithm Type is DF.
  DIIS enabled.
  MOM disabled.
  Fractional occupation disabled.
  Guess Type is SAD.
  Energy threshold   = 1.00e-06
  Density threshold  = 1.00e-06
  Integral threshold = 0.00e+00

  ==> Primary Basis <==

  Basis Set: DEF2-TZVPPD
    Blend: DEF2-TZVPPD
    Number of shells: 48
    Number of basis function: 168
    Number of Cartesian functions: 213
    Spherical Harmonics?: true
    Max angular momentum: 4

  Core potential: DEF2-TZVPPD
    Number of shells: 12
    Number of ECP primitives: 42
    Number of ECP core electrons: 84
    Max angular momentum: 3

  ==> DFT Potential <==

   => Composite Functional: GAM <= 

   GAM GGA Minessota Exchange-Correlation Functional

    H.S. Yu, et al., Phys. Chem. Chem. Phys. 17, 12146, 2015


    Deriv               =              1
    GGA                 =           TRUE
    Meta                =          FALSE

    Exchange Hybrid     =          FALSE
    MP2 Hybrid          =          FALSE

   => Exchange Functionals <=

    1.0000     XC_GGA_X_GAM

   => Correlation Functionals <=

    1.0000     XC_GGA_C_GAM

   => Molecular Quadrature <=

    Radial Scheme          =       TREUTLER
    Pruning Scheme         =           FLAT
    Nuclear Scheme         =       TREUTLER

    BS radius alpha        =              1
    Pruning alpha          =              1
    Radial Points          =             75
    Spherical Points       =            302
    Total Points           =          67393
    Total Blocks           =            588
    Max Points             =            256
    Max Functions          =            165

   => Loading Basis Set <=

    Name: (DEF2-TZVPPD AUX)
    Role: JKFIT
    Keyword: DF_BASIS_SCF
    atoms 1-3 entry AG         line  4369 file /work/zw18965/.conda/envs/p4env/share/psi4/basis/def2-tzvpp-jkfit.gbs 

  ==> Pre-Iterations <==

   -------------------------------------------------------
    Irrep   Nso     Nmo     Nalpha   Nbeta   Ndocc  Nsocc
   -------------------------------------------------------
     A1        59      59       0       0       0       0
     A2        27      27       0       0       0       0
     B1        49      49       0       0       0       0
     B2        33      33       0       0       0       0
   -------------------------------------------------------
    Total     168     168      28      28      28       0
   -------------------------------------------------------

  ==> Integral Setup <==

  DFHelper Memory: AOs need 0.177 GiB; user supplied 100.344 GiB. Using in-core AOs.

  ==> MemDFJK: Density-Fitted J/K Matrices <==

    J tasked:                   Yes
    K tasked:                    No
    wK tasked:                   No
    OpenMP threads:              24
    Memory [MiB]:            102752
    Algorithm:                 Core
    Schwarz Cutoff:           1E-12
    Mask sparsity (%):       1.2188
    Fitting Condition:        1E-10

   => Auxiliary Basis Set <=

  Basis Set: (DEF2-TZVPPD AUX)
    Blend: DEF2-TZVPP-JKFIT
    Number of shells: 147
    Number of basis function: 765
    Number of Cartesian functions: 1152
    Spherical Harmonics?: true
    Max angular momentum: 6

  Cached 100.0% of DFT collocation blocks in 0.238 [GiB].

  Minimum eigenvalue in the overlap matrix is 2.8944547741E-03.
  Using Symmetric Orthogonalization.

  SCF Guess: Superposition of Atomic Densities via on-the-fly atomic UHF.

  ==> Iterations <==

                           Total Energy        Delta E     RMS |[F,P]|

   @DF-RKS iter SAD:  -442.21075628554479   -4.42211e+02   0.00000e+00 
   @DF-RKS iter   1:  -442.52990232764751   -3.19146e-01   4.61284e-03 DIIS
   @DF-RKS iter   2:  -442.43734006465934    9.25623e-02   7.79692e-03 DIIS
   @DF-RKS iter   3:  -442.58026226362836   -1.42922e-01   4.57915e-04 DIIS
   @DF-RKS iter   4:  -442.58067083169806   -4.08568e-04   2.24370e-04 DIIS
   @DF-RKS iter   5:  -442.58077225100294   -1.01419e-04   7.52506e-05 DIIS
   @DF-RKS iter   6:  -442.58078884753581   -1.65965e-05   1.54227e-05 DIIS
   @DF-RKS iter   7:  -442.58078958434714   -7.36811e-07   3.49371e-06 DIIS
   @DF-RKS iter   8:  -442.58078961931858   -3.49714e-08   5.39222e-07 DIIS
  Energy and wave function converged.


  ==> Post-Iterations <==

    Orbital Energies [Eh]
    ---------------------

    Doubly Occupied:                                                      

       1A1    -3.779052     2A1    -3.778583     1B1    -3.778578  
       3A1    -2.414061     2B1    -2.411209     4A1    -2.411204  
       3B1    -2.408643     5A1    -2.408637     4B1    -2.408371  
       1B2    -2.407012     2B2    -2.406508     1A2    -2.406503  
       6A1    -0.521588     5B1    -0.504044     7A1    -0.504038  
       3B2    -0.498321     8A1    -0.485183     2A2    -0.481704  
       4B2    -0.481688     6B1    -0.464803     9A1    -0.464802  
       3A2    -0.460963     4A2    -0.459148     5B2    -0.459118  
      10A1    -0.458187     7B1    -0.458171     8B1    -0.444743  
      11A1    -0.403481  

    Virtual:                                                              

      12A1    -0.290953     9B1    -0.290952     6B2    -0.216783  
      13A1    -0.181431    10B1    -0.172490    14A1    -0.172486  
       7B2    -0.124301     5A2    -0.124299    11B1    -0.053990  
      15A1    -0.048483    12B1    -0.047067    16A1    -0.047064  
       8B2     0.015093    17A1     0.015541    18A1     0.024167  
      13B1     0.024168    14B1     0.037331    19A1     0.037335  
       9B2     0.071198     6A2     0.071202    15B1     0.129306  
      20A1     0.154166    16B1     0.172034    21A1     0.172054  
       7A2     0.189530    10B2     0.189532    11B2     0.202608  
      17B1     0.291245    22A1     0.291248     8A2     0.330578  
      23A1     0.356102     9A2     0.388733    12B2     0.388733  
      24A1     0.396043    18B1     0.396045    19B1     0.478607  
      25A1     0.478653    20B1     0.527155    21B1     1.223992  
      26A1     1.223993    27A1     1.259068    28A1     1.267637  
      13B2     1.296522    10A2     1.297841    14B2     1.297891  
      22B1     1.323685    29A1     1.323694    15B2     1.326322  
      16B2     1.340094    11A2     1.340117    23B1     1.341541  
      12A2     1.352059    17B2     1.352093    24B1     1.369227  
      30A1     1.369236    18B2     1.382687    25B1     1.386992  
      31A1     1.387033    13A2     1.389211    26B1     1.437639  
      32A1     1.439014    27B1     1.439038    33A1     1.469541  
      14A2     1.478293    19B2     1.478321    28B1     1.510700  
      34A1     1.510708    29B1     1.652110    35A1     1.698963  
      36A1     1.785070    15A2     1.794981    20B2     1.795006  
      30B1     1.827405    37A1     1.827447    21B2     1.831535  
      16A2     1.843463    38A1     1.856234    31B1     1.856291  
      17A2     1.871411    22B2     1.871510    32B1     1.969147  
      39A1     1.969157    33B1     1.995532    40A1     2.108699  
      34B1     2.273420    41A1     2.273429    42A1     4.415732  
      35B1     4.433202    43A1     4.433271    23B2     4.443481  
      18A2     4.445864    24B2     4.445967    44A1     4.454129  
      25B2     4.470067    36B1     4.474151    45A1     4.474200  
      26B2     4.482596    19A2     4.482689    37B1     4.488007  
      20A2     4.530903    46A1     4.553297    38B1     4.553366  
      21A2     4.555431    27B2     4.555647    39B1     4.716499  
      47A1     4.716504    40B1     4.732606    48A1     5.218139  
      41B1     5.219181    49A1     5.219268    22A2     5.219479  
      28B2     5.219762    42B1     5.220244    29B2     5.220248  
      50A1     5.220431    30B2     5.220642    23A2     5.220716  
      24A2     5.221210    43B1     5.221214    51A1     5.221641  
      31B2     5.222070    52A1     5.222101    44B1     5.222768  
      32B2     5.223167    53A1     5.223689    54A1     5.223726  
      25A2     5.223729    45B1     5.223827    26A2     5.224005  
      27A2     5.224109    33B2     5.224504    46B1     5.226013  
      47B1     5.233596    55A1     5.233746    56A1    33.143836  
      57A1    33.482203    48B1    33.482203    58A1   110.582888  
      49B1   110.690375    59A1   110.690378  

    Final Occupation by Irrep:
             A1    A2    B1    B2 
    DOCC [    11,    4,    8,    5 ]

  @DF-RKS Final Energy:  -442.58078961931858

   => Energetics <=

    Nuclear Repulsion Energy =            216.2781024753185477
    One-Electron Energy =               -1206.1549499456939429
    Two-Electron Energy =                 591.6253779090548051
    DFT Exchange-Correlation Energy =     -44.3293200579979967
    Empirical Dispersion Energy =           0.0000000000000000
    VV10 Nonlocal Energy =                  0.0000000000000000
    Total Energy =                       -442.5807896193186366

Computation Completed


Properties will be evaluated at   0.000000,   0.000000,   0.000000 [a0]

Properties computed using the SCF density matrix

  Nuclear Dipole Moment: [e a0]
     X:     0.0000      Y:     0.0000      Z:    -0.0000

  Electronic Dipole Moment: [e a0]
     X:     0.0000      Y:     0.0000      Z:     0.0001

  Dipole Moment: [e a0]
     X:     0.0000      Y:     0.0000      Z:     0.0001     Total:     0.0001

  Dipole Moment: [D]
     X:     0.0000      Y:     0.0000      Z:     0.0002     Total:     0.0002


*** tstop() called on bp1-compute00162.data.bp.acrc.priv at Thu Oct 28 15:24:17 2021
Module time:
	user time   =      66.41 seconds =       1.11 minutes
	system time =       2.60 seconds =       0.04 minutes
	total time  =          6 seconds =       0.10 minutes
Total time:
	user time   =      66.41 seconds =       1.11 minutes
	system time =       2.60 seconds =       0.04 minutes
	total time  =          6 seconds =       0.10 minutes

    Psi4 stopped on: Thursday, 28 October 2021 03:24PM
    Psi4 wall time for execution: 0:00:06.67

*** Psi4 exiting successfully. Buy a developer a beer!
