
    -----------------------------------------------------------------------
          Psi4: An Open-Source Ab Initio Electronic Structure Package
                               Psi4 1.4.1 release

                         Git: Rev {HEAD} cd00f19 


    D. G. A. Smith, L. A. Burns, A. C. Simmonett, R. M. Parrish,
    M. C. Schieber, R. Galvelis, P. Kraus, H. Kruse, R. Di Remigio,
    A. Alenaizan, A. M. James, S. Lehtola, J. P. Misiewicz, M. Scheurer,
    R. A. Shaw, J. B. Schriber, Y. Xie, Z. L. Glick, D. A. Sirianni,
    J. S. O'Brien, J. M. Waldrop, A. Kumar, E. G. Hohenstein,
    B. P. Pritchard, B. R. Brooks, H. F. Schaefer III, A. Yu. Sokolov,
    K. Patkowski, A. E. DePrince III, U. Bozkaya, R. A. King,
    F. A. Evangelista, J. M. Turney, T. D. Crawford, C. D. Sherrill,
    J. Chem. Phys. 152(18) 184108 (2020). https://doi.org/10.1063/5.0006002

                            Additional Code Authors
    E. T. Seidl, C. L. Janssen, E. F. Valeev, M. L. Leininger,
    J. F. Gonthier, R. M. Richard, H. R. McAlexander, M. Saitow, X. Wang,
    P. Verma, and M. H. Lechner

             Previous Authors, Complete List of Code Contributors,
                       and Citations for Specific Modules
    https://github.com/psi4/psi4/blob/master/codemeta.json
    https://github.com/psi4/psi4/graphs/contributors
    http://psicode.org/psi4manual/master/introduction.html#citing-psifour

    -----------------------------------------------------------------------


    Psi4 started on: Tuesday, 02 November 2021 02:35PM

    Process ID: 23596
    Host:       compute452.bc4.acrc.priv
    PSIDATADIR: /mnt/storage/home/zw18965/.conda/envs/p4env/share/psi4
    Memory:     500.0 MiB
    Threads:    28
    
  ==> Input File <==

--------------------------------------------------------------------------
memory 144 GB

molecule {
2 1
Ag       0.000000    1.593354   -0.403942 
Ag       1.379885   -0.796677   -0.403942 
Ag      -1.379885   -0.796677   -0.403942 
Ag       0.000000    0.000000    1.894943 
N        0.000000    0.000000   -3.082630 
H        0.808649    0.466874   -3.509356 
H       -0.000000   -0.933748   -3.509356 
H       -0.808649    0.466874   -3.509356 
 }

set basis Def2-TZVPPD

energy("GAM")
--------------------------------------------------------------------------

  Memory set to 134.110 GiB by Python driver.

Scratch directory: /tmp/

*** tstart() called on compute452.bc4.acrc.priv
*** at Tue Nov  2 14:35:00 2021

   => Loading Basis Set <=

    Name: DEF2-TZVPPD
    Role: ORBITAL
    Keyword: BASIS
    atoms 1-4 entry AG         line  2174 (ECP: line  3646) file /mnt/storage/home/zw18965/.conda/envs/p4env/share/psi4/basis/def2-tzvppd.gbs 
    atoms 5   entry N          line   181 file /mnt/storage/home/zw18965/.conda/envs/p4env/share/psi4/basis/def2-tzvppd.gbs 
    atoms 6-8 entry H          line    14 file /mnt/storage/home/zw18965/.conda/envs/p4env/share/psi4/basis/def2-tzvppd.gbs 

    !!!  WARNING: ECP capability is in beta. Please check occupations closely.  !!!


         ---------------------------------------------------------
                                   SCF
               by Justin Turney, Rob Parrish, Andy Simmonett
                          and Daniel G. A. Smith
                              RKS Reference
                       28 Threads, 137329 MiB Core
         ---------------------------------------------------------

  ==> Geometry <==

    Molecular point group: cs
    Full point group: Cs

    Geometry (in Angstrom), charge = 2, multiplicity = 1:

       Center              X                  Y                   Z               Mass       
    ------------   -----------------  -----------------  -----------------  -----------------
         AG          -1.593354000000     0.447239138241     0.000000000000   106.905091600000
         AG           0.796677000000     0.447239138241     1.379885000000   106.905091600000
         AG           0.796677000000     0.447239138241    -1.379885000000   106.905091600000
         AG           0.000000000000    -1.851645861759     0.000000000000   106.905091600000
         N            0.000000000000     3.125927138241     0.000000000000    14.003074004430
         H           -0.466874000000     3.552653138241     0.808649000000     1.007825032230
         H            0.933748000000     3.552653138241     0.000000000000     1.007825032230
         H           -0.466874000000     3.552653138241    -0.808649000000     1.007825032230

  Running in cs symmetry.

  Rotational constants: A =      0.02064  B =      0.01662  C =      0.01662 [cm^-1]
  Rotational constants: A =    618.68448  B =    498.34982  C =    498.34981 [MHz]
  Nuclear repulsion =  537.015091096084575

  Charge       = 2
  Multiplicity = 1
  Electrons    = 84
  Nalpha       = 42
  Nbeta        = 42

  ==> Algorithm <==

  SCF Algorithm Type is DF.
  DIIS enabled.
  MOM disabled.
  Fractional occupation disabled.
  Guess Type is SAD.
  Energy threshold   = 1.00e-06
  Density threshold  = 1.00e-06
  Integral threshold = 1.00e-12

  ==> Primary Basis <==

  Basis Set: DEF2-TZVPPD
    Blend: DEF2-TZVPPD
    Number of shells: 98
    Number of basis functions: 312
    Number of Cartesian functions: 381
    Spherical Harmonics?: true
    Max angular momentum: 4

  Core potential: DEF2-TZVPPD
    Number of shells: 16
    Number of ECP primitives: 56
    Number of ECP core electrons: 112
    Max angular momentum: 3

  ==> DFT Potential <==

   => Composite Functional: GAM <= 

   GAM GGA Minessota Exchange-Correlation Functional

    H.S. Yu, et al., Phys. Chem. Chem. Phys. 17, 12146, 2015


    Deriv               =              1
    GGA                 =           TRUE
    Meta                =          FALSE

    Exchange Hybrid     =          FALSE
    MP2 Hybrid          =          FALSE

   => Exchange Functionals <=

    1.0000     XC_GGA_X_GAM

   => Correlation Functionals <=

    1.0000     XC_GGA_C_GAM

   => LibXC Density Thresholds  <==

    XC_GGA_C_GAM:  1.00E-14 
    XC_GGA_X_GAM:  1.00E-14 

   => Molecular Quadrature <=

    Radial Scheme          =       TREUTLER
    Pruning Scheme         =           NONE
    Nuclear Scheme         =       TREUTLER

    BS radius alpha        =              1
    Pruning alpha          =              1
    Radial Points          =             75
    Spherical Points       =            302
    Total Points           =         169506
    Total Blocks           =           1381
    Max Points             =            256
    Max Functions          =            296
    Weights Tolerance      =       1.00E-15

   => Loading Basis Set <=

    Name: (DEF2-TZVPPD AUX)
    Role: JKFIT
    Keyword: DF_BASIS_SCF
    atoms 1-4 entry AG         line  4364 file /mnt/storage/home/zw18965/.conda/envs/p4env/share/psi4/basis/def2-universal-jkfit.gbs 
    atoms 5   entry N          line   258 file /mnt/storage/home/zw18965/.conda/envs/p4env/share/psi4/basis/def2-universal-jkfit.gbs 
    atoms 6-8 entry H          line    18 file /mnt/storage/home/zw18965/.conda/envs/p4env/share/psi4/basis/def2-universal-jkfit.gbs 

  ==> Integral Setup <==

  DFHelper Memory: AOs need 0.828 GiB; user supplied 99.678 GiB. Using in-core AOs.

  ==> MemDFJK: Density-Fitted J/K Matrices <==

    J tasked:                   Yes
    K tasked:                    No
    wK tasked:                   No
    OpenMP threads:              28
    Memory [MiB]:            102070
    Algorithm:                 Core
    Schwarz Cutoff:           1E-12
    Mask sparsity (%):       7.8033
    Fitting Condition:        1E-10

   => Auxiliary Basis Set <=

  Basis Set: (DEF2-TZVPPD AUX)
    Blend: DEF2-UNIVERSAL-JKFIT
    Number of shells: 239
    Number of basis functions: 1151
    Number of Cartesian functions: 1689
    Spherical Harmonics?: true
    Max angular momentum: 6

  Cached 100.0% of DFT collocation blocks in 0.905 [GiB].

  Minimum eigenvalue in the overlap matrix is 2.0631835883E-04.
  Reciprocal condition number of the overlap matrix is 2.4659055484E-05.
    Using symmetric orthogonalization.

  ==> Pre-Iterations <==

  SCF Guess: Superposition of Atomic Densities via on-the-fly atomic UHF (no occupation information).

   -------------------------
    Irrep   Nso     Nmo    
   -------------------------
     A'       182     182 
     A"       130     130 
   -------------------------
    Total     312     312
   -------------------------

  ==> Iterations <==

                           Total Energy        Delta E     RMS |[F,P]|

   @DF-RKS iter SAD:  -645.96590738271493   -6.45966e+02   0.00000e+00 
   @DF-RKS iter   1:  -646.03314124339624   -6.72339e-02   4.36388e-03 DIIS
   @DF-RKS iter   2:  -643.85447447084982    2.17867e+00   8.16125e-03 DIIS
   @DF-RKS iter   3:  -646.18513115686289   -2.33066e+00   2.76119e-03 DIIS
   @DF-RKS iter   4:  -646.37683972849163   -1.91709e-01   1.24870e-03 DIIS
   @DF-RKS iter   5:  -646.39978751929482   -2.29478e-02   6.75563e-04 DIIS
   @DF-RKS iter   6:  -646.40659189203154   -6.80437e-03   1.84137e-04 DIIS
   @DF-RKS iter   7:  -646.40726792116504   -6.76029e-04   6.21462e-05 DIIS
   @DF-RKS iter   8:  -646.40734881632545   -8.08952e-05   2.49793e-05 DIIS
   @DF-RKS iter   9:  -646.40736040260504   -1.15863e-05   3.43843e-06 DIIS
   @DF-RKS iter  10:  -646.40736057695972   -1.74355e-07   9.46851e-07 DIIS
  Energy and wave function converged.


  ==> Post-Iterations <==

   Electrons on quadrature grid:
      Ntotal   =   83.9999908469 ; deviation = -9.153e-06 

    Orbital Energies [Eh]
    ---------------------

    Doubly Occupied:                                                      

       1Ap   -14.317286     2Ap    -3.934159     3Ap    -3.933895  
       1App   -3.933883     4Ap    -3.927771     5Ap    -2.567932  
       2App   -2.565952     6Ap    -2.565952     7Ap    -2.564525  
       3App   -2.564524     4App   -2.563988     8Ap    -2.563612  
       9Ap    -2.562805     5App   -2.562796    10Ap    -2.559372  
       6App   -2.557405    11Ap    -2.557405    12Ap    -1.095859  
       7App   -0.719668    13Ap    -0.719662    14Ap    -0.681867  
      15Ap    -0.659709    16Ap    -0.657201     8App   -0.657185  
       9App   -0.649014    17Ap    -0.649011    18Ap    -0.640158  
      10App   -0.635262    19Ap    -0.635251    11App   -0.619385  
      20Ap    -0.618590    12App   -0.618582    21Ap    -0.616558  
      13App   -0.616557    22Ap    -0.614813    14App   -0.614778  
      23Ap    -0.614775    15App   -0.603782    24Ap    -0.601583  
      16App   -0.601571    25Ap    -0.593300    26Ap    -0.541086  

    Virtual:                                                              

      17App   -0.439956    27Ap    -0.439956    28Ap    -0.425178  
      29Ap    -0.327651    30Ap    -0.318057    18App   -0.318057  
      19App   -0.302139    31Ap    -0.302108    32Ap    -0.299801  
      33Ap    -0.229291    20App   -0.189210    34Ap    -0.189187  
      21App   -0.185405    35Ap    -0.185405    22App   -0.184669  
      36Ap    -0.160482    23App   -0.160479    37Ap    -0.158557  
      38Ap    -0.137381    39Ap    -0.107548    24App   -0.102055  
      40Ap    -0.102023    41Ap    -0.097773    25App   -0.087421  
      42Ap    -0.087398    43Ap    -0.084849    26App   -0.073564  
      44Ap    -0.073554    45Ap    -0.064167    27App   -0.064165  
      46Ap    -0.052427    28App   -0.017832    47Ap    -0.017792  
      29App   -0.002439    30App    0.004788    48Ap     0.004794  
      49Ap     0.010357    50Ap     0.027041    31App    0.027052  
      51Ap     0.035045    32App    0.050977    52Ap     0.054746  
      33App    0.054751    53Ap     0.070993    34App    0.071005  
      54Ap     0.095134    55Ap     0.116941    35App    0.143589  
      56Ap     0.143683    57Ap     0.176925    36App    0.180322  
      58Ap     0.180476    37App    0.197478    59Ap     0.197484  
      38App    0.208549    60Ap     0.235237    39App    0.260779  
      61Ap     0.260784    40App    0.266961    62Ap     0.266986  
      63Ap     0.300135    41App    0.300191    64Ap     0.304827  
      65Ap     0.318615    42App    0.354902    66Ap     0.354942  
      43App    0.368146    67Ap     0.368148    44App    0.384189  
      68Ap     0.405697    45App    0.432261    69Ap     0.432321  
      70Ap     0.466704    71Ap     0.520052    46App    0.520064  
      72Ap     0.547563    47App    0.766052    48App    0.778214  
      73Ap     0.778325    74Ap     0.792693    49App    0.899414  
      75Ap     0.899465    76Ap     0.913064    50App    0.913071  
      77Ap     1.097384    78Ap     1.104350    51App    1.104353  
      79Ap     1.142138    80Ap     1.144243    52App    1.144282  
      81Ap     1.151353    82Ap     1.153769    53App    1.153771  
      83Ap     1.157658    54App    1.170203    55App    1.180708  
      84Ap     1.180734    85Ap     1.188008    56App    1.188027  
      86Ap     1.190736    57App    1.193922    58App    1.202164  
      87Ap     1.202189    88Ap     1.210752    59App    1.218325  
      60App    1.221851    89Ap     1.221858    61App    1.226545  
      90Ap     1.226582    91Ap     1.236699    62App    1.260657  
      63App    1.263813    92Ap     1.263814    64App    1.276635  
      93Ap     1.276648    94Ap     1.294341    65App    1.297800  
      95Ap     1.297812    96Ap     1.303570    66App    1.379586  
      97Ap     1.379601    98Ap     1.390539    67App    1.415307  
      99Ap     1.415327   100Ap     1.488898    68App    1.496213  
      69App    1.499778   101Ap     1.499874   102Ap     1.568998  
      70App    1.569056   103Ap     1.679341    71App    1.679637  
     104Ap     1.679704    72App    1.702939    73App    1.725645  
     105Ap     1.725716    74App    1.752287   106Ap     1.752327  
     107Ap     1.774405   108Ap     1.786172    75App    1.786265  
     109Ap     1.787053    76App    1.787097    77App    1.797959  
     110Ap     1.801726   111Ap     1.815194    78App    1.815217  
     112Ap     1.926084    79App    1.932115   113Ap     1.932200  
     114Ap     2.075376   115Ap     2.235971    80App    2.235976  
     116Ap     2.258965   117Ap     2.271479   118Ap     2.372895  
     119Ap     2.405002    81App    2.405094   120Ap     2.451360  
     121Ap     2.592635    82App    2.592652   122Ap     2.705985  
      83App    2.853990   123Ap     2.911829    84App    2.911833  
     124Ap     2.999365    85App    2.999397   125Ap     3.113344  
      86App    3.113378    87App    3.114668   126Ap     3.479585  
      88App    3.523811   127Ap     3.523843   128Ap     3.617496  
      89App    3.617502   129Ap     3.635674    90App    3.788755  
     130Ap     3.788762    91App    4.017243    92App    4.075181  
     131Ap     4.075254   132Ap     4.177105   133Ap     4.279985  
      93App    4.280072   134Ap     4.299000   135Ap     4.301459  
      94App    4.301509   136Ap     4.311829    95App    4.322132  
     137Ap     4.322752   138Ap     4.329602    96App    4.329647  
      97App    4.334688   139Ap     4.343555   140Ap     4.351542  
      98App    4.351624   141Ap     4.364068    99App    4.364154  
     100App    4.364962   142Ap     4.376725   101App    4.380048  
     143Ap     4.380067   102App    4.395598   144Ap     4.395655  
     145Ap     4.446480   146Ap     4.501130   103App    4.501168  
     147Ap     4.526943   104App    4.526974   148Ap     4.527104  
     105App    4.527196   149Ap     4.552197   106App    4.552219  
     150Ap     4.812462   107App    4.812584   151Ap     4.855949  
     152Ap     5.059872   108App    5.063287   153Ap     5.063663  
     109App    5.063980   154Ap     5.064260   155Ap     5.064347  
     110App    5.064829   156Ap     5.064900   111App    5.064929  
     112App    5.065328   157Ap     5.065545   113App    5.065606  
     114App    5.066003   158Ap     5.066498   115App    5.066788  
     159Ap     5.066904   116App    5.067347   160Ap     5.067445  
     117App    5.067679   161Ap     5.068185   118App    5.068290  
     162Ap     5.070075   119App    5.070370   163Ap     5.071559  
     120App    5.072438   164Ap     5.072680   165Ap     5.072753  
     121App    5.073371   166Ap     5.073540   122App    5.073885  
     167Ap     5.074301   123App    5.074521   168Ap     5.077498  
     169Ap     5.085706   170Ap     5.087388   124App    5.087448  
     171Ap     5.093808   125App    5.368809   172Ap     5.469821  
     126App    5.469990   127App    5.572739   173Ap     5.572835  
     174Ap     6.020715   128App    6.278993   175Ap     6.279069  
     176Ap    32.260033   177Ap    33.104487   178Ap    33.411474  
     179Ap    33.480057   129App   33.480068   180Ap   110.463130  
     181Ap   110.563943   182Ap   110.582715   130App  110.582728  

    Final Occupation by Irrep:
             Ap   App 
    DOCC [    26,   16 ]

  @DF-RKS Final Energy:  -646.40736057695972

   => Energetics <=

    Nuclear Repulsion Energy =            537.0150910960845749
    One-Electron Energy =               -2166.5550963266668987
    Two-Electron Energy =                1050.1160744950198023
    DFT Exchange-Correlation Energy =     -66.9834298413972817
    Empirical Dispersion Energy =           0.0000000000000000
    VV10 Nonlocal Energy =                  0.0000000000000000
    Total Energy =                       -646.4073605769597179

Computation Completed


Properties will be evaluated at   0.000000,   0.000000,   0.000000 [a0]

Properties computed using the SCF density matrix

  Nuclear Dipole Moment: [e a0]
     X:     0.0000      Y:    43.1818      Z:    -0.0000

  Electronic Dipole Moment: [e a0]
     X:     0.0005      Y:   -41.4941      Z:     0.0000

  Dipole Moment: [e a0]
     X:     0.0005      Y:     1.6876      Z:    -0.0000     Total:     1.6876

  Dipole Moment: [D]
     X:     0.0013      Y:     4.2895      Z:    -0.0000     Total:     4.2895


*** tstop() called on compute452.bc4.acrc.priv at Tue Nov  2 14:35:18 2021
Module time:
	user time   =     210.73 seconds =       3.51 minutes
	system time =       5.04 seconds =       0.08 minutes
	total time  =         18 seconds =       0.30 minutes
Total time:
	user time   =     210.73 seconds =       3.51 minutes
	system time =       5.04 seconds =       0.08 minutes
	total time  =         18 seconds =       0.30 minutes

    Psi4 stopped on: Tuesday, 02 November 2021 02:35PM
    Psi4 wall time for execution: 0:00:18.17

*** Psi4 exiting successfully. Buy a developer a beer!
