
    -----------------------------------------------------------------------
          Psi4: An Open-Source Ab Initio Electronic Structure Package
                               Psi4 1.4.1 release

                         Git: Rev {HEAD} cd00f19 


    D. G. A. Smith, L. A. Burns, A. C. Simmonett, R. M. Parrish,
    M. C. Schieber, R. Galvelis, P. Kraus, H. Kruse, R. Di Remigio,
    A. Alenaizan, A. M. James, S. Lehtola, J. P. Misiewicz, M. Scheurer,
    R. A. Shaw, J. B. Schriber, Y. Xie, Z. L. Glick, D. A. Sirianni,
    J. S. O'Brien, J. M. Waldrop, A. Kumar, E. G. Hohenstein,
    B. P. Pritchard, B. R. Brooks, H. F. Schaefer III, A. Yu. Sokolov,
    K. Patkowski, A. E. DePrince III, U. Bozkaya, R. A. King,
    F. A. Evangelista, J. M. Turney, T. D. Crawford, C. D. Sherrill,
    J. Chem. Phys. 152(18) 184108 (2020). https://doi.org/10.1063/5.0006002

                            Additional Code Authors
    E. T. Seidl, C. L. Janssen, E. F. Valeev, M. L. Leininger,
    J. F. Gonthier, R. M. Richard, H. R. McAlexander, M. Saitow, X. Wang,
    P. Verma, and M. H. Lechner

             Previous Authors, Complete List of Code Contributors,
                       and Citations for Specific Modules
    https://github.com/psi4/psi4/blob/master/codemeta.json
    https://github.com/psi4/psi4/graphs/contributors
    http://psicode.org/psi4manual/master/introduction.html#citing-psifour

    -----------------------------------------------------------------------


    Psi4 started on: Tuesday, 02 November 2021 03:01PM

    Process ID: 12165
    Host:       compute087.bc4.acrc.priv
    PSIDATADIR: /mnt/storage/home/zw18965/.conda/envs/p4env/share/psi4
    Memory:     500.0 MiB
    Threads:    28
    
  ==> Input File <==

--------------------------------------------------------------------------
memory 144 GB

molecule {
2 1
Ag      -0.268639    1.507918    0.000000 
Ag       1.705052   -0.492854   -0.000000 
Ag      -0.647170   -0.911099    1.379441 
Ag      -0.647170   -0.911099   -1.379441 
N       -0.647170    3.675657    0.000000 
H       -0.250844    4.149729    0.817426 
H       -0.250844    4.149729   -0.817426 
H       -1.645581    3.906275    0.000000 
 }

set basis Def2-TZVPPD

energy("GAM")
--------------------------------------------------------------------------

  Memory set to 134.110 GiB by Python driver.

Scratch directory: /tmp/

*** tstart() called on compute087.bc4.acrc.priv
*** at Tue Nov  2 15:01:53 2021

   => Loading Basis Set <=

    Name: DEF2-TZVPPD
    Role: ORBITAL
    Keyword: BASIS
    atoms 1-4 entry AG         line  2174 (ECP: line  3646) file /mnt/storage/home/zw18965/.conda/envs/p4env/share/psi4/basis/def2-tzvppd.gbs 
    atoms 5   entry N          line   181 file /mnt/storage/home/zw18965/.conda/envs/p4env/share/psi4/basis/def2-tzvppd.gbs 
    atoms 6-8 entry H          line    14 file /mnt/storage/home/zw18965/.conda/envs/p4env/share/psi4/basis/def2-tzvppd.gbs 

    !!!  WARNING: ECP capability is in beta. Please check occupations closely.  !!!


         ---------------------------------------------------------
                                   SCF
               by Justin Turney, Rob Parrish, Andy Simmonett
                          and Daniel G. A. Smith
                              RKS Reference
                       28 Threads, 137329 MiB Core
         ---------------------------------------------------------

  ==> Geometry <==

    Molecular point group: cs
    Full point group: Cs

    Geometry (in Angstrom), charge = 2, multiplicity = 1:

       Center              X                  Y                   Z               Mass       
    ------------   -----------------  -----------------  -----------------  -----------------
         AG          -0.277549184886     1.558553668839     0.000000000000   106.905091600000
         AG           1.696141815114    -0.442218331161     0.000000000000   106.905091600000
         AG          -0.656080184886    -0.860463331161     1.379441000000   106.905091600000
         AG          -0.656080184886    -0.860463331161    -1.379441000000   106.905091600000
         N           -0.656080184886     3.726292668839     0.000000000000    14.003074004430
         H           -0.259754184886     4.200364668839     0.817426000000     1.007825032230
         H           -0.259754184886     4.200364668839    -0.817426000000     1.007825032230
         H           -1.654491184886     3.956910668839     0.000000000000     1.007825032230

  Running in cs symmetry.

  Rotational constants: A =      0.02065  B =      0.01531  C =      0.01530 [cm^-1]
  Rotational constants: A =    619.07535  B =    458.84484  C =    458.82428 [MHz]
  Nuclear repulsion =  527.725235825397704

  Charge       = 2
  Multiplicity = 1
  Electrons    = 84
  Nalpha       = 42
  Nbeta        = 42

  ==> Algorithm <==

  SCF Algorithm Type is DF.
  DIIS enabled.
  MOM disabled.
  Fractional occupation disabled.
  Guess Type is SAD.
  Energy threshold   = 1.00e-06
  Density threshold  = 1.00e-06
  Integral threshold = 1.00e-12

  ==> Primary Basis <==

  Basis Set: DEF2-TZVPPD
    Blend: DEF2-TZVPPD
    Number of shells: 98
    Number of basis functions: 312
    Number of Cartesian functions: 381
    Spherical Harmonics?: true
    Max angular momentum: 4

  Core potential: DEF2-TZVPPD
    Number of shells: 16
    Number of ECP primitives: 56
    Number of ECP core electrons: 112
    Max angular momentum: 3

  ==> DFT Potential <==

   => Composite Functional: GAM <= 

   GAM GGA Minessota Exchange-Correlation Functional

    H.S. Yu, et al., Phys. Chem. Chem. Phys. 17, 12146, 2015


    Deriv               =              1
    GGA                 =           TRUE
    Meta                =          FALSE

    Exchange Hybrid     =          FALSE
    MP2 Hybrid          =          FALSE

   => Exchange Functionals <=

    1.0000     XC_GGA_X_GAM

   => Correlation Functionals <=

    1.0000     XC_GGA_C_GAM

   => LibXC Density Thresholds  <==

    XC_GGA_C_GAM:  1.00E-14 
    XC_GGA_X_GAM:  1.00E-14 

   => Molecular Quadrature <=

    Radial Scheme          =       TREUTLER
    Pruning Scheme         =           NONE
    Nuclear Scheme         =       TREUTLER

    BS radius alpha        =              1
    Pruning alpha          =              1
    Radial Points          =             75
    Spherical Points       =            302
    Total Points           =         169899
    Total Blocks           =           1408
    Max Points             =            256
    Max Functions          =            292
    Weights Tolerance      =       1.00E-15

   => Loading Basis Set <=

    Name: (DEF2-TZVPPD AUX)
    Role: JKFIT
    Keyword: DF_BASIS_SCF
    atoms 1-4 entry AG         line  4364 file /mnt/storage/home/zw18965/.conda/envs/p4env/share/psi4/basis/def2-universal-jkfit.gbs 
    atoms 5   entry N          line   258 file /mnt/storage/home/zw18965/.conda/envs/p4env/share/psi4/basis/def2-universal-jkfit.gbs 
    atoms 6-8 entry H          line    18 file /mnt/storage/home/zw18965/.conda/envs/p4env/share/psi4/basis/def2-universal-jkfit.gbs 

  ==> Integral Setup <==

  DFHelper Memory: AOs need 0.788 GiB; user supplied 99.732 GiB. Using in-core AOs.

  ==> MemDFJK: Density-Fitted J/K Matrices <==

    J tasked:                   Yes
    K tasked:                    No
    wK tasked:                   No
    OpenMP threads:              28
    Memory [MiB]:            102125
    Algorithm:                 Core
    Schwarz Cutoff:           1E-12
    Mask sparsity (%):      12.5657
    Fitting Condition:        1E-10

   => Auxiliary Basis Set <=

  Basis Set: (DEF2-TZVPPD AUX)
    Blend: DEF2-UNIVERSAL-JKFIT
    Number of shells: 239
    Number of basis functions: 1151
    Number of Cartesian functions: 1689
    Spherical Harmonics?: true
    Max angular momentum: 6

  Cached 100.0% of DFT collocation blocks in 0.851 [GiB].

  Minimum eigenvalue in the overlap matrix is 1.7564697249E-04.
  Reciprocal condition number of the overlap matrix is 2.1272051910E-05.
    Using symmetric orthogonalization.

  ==> Pre-Iterations <==

  SCF Guess: Superposition of Atomic Densities via on-the-fly atomic UHF (no occupation information).

   -------------------------
    Irrep   Nso     Nmo    
   -------------------------
     A'       182     182 
     A"       130     130 
   -------------------------
    Total     312     312
   -------------------------

  ==> Iterations <==

                           Total Energy        Delta E     RMS |[F,P]|

   @DF-RKS iter SAD:  -645.99366526624146   -6.45994e+02   0.00000e+00 
    Occupation by irrep:
             Ap   App 
    DOCC [    25,   17 ]

   @DF-RKS iter   1:  -646.09358868466279   -9.99234e-02   4.23357e-03 DIIS
    Occupation by irrep:
             Ap   App 
    DOCC [    26,   16 ]

   @DF-RKS iter   2:  -643.98264390540419    2.11094e+00   7.71124e-03 DIIS
   @DF-RKS iter   3:  -646.22353161842614   -2.24089e+00   2.82771e-03 DIIS
   @DF-RKS iter   4:  -646.41867013248600   -1.95139e-01   1.14952e-03 DIIS
   @DF-RKS iter   5:  -646.43917627253086   -2.05061e-02   5.83845e-04 DIIS
   @DF-RKS iter   6:  -646.44348605742925   -4.30978e-03   2.46978e-04 DIIS
   @DF-RKS iter   7:  -646.44451268626881   -1.02663e-03   8.04798e-05 DIIS
   @DF-RKS iter   8:  -646.44462833351940   -1.15647e-04   2.08167e-05 DIIS
   @DF-RKS iter   9:  -646.44463423115303   -5.89763e-06   8.81092e-06 DIIS
   @DF-RKS iter  10:  -646.44463559606822   -1.36492e-06   3.15672e-06 DIIS
   @DF-RKS iter  11:  -646.44463576965984   -1.73592e-07   7.36312e-07 DIIS
  Energy and wave function converged.


  ==> Post-Iterations <==

   Electrons on quadrature grid:
      Ntotal   =   83.9999655694 ; deviation = -3.443e-05 

    Orbital Energies [Eh]
    ---------------------

    Doubly Occupied:                                                      

       1Ap   -14.336642     2Ap    -3.929275     3Ap    -3.929008  
       1App   -3.929003     4Ap    -3.917478     5Ap    -2.562846  
       2App   -2.560697     6Ap    -2.560695     3App   -2.559193  
       7Ap    -2.559191     8Ap    -2.559094     4App   -2.558473  
       9Ap    -2.558429     5App   -2.558425    10Ap    -2.548328  
      11Ap    -2.546785     6App   -2.546785    12Ap    -1.111433  
       7App   -0.736600    13Ap    -0.736596    14Ap    -0.682557  
      15Ap    -0.657105    16Ap    -0.650251     8App   -0.650240  
       9App   -0.641039    17Ap    -0.641027    18Ap    -0.637421  
      19Ap    -0.633319    10App   -0.628414    20Ap    -0.628404  
      11App   -0.613964    12App   -0.613397    21Ap    -0.613384  
      22Ap    -0.611607    13App   -0.611592    14App   -0.604537  
      23Ap    -0.604525    15App   -0.598253    24Ap    -0.592379  
      16App   -0.592357    25Ap    -0.571568    26Ap    -0.556734  

    Virtual:                                                              

      27Ap    -0.434055    17App   -0.434053    28Ap    -0.405275  
      29Ap    -0.316424    30Ap    -0.310015    18App   -0.310006  
      19App   -0.297307    31Ap    -0.297299    32Ap    -0.276928  
      33Ap    -0.207605    20App   -0.187824    34Ap    -0.187822  
      21App   -0.177467    22App   -0.173221    35Ap    -0.173186  
      23App   -0.157299    36Ap    -0.157298    37Ap    -0.156409  
      38Ap    -0.118042    39Ap    -0.115757    24App   -0.115618  
      40Ap    -0.103802    41Ap    -0.086631    42Ap    -0.077008  
      25App   -0.077001    43Ap    -0.067741    26App   -0.067682  
      44Ap    -0.059388    27App   -0.059322    45Ap    -0.059137  
      46Ap    -0.019210    47Ap    -0.015406    28App   -0.015169  
      29App    0.003197    48Ap     0.013631    30App    0.013731  
      31App    0.024351    49Ap     0.024405    50Ap     0.026385  
      51Ap     0.051793    32App    0.065112    52Ap     0.065143  
      33App    0.072916    34App    0.075554    53Ap     0.075855  
      54Ap     0.080859    55Ap     0.117446    56Ap     0.140414  
      35App    0.140473    57Ap     0.176401    36App    0.183157  
      58Ap     0.186590    37App    0.186730    59Ap     0.191164  
      38App    0.191240    39App    0.213963    60Ap     0.214129  
      61Ap     0.248261    62Ap     0.264602    40App    0.264735  
      63Ap     0.308818    41App    0.313119    64Ap     0.313318  
      65Ap     0.339528    42App    0.339616    43App    0.381977  
      66Ap     0.390720    44App    0.404090    67Ap     0.404242  
      68Ap     0.413307    69Ap     0.433672    45App    0.433778  
      70Ap     0.491518    71Ap     0.565023    46App    0.565497  
      72Ap     0.588686    47App    0.755206    73Ap     0.807355  
      48App    0.807433    74Ap     0.847322    75Ap     0.852262  
      49App    0.852441    50App    0.911863    76Ap     0.911866  
      77Ap     1.094435    78Ap     1.123580    51App    1.123614  
      79Ap     1.146333    80Ap     1.151705    52App    1.159835  
      81Ap     1.159837    82Ap     1.167028    53App    1.167117  
      83Ap     1.178170    54App    1.178961    55App    1.184122  
      84Ap     1.184141    85Ap     1.192143    86Ap     1.195566  
      56App    1.195570    57App    1.201579    58App    1.204222  
      87Ap     1.204452    88Ap     1.212245    89Ap     1.220362  
      59App    1.224395    90Ap     1.224440    60App    1.224576  
      91Ap     1.238276    61App    1.238349    62App    1.252854  
      92Ap     1.252908    63App    1.267229    93Ap     1.281686  
      64App    1.281732    94Ap     1.297170    95Ap     1.361882  
      65App    1.361901    66App    1.374233    96Ap     1.374241  
      97Ap     1.384207    67App    1.409282    98Ap     1.409328  
      99Ap     1.469326    68App    1.486682   100Ap     1.486727  
      69App    1.498572   101Ap     1.532032    70App    1.532238  
     102Ap     1.588581   103Ap     1.666864    71App    1.676855  
     104Ap     1.676995    72App    1.694881    73App    1.705455  
     105Ap     1.705505   106Ap     1.732138    74App    1.733583  
     107Ap     1.733746   108Ap     1.779947    75App    1.780035  
     109Ap     1.784905   110Ap     1.789643    76App    1.789662  
      77App    1.800122    78App    1.811442   111Ap     1.811604  
     112Ap     1.850429   113Ap     2.018689    79App    2.019612  
     114Ap     2.146304    80App    2.232045   115Ap     2.232054  
     116Ap     2.246090   117Ap     2.356751   118Ap     2.383244  
      81App    2.383337   119Ap     2.431799   120Ap     2.478695  
      82App    2.554603   121Ap     2.554742   122Ap     2.800006  
      83App    2.838258   123Ap     2.913419    84App    2.913461  
     124Ap     2.986901    85App    2.986995    86App    3.085584  
     125Ap     3.114948    87App    3.114982   126Ap     3.519622  
      88App    3.519646   127Ap     3.588281    89App    3.632600  
     128Ap     3.632636   129Ap     3.697827   130Ap     3.776348  
      90App    3.776502    91App    3.978986   131Ap     4.090038  
      92App    4.090170   132Ap     4.141016   133Ap     4.268301  
     134Ap     4.298075   135Ap     4.303322    93App    4.303573  
      94App    4.313395   136Ap     4.313459   137Ap     4.323638  
     138Ap     4.328991    95App    4.329145    96App    4.329298  
     139Ap     4.338605    97App    4.341621   140Ap     4.363325  
      98App    4.363640    99App    4.370050   100App    4.378759  
     141Ap     4.379108   142Ap     4.380270   101App    4.389795  
     143Ap     4.390006   102App    4.391251   144Ap     4.391399  
     103App    4.465922   145Ap     4.466246   146Ap     4.518317  
     104App    4.531153   147Ap     4.535070   105App    4.535130  
     148Ap     4.596057   106App    4.596321   149Ap     4.755020  
     150Ap     4.823413   107App    4.823440   151Ap     4.884175  
     108App    5.068989   152Ap     5.069077   109App    5.069375  
     153Ap     5.069450   154Ap     5.069705   155Ap     5.070021  
     110App    5.070059   111App    5.070205   112App    5.070544  
     156Ap     5.070582   157Ap     5.070729   113App    5.071192  
     114App    5.071268   158Ap     5.071770   115App    5.071909  
     159Ap     5.071935   116App    5.072286   160Ap     5.072568  
     117App    5.072828   118App    5.072970   161Ap     5.073193  
     162Ap     5.074595   119App    5.074804   163Ap     5.075493  
     120App    5.079941   164Ap     5.080050   165Ap     5.081868  
     121App    5.086828   166Ap     5.087051   122App    5.087384  
     123App    5.090777   167Ap     5.090827   168Ap     5.092543  
     169Ap     5.099825   170Ap     5.116707   124App    5.117065  
     171Ap     5.270006   172Ap     5.424775   125App    5.424885  
     126App    5.429725   127App    5.557768   173Ap     5.557789  
     174Ap     6.075218   175Ap     6.267902   128App    6.267985  
     176Ap    32.276385   177Ap    33.112635   178Ap    33.462041  
     129App   33.462365   179Ap    33.578635   180Ap   110.469964  
     181Ap   110.580211   130App  110.580313   182Ap   110.623583  

    Final Occupation by Irrep:
             Ap   App 
    DOCC [    26,   16 ]

  @DF-RKS Final Energy:  -646.44463576965984

   => Energetics <=

    Nuclear Repulsion Energy =            527.7252358253977036
    One-Electron Energy =               -2148.3369730180193073
    Two-Electron Energy =                1041.1414899328792671
    DFT Exchange-Correlation Energy =     -66.9743885099174605
    Empirical Dispersion Energy =           0.0000000000000000
    VV10 Nonlocal Energy =                  0.0000000000000000
    Total Energy =                       -646.4446357696598398

Computation Completed


Properties will be evaluated at   0.000000,   0.000000,   0.000000 [a0]

Properties computed using the SCF density matrix

  Nuclear Dipole Moment: [e a0]
     X:    -8.9655      Y:    50.9365      Z:    -0.0000

  Electronic Dipole Moment: [e a0]
     X:     8.6298      Y:   -49.0197      Z:     0.0000

  Dipole Moment: [e a0]
     X:    -0.3357      Y:     1.9169      Z:    -0.0000     Total:     1.9460

  Dipole Moment: [D]
     X:    -0.8533      Y:     4.8722      Z:    -0.0000     Total:     4.9463


*** tstop() called on compute087.bc4.acrc.priv at Tue Nov  2 15:02:11 2021
Module time:
	user time   =     212.85 seconds =       3.55 minutes
	system time =       5.95 seconds =       0.10 minutes
	total time  =         18 seconds =       0.30 minutes
Total time:
	user time   =     212.85 seconds =       3.55 minutes
	system time =       5.95 seconds =       0.10 minutes
	total time  =         18 seconds =       0.30 minutes

    Psi4 stopped on: Tuesday, 02 November 2021 03:02PM
    Psi4 wall time for execution: 0:00:19.05

*** Psi4 exiting successfully. Buy a developer a beer!
