
    -----------------------------------------------------------------------
          Psi4: An Open-Source Ab Initio Electronic Structure Package
                               Psi4 1.4.1 release

                         Git: Rev {HEAD} cd00f19 


    D. G. A. Smith, L. A. Burns, A. C. Simmonett, R. M. Parrish,
    M. C. Schieber, R. Galvelis, P. Kraus, H. Kruse, R. Di Remigio,
    A. Alenaizan, A. M. James, S. Lehtola, J. P. Misiewicz, M. Scheurer,
    R. A. Shaw, J. B. Schriber, Y. Xie, Z. L. Glick, D. A. Sirianni,
    J. S. O'Brien, J. M. Waldrop, A. Kumar, E. G. Hohenstein,
    B. P. Pritchard, B. R. Brooks, H. F. Schaefer III, A. Yu. Sokolov,
    K. Patkowski, A. E. DePrince III, U. Bozkaya, R. A. King,
    F. A. Evangelista, J. M. Turney, T. D. Crawford, C. D. Sherrill,
    J. Chem. Phys. 152(18) 184108 (2020). https://doi.org/10.1063/5.0006002

                            Additional Code Authors
    E. T. Seidl, C. L. Janssen, E. F. Valeev, M. L. Leininger,
    J. F. Gonthier, R. M. Richard, H. R. McAlexander, M. Saitow, X. Wang,
    P. Verma, and M. H. Lechner

             Previous Authors, Complete List of Code Contributors,
                       and Citations for Specific Modules
    https://github.com/psi4/psi4/blob/master/codemeta.json
    https://github.com/psi4/psi4/graphs/contributors
    http://psicode.org/psi4manual/master/introduction.html#citing-psifour

    -----------------------------------------------------------------------


    Psi4 started on: Tuesday, 02 November 2021 04:10PM

    Process ID: 31066
    Host:       compute495.bc4.acrc.priv
    PSIDATADIR: /mnt/storage/home/zw18965/.conda/envs/p4env/share/psi4
    Memory:     500.0 MiB
    Threads:    28
    
  ==> Input File <==

--------------------------------------------------------------------------
memory 144 GB

molecule {
0 1
Ag      -1.015022   -0.433109    0.700282 
Ag       0.974659   -2.209777    0.043294 
Ag       1.013798    0.433158   -0.699441 
Ag      -0.973435    2.209727   -0.044135 
 }

set basis Def2-TZVPPD

energy("GAM")
--------------------------------------------------------------------------

  Memory set to 134.110 GiB by Python driver.

Scratch directory: /tmp/

*** tstart() called on compute495.bc4.acrc.priv
*** at Tue Nov  2 16:10:01 2021

   => Loading Basis Set <=

    Name: DEF2-TZVPPD
    Role: ORBITAL
    Keyword: BASIS
    atoms 1-4 entry AG         line  2174 (ECP: line  3646) file /mnt/storage/home/zw18965/.conda/envs/p4env/share/psi4/basis/def2-tzvppd.gbs 

    !!!  WARNING: ECP capability is in beta. Please check occupations closely.  !!!


         ---------------------------------------------------------
                                   SCF
               by Justin Turney, Rob Parrish, Andy Simmonett
                          and Daniel G. A. Smith
                              RKS Reference
                       28 Threads, 137329 MiB Core
         ---------------------------------------------------------

  ==> Geometry <==

    Molecular point group: c1
    Full point group: C1

    Geometry (in Angstrom), charge = 0, multiplicity = 1:

       Center              X                  Y                   Z               Mass       
    ------------   -----------------  -----------------  -----------------  -----------------
         AG          -1.015022000000    -0.433108750000     0.700282000000   106.905091600000
         AG           0.974659000000    -2.209776750000     0.043294000000   106.905091600000
         AG           1.013798000000     0.433158250000    -0.699441000000   106.905091600000
         AG          -0.973435000000     2.209727250000    -0.044135000000   106.905091600000

  Running in c1 symmetry.

  Rotational constants: A =      0.04620  B =      0.01352  C =      0.01046 [cm^-1]
  Rotational constants: A =   1385.15368  B =    405.17815  C =    313.48044 [MHz]
  Nuclear repulsion =  390.944057322147103

  Charge       = 0
  Multiplicity = 1
  Electrons    = 76
  Nalpha       = 38
  Nbeta        = 38

  ==> Algorithm <==

  SCF Algorithm Type is DF.
  DIIS enabled.
  MOM disabled.
  Fractional occupation disabled.
  Guess Type is SAD.
  Energy threshold   = 1.00e-06
  Density threshold  = 1.00e-06
  Integral threshold = 1.00e-12

  ==> Primary Basis <==

  Basis Set: DEF2-TZVPPD
    Blend: DEF2-TZVPPD
    Number of shells: 64
    Number of basis functions: 224
    Number of Cartesian functions: 284
    Spherical Harmonics?: true
    Max angular momentum: 4

  Core potential: DEF2-TZVPPD
    Number of shells: 16
    Number of ECP primitives: 56
    Number of ECP core electrons: 112
    Max angular momentum: 3

  ==> DFT Potential <==

   => Composite Functional: GAM <= 

   GAM GGA Minessota Exchange-Correlation Functional

    H.S. Yu, et al., Phys. Chem. Chem. Phys. 17, 12146, 2015


    Deriv               =              1
    GGA                 =           TRUE
    Meta                =          FALSE

    Exchange Hybrid     =          FALSE
    MP2 Hybrid          =          FALSE

   => Exchange Functionals <=

    1.0000     XC_GGA_X_GAM

   => Correlation Functionals <=

    1.0000     XC_GGA_C_GAM

   => LibXC Density Thresholds  <==

    XC_GGA_C_GAM:  1.00E-14 
    XC_GGA_X_GAM:  1.00E-14 

   => Molecular Quadrature <=

    Radial Scheme          =       TREUTLER
    Pruning Scheme         =           NONE
    Nuclear Scheme         =       TREUTLER

    BS radius alpha        =              1
    Pruning alpha          =              1
    Radial Points          =             75
    Spherical Points       =            302
    Total Points           =          83404
    Total Blocks           =            747
    Max Points             =            254
    Max Functions          =            211
    Weights Tolerance      =       1.00E-15

   => Loading Basis Set <=

    Name: (DEF2-TZVPPD AUX)
    Role: JKFIT
    Keyword: DF_BASIS_SCF
    atoms 1-4 entry AG         line  4364 file /mnt/storage/home/zw18965/.conda/envs/p4env/share/psi4/basis/def2-universal-jkfit.gbs 

  ==> Integral Setup <==

  DFHelper Memory: AOs need 0.390 GiB; user supplied 100.259 GiB. Using in-core AOs.

  ==> MemDFJK: Density-Fitted J/K Matrices <==

    J tasked:                   Yes
    K tasked:                    No
    wK tasked:                   No
    OpenMP threads:              28
    Memory [MiB]:            102665
    Algorithm:                 Core
    Schwarz Cutoff:           1E-12
    Mask sparsity (%):       6.2779
    Fitting Condition:        1E-10

   => Auxiliary Basis Set <=

  Basis Set: (DEF2-TZVPPD AUX)
    Blend: DEF2-UNIVERSAL-JKFIT
    Number of shells: 196
    Number of basis functions: 1020
    Number of Cartesian functions: 1536
    Spherical Harmonics?: true
    Max angular momentum: 6

  Cached 100.0% of DFT collocation blocks in 0.323 [GiB].

  Minimum eigenvalue in the overlap matrix is 2.3974620835E-03.
  Reciprocal condition number of the overlap matrix is 3.8058484238E-04.
    Using symmetric orthogonalization.

  ==> Pre-Iterations <==

  SCF Guess: Superposition of Atomic Densities via on-the-fly atomic UHF (no occupation information).

   -------------------------
    Irrep   Nso     Nmo    
   -------------------------
     A        224     224 
   -------------------------
    Total     224     224
   -------------------------

  ==> Iterations <==

                           Total Energy        Delta E     RMS |[F,P]|

   @DF-RKS iter SAD:  -589.66260088751449   -5.89663e+02   0.00000e+00 
   @DF-RKS iter   1:  -590.29548149796142   -6.32881e-01   2.56603e-03 DIIS
   @DF-RKS iter   2:  -589.79606099007219    4.99421e-01   5.94905e-03 DIIS
   @DF-RKS iter   3:  -590.41987788533299   -6.23817e-01   4.12623e-04 DIIS
   @DF-RKS iter   4:  -590.42180058012741   -1.92269e-03   2.64948e-04 DIIS
   @DF-RKS iter   5:  -590.42278103762749   -9.80458e-04   1.02667e-04 DIIS
   @DF-RKS iter   6:  -590.42292003791783   -1.39000e-04   2.28495e-05 DIIS
   @DF-RKS iter   7:  -590.42293352511228   -1.34872e-05   6.17311e-06 DIIS
   @DF-RKS iter   8:  -590.42293438920422   -8.64092e-07   1.29520e-06 DIIS
   @DF-RKS iter   9:  -590.42293440599997   -1.67958e-08   8.36715e-07 DIIS
  Energy and wave function converged.


  ==> Post-Iterations <==

   Electrons on quadrature grid:
      Ntotal   =   76.0000214319 ; deviation = 2.143e-05 

    Orbital Energies [Eh]
    ---------------------

    Doubly Occupied:                                                      

       1A     -3.597636     2A     -3.597254     3A     -3.571058  
       4A     -3.570999     5A     -2.232283     6A     -2.227901  
       7A     -2.227363     8A     -2.226857     9A     -2.226503  
      10A     -2.226103    11A     -2.203121    12A     -2.203000  
      13A     -2.201113    14A     -2.201038    15A     -2.198656  
      16A     -2.198600    17A     -0.331520    18A     -0.330442  
      19A     -0.313571    20A     -0.310359    21A     -0.308137  
      22A     -0.302773    23A     -0.292652    24A     -0.290800  
      25A     -0.279392    26A     -0.278106    27A     -0.270983  
      28A     -0.264810    29A     -0.264594    30A     -0.264440  
      31A     -0.262283    32A     -0.260169    33A     -0.259081  
      34A     -0.257913    35A     -0.255193    36A     -0.249050  
      37A     -0.230172    38A     -0.158021  

    Virtual:                                                              

      39A     -0.129821    40A     -0.086774    41A     -0.066216  
      42A     -0.037401    43A     -0.032739    44A     -0.013479  
      45A     -0.007918    46A      0.016101    47A      0.032390  
      48A      0.045671    49A      0.071931    50A      0.079168  
      51A      0.083267    52A      0.087635    53A      0.105052  
      54A      0.125801    55A      0.143919    56A      0.148356  
      57A      0.151099    58A      0.163987    59A      0.164232  
      60A      0.167868    61A      0.196299    62A      0.208901  
      63A      0.223993    64A      0.234719    65A      0.290153  
      66A      0.317331    67A      0.331588    68A      0.341316  
      69A      0.352858    70A      0.363739    71A      0.367283  
      72A      0.412243    73A      0.419686    74A      0.432019  
      75A      0.502482    76A      0.520624    77A      0.521507  
      78A      0.522744    79A      0.550197    80A      0.552182  
      81A      0.564743    82A      0.593651    83A      0.615909  
      84A      0.625832    85A      0.643242    86A      0.653608  
      87A      0.705990    88A      0.758235    89A      1.400647  
      90A      1.448219    91A      1.467653    92A      1.473031  
      93A      1.473048    94A      1.480891    95A      1.483415  
      96A      1.495449    97A      1.498370    98A      1.501368  
      99A      1.511047   100A      1.527527   101A      1.532387  
     102A      1.532971   103A      1.535133   104A      1.542595  
     105A      1.545711   106A      1.545766   107A      1.550907  
     108A      1.552898   109A      1.552954   110A      1.560807  
     111A      1.570466   112A      1.573043   113A      1.579250  
     114A      1.579992   115A      1.594881   116A      1.600255  
     117A      1.604838   118A      1.622517   119A      1.644733  
     120A      1.652657   121A      1.655872   122A      1.665114  
     123A      1.672019   124A      1.673507   125A      1.692216  
     126A      1.781232   127A      1.815860   128A      1.884228  
     129A      1.912964   130A      1.987082   131A      2.005911  
     132A      2.013140   133A      2.015280   134A      2.030499  
     135A      2.030828   136A      2.038128   137A      2.049111  
     138A      2.057126   139A      2.066520   140A      2.070032  
     141A      2.071410   142A      2.109819   143A      2.129069  
     144A      2.131528   145A      2.132218   146A      2.158494  
     147A      2.184358   148A      2.280197   149A      2.311859  
     150A      2.436885   151A      2.462434   152A      2.540482  
     153A      4.612922   154A      4.615640   155A      4.619441  
     156A      4.632664   157A      4.633348   158A      4.640975  
     159A      4.645760   160A      4.647850   161A      4.652613  
     162A      4.653441   163A      4.655913   164A      4.683599  
     165A      4.685123   166A      4.685773   167A      4.689175  
     168A      4.707031   169A      4.721668   170A      4.723191  
     171A      4.729117   172A      4.731249   173A      4.731693  
     174A      4.744682   175A      4.748334   176A      4.843183  
     177A      4.867040   178A      4.887256   179A      4.890570  
     180A      4.929048   181A      5.401515   182A      5.402141  
     183A      5.402181   184A      5.402275   185A      5.403345  
     186A      5.403478   187A      5.403512   188A      5.403691  
     189A      5.404025   190A      5.405534   191A      5.405755  
     192A      5.406396   193A      5.406470   194A      5.407651  
     195A      5.408060   196A      5.408097   197A      5.411451  
     198A      5.421598   199A      5.428544   200A      5.430827  
     201A      5.431353   202A      5.431515   203A      5.431574  
     204A      5.431630   205A      5.433104   206A      5.433164  
     207A      5.433240   208A      5.433464   209A      5.434149  
     210A      5.434658   211A      5.434703   212A      5.434775  
     213A      5.435082   214A      5.435754   215A      5.435809  
     216A      5.438856   217A     33.325768   218A     33.632602  
     219A     33.665754   220A     33.749013   221A    110.771847  
     222A    110.878245   223A    110.881042   224A    110.898217  

    Final Occupation by Irrep:
              A 
    DOCC [    38 ]

  @DF-RKS Final Energy:  -590.42293440599997

   => Energetics <=

    Nuclear Repulsion Energy =            390.9440573221471027
    One-Electron Energy =               -1828.1358394052649601
    Two-Electron Energy =                 906.0770563733146901
    DFT Exchange-Correlation Energy =     -59.3082086961967718
    Empirical Dispersion Energy =           0.0000000000000000
    VV10 Nonlocal Energy =                  0.0000000000000000
    Total Energy =                       -590.4229344059999676

Computation Completed


Properties will be evaluated at   0.000000,   0.000000,   0.000000 [a0]

Properties computed using the SCF density matrix

  Nuclear Dipole Moment: [e a0]
     X:    -0.0000      Y:     0.0000      Z:    -0.0000

  Electronic Dipole Moment: [e a0]
     X:    -0.0008      Y:    -0.0001      Z:     0.0005

  Dipole Moment: [e a0]
     X:    -0.0008      Y:    -0.0001      Z:     0.0005     Total:     0.0009

  Dipole Moment: [D]
     X:    -0.0020      Y:    -0.0002      Z:     0.0013     Total:     0.0024


*** tstop() called on compute495.bc4.acrc.priv at Tue Nov  2 16:10:18 2021
Module time:
	user time   =     148.17 seconds =       2.47 minutes
	system time =       3.76 seconds =       0.06 minutes
	total time  =         17 seconds =       0.28 minutes
Total time:
	user time   =     148.17 seconds =       2.47 minutes
	system time =       3.76 seconds =       0.06 minutes
	total time  =         17 seconds =       0.28 minutes

    Psi4 stopped on: Tuesday, 02 November 2021 04:10PM
    Psi4 wall time for execution: 0:00:16.54

*** Psi4 exiting successfully. Buy a developer a beer!
