Failed to converge: 
Failed to converge: 
Failed to converge: 
Failed to converge: 
Failed to converge: 
Failed to converge: 
Failed to converge: 
Failed to converge: 
Failed to converge: 
Failed to converge: 
Failed to converge: 
Failed to converge: 
Failed to converge: 
Failed to converge: 
Failed to converge: 
Failed to converge: 
Failed to converge: 
Failed to converge: 
Failed to converge: 
Failed to converge: 
Failed to converge: 
Failed to converge: 
Failed to converge: 
Failed to converge: 
Failed to converge: 
Failed to converge: 
 III, K. Patkowski, R. A. King, E. F. Valeev,
    F. A. Evangelista, J. M. Turney, T. D. Crawford, and C. D. Sherrill,
    J. Chem. Theory Comput. 13(7) pp 3185--3197 (2017).
    (doi: 10.1021/acs.jctc.7b00174)


                         Additional Contributions by
    P. Kraus, H. Kruse, M. H. Lechner, M. C. Schieber, R. A. Shaw,
    A. Alenaizan, R. Galvelis, Z. L. Glick, S. Lehtola, and J. P. Misiewicz

    -----------------------------------------------------------------------


    Psi4 started on: Thursday, 28 October 2021 03:24PM

    Process ID: 119624
    Host:       bp1-compute00157.data.bp.acrc.priv
    PSIDATADIR: /work/zw18965/.conda/envs/p4env/share/psi4
    Memory:     500.0 MiB
    Threads:    24
    
  ==> Input File <==

--------------------------------------------------------------------------
memory 144 GB

molecule {
0 1
Au       0.000000    0.000000    0.019034 
H        0.000000    0.000000   -1.503691 
 }

set basis Def2-TZVPPD

energy("GAM")
--------------------------------------------------------------------------

  Memory set to 134.110 GiB by Python driver.

*** tstart() called on bp1-compute00157.data.bp.acrc.priv
*** at Thu Oct 28 15:24:36 2021

   => Loading Basis Set <=

    Name: DEF2-TZVPPD
    Role: ORBITAL
    Keyword: BASIS
    atoms 1 entry AU         line  2995 (ECP: line  4084) file /work/zw18965/.conda/envs/p4env/share/psi4/basis/def2-tzvppd.gbs 
    atoms 2 entry H          line    14 file /work/zw18965/.conda/envs/p4env/share/psi4/basis/def2-tzvppd.gbs 

    !!!  WARNING: ECP capability is in beta. Please check occupations closely.  !!!


         ---------------------------------------------------------
                                   SCF
               by Justin Turney, Rob Parrish, Andy Simmonett
                          and Daniel G. A. Smith
                              RKS Reference
                       24 Threads, 137329 MiB Core
         ---------------------------------------------------------

  ==> Geometry <==

    Molecular point group: c2v
    Full point group: C_inf_v

    Geometry (in Angstrom), charge = 0, multiplicity = 1:

       Center              X                  Y                   Z               Mass       
    ------------   -----------------  -----------------  -----------------  -----------------
         AU           0.000000000000     0.000000000000     0.007751711434   196.966568790000
         H            0.000000000000     0.000000000000    -1.514973288566     1.007825032230

  Running in c2v symmetry.

  Rotational constants: A = ************  B =      7.25078  C =      7.25078 [cm^-1]
  Rotational constants: A = ************  B = 217373.00272  C = 217373.00272 [MHz]
  Nuclear repulsion =    6.602877737431250

  Charge       = 0
  Multiplicity = 1
  Electrons    = 20
  Nalpha       = 10
  Nbeta        = 10

  ==> Algorithm <==

  SCF Algorithm Type is DF.
  DIIS enabled.
  MOM disabled.
  Fractional occupation disabled.
  Guess Type is SAD.
  Energy threshold   = 1.00e-06
  Density threshold  = 1.00e-06
  Integral threshold = 0.00e+00

  ==> Primary Basis <==

  Basis Set: DEF2-TZVPPD
    Blend: DEF2-TZVPPD
    Number of shells: 24
    Number of basis function: 76
    Number of Cartesian functions: 92
    Spherical Harmonics?: true
    Max angular momentum: 4

  Core potential: DEF2-TZVPPD
    Number of shells: 4
    Number of ECP primitives: 14
    Number of ECP core electrons: 60
    Max angular momentum: 3

  ==> DFT Potential <==

   => Composite Functional: GAM <= 

   GAM GGA Minessota Exchange-Correlation Functional

    H.S. Yu, et al., Phys. Chem. Chem. Phys. 17, 12146, 2015


    Deriv               =              1
    GGA                 =           TRUE
    Meta                =          FALSE

    Exchange Hybrid     =          FALSE
    MP2 Hybrid          =          FALSE

   => Exchange Functionals <=

    1.0000     XC_GGA_X_GAM

   => Correlation Functionals <=

    1.0000     XC_GGA_C_GAM

   => Molecular Quadrature <=

    Radial Scheme          =       TREUTLER
    Pruning Scheme         =           FLAT
    Nuclear Scheme         =       TREUTLER

    BS radius alpha        =              1
    Pruning alpha          =              1
    Radial Points          =             75
    Spherical Points       =            302
    Total Points           =          44757
    Total Blocks           =            420
    Max Points             =            256
    Max Functions          =             76

   => Loading Basis Set <=

    Name: (DEF2-TZVPPD AUX)
    Role: JKFIT
    Keyword: DF_BASIS_SCF
    atoms 1 entry AU         line  6149 file /work/zw18965/.conda/envs/p4env/share/psi4/basis/def2-tzvpp-jkfit.gbs 
    atoms 2 entry H          line    23 file /work/zw18965/.conda/envs/p4env/share/psi4/basis/def2-tzvpp-jkfit.gbs 

  ==> Pre-Iterations <==

   -------------------------------------------------------
    Irrep   Nso     Nmo     Nalpha   Nbeta   Ndocc  Nsocc
   -------------------------------------------------------
     A1        32      32       0       0       0       0
     A2         8       8       0       0       0       0
     B1        18      18       0       0       0       0
     B2        18      18       0       0       0       0
   -------------------------------------------------------
    Total      76      76      10      10      10       0
   -------------------------------------------------------

  ==> Integral Setup <==

  DFHelper Memory: AOs need 0.015 GiB; user supplied 100.492 GiB. Using in-core AOs.

  ==> MemDFJK: Density-Fitted J/K Matrices <==

    J tasked:                   Yes
    K tasked:                    No
    wK tasked:                   No
    OpenMP threads:              24
    Memory [MiB]:            102904
    Algorithm:                 Core
    Schwarz Cutoff:           1E-12
    Mask sparsity (%):       0.0000
    Fitting Condition:        1E-10

   => Auxiliary Basis Set <=

  Basis Set: (DEF2-TZVPPD AUX)
    Blend: DEF2-TZVPP-JKFIT
    Number of shells: 57
    Number of basis function: 265
    Number of Cartesian functions: 385
    Spherical Harmonics?: true
    Max angular momentum: 6

  Cached 100.0% of DFT collocation blocks in 0.091 [GiB].

  Minimum eigenvalue in the overlap matrix is 2.3708957648E-03.
  Using Symmetric Orthogonalization.

  SCF Guess: Superposition of Atomic Densities via on-the-fly atomic UHF.

  ==> Iterations <==

                           Total Energy        Delta E     RMS |[F,P]|

   @DF-RKS iter SAD:  -136.52237857020145   -1.36522e+02   0.00000e+00 
   @DF-RKS iter   1:  -136.76350771818824   -2.41129e-01   9.17859e-03 DIIS
   @DF-RKS iter   2:  -136.58019306768929    1.83315e-01   1.87223e-02 DIIS
   @DF-RKS iter   3:  -136.82641727365828   -2.46224e-01   1.39316e-03 DIIS
   @DF-RKS iter   4:  -136.82685654780261   -4.39274e-04   1.16211e-03 DIIS
   @DF-RKS iter   5:  -136.82782196035117   -9.65413e-04   8.84829e-05 DIIS
   @DF-RKS iter   6:  -136.82782732255896   -5.36221e-06   4.00704e-05 DIIS
   @DF-RKS iter   7:  -136.82782918550242   -1.86294e-06   3.28614e-06 DIIS
   @DF-RKS iter   8:  -136.82782919287337   -7.37094e-09   1.94774e-07 DIIS
  Energy and wave function converged.


  ==> Post-Iterations <==

    Orbital Energies [Eh]
    ---------------------

    Doubly Occupied:                                                      

       1A1    -4.024537     2A1    -2.254216     1B1    -2.231747  
       1B2    -2.231747     3A1    -0.388710     2B1    -0.284840  
       2B2    -0.284840     1A2    -0.265194     4A1    -0.265192  
       5A1    -0.230630  

    Virtual:                                                              

       6A1    -0.111917     3B1    -0.022438     3B2    -0.022438  
       7A1     0.072107     8A1     0.090647     4B1     0.163221  
       4B2     0.163221     9A1     0.167581     5B1     0.194805  
       5B2     0.194805     2A2     0.274513    10A1     0.274513  
      11A1     0.353396     6B1     0.371104     6B2     0.371104  
      12A1     0.404781    13A1     0.432630     7B1     0.767754  
       7B2     0.767754    14A1     0.935738     8B1     1.018033  
       8B2     1.018033     3A2     1.070538    15A1     1.070538  
       9B1     1.089078     9B2     1.089078    16A1     1.154151  
      10B1     1.252338    10B2     1.252338    17A1     1.380363  
       4A2     1.420823    18A1     1.420824    11B1     1.544359  
      11B2     1.544359    19A1     1.906543    20A1     2.199118  
      21A1     2.481430    22A1     3.073691     5A2     3.073702  
      12B1     3.227343    12B2     3.227343    23A1     3.425329  
      13B2     3.441269    13B1     3.441269     6A2     3.500206  
      24A1     3.500214    14B1     3.528225    14B2     3.528225  
      25A1     3.720512    15B2     3.779012    15B1     3.779012  
      16B1     3.997653    16B2     3.997653    26A1     4.007965  
       7A2     4.007966     8A2     4.062214    27A1     4.062215  
      28A1     4.440415    17B1     4.679178    17B2     4.679178  
      29A1     5.416851    18B1    27.350227    18B2    27.350227  
      30A1    29.802973    31A1    44.355122    32A1   205.172259  

    Final Occupation by Irrep:
             A1    A2    B1    B2 
    DOCC [     5,    1,    2,    2 ]

  @DF-RKS Final Energy:  -136.82782919287337

   => Energetics <=

    Nuclear Repulsion Energy =              6.6028777374312497
    One-Electron Energy =                -252.4930646908782421
    Two-Electron Energy =                 122.7941305553030844
    DFT Exchange-Correlation Energy =     -13.7317727947294514
    Empirical Dispersion Energy =           0.0000000000000000
    VV10 Nonlocal Energy =                  0.0000000000000000
    Total Energy =                       -136.8278291928733665

Computation Completed


Properties will be evaluated at   0.000000,   0.000000,   0.000000 [a0]

Properties computed using the SCF density matrix

  Nuclear Dipole Moment: [e a0]
     X:     0.0000      Y:     0.0000      Z:    -2.5846

  Electronic Dipole Moment: [e a0]
     X:     0.0000      Y:     0.0000      Z:     3.0885

  Dipole Moment: [e a0]
     X:     0.0000      Y:     0.0000      Z:     0.5039     Total:     0.5039

  Dipole Moment: [D]
     X:     0.0000      Y:     0.0000      Z:     1.2808     Total:     1.2808


*** tstop() called on bp1-compute00157.data.bp.acrc.priv at Thu Oct 28 15:24:40 2021
Module time:
	user time   =      47.05 seconds =       0.78 minutes
	system time =       2.62 seconds =       0.04 minutes
	total time  =          4 seconds =       0.07 minutes
Total time:
	user time   =      47.05 seconds =       0.78 minutes
	system time =       2.62 seconds =       0.04 minutes
	total time  =          4 seconds =       0.07 minutes

    Psi4 stopped on: Thursday, 28 October 2021 03:24PM
    Psi4 wall time for execution: 0:00:03.77

*** Psi4 exiting successfully. Buy a developer a beer!
