
    -----------------------------------------------------------------------
          Psi4: An Open-Source Ab Initio Electronic Structure Package
                               Psi4 1.4.1 release

                         Git: Rev {HEAD} cd00f19 


    D. G. A. Smith, L. A. Burns, A. C. Simmonett, R. M. Parrish,
    M. C. Schieber, R. Galvelis, P. Kraus, H. Kruse, R. Di Remigio,
    A. Alenaizan, A. M. James, S. Lehtola, J. P. Misiewicz, M. Scheurer,
    R. A. Shaw, J. B. Schriber, Y. Xie, Z. L. Glick, D. A. Sirianni,
    J. S. O'Brien, J. M. Waldrop, A. Kumar, E. G. Hohenstein,
    B. P. Pritchard, B. R. Brooks, H. F. Schaefer III, A. Yu. Sokolov,
    K. Patkowski, A. E. DePrince III, U. Bozkaya, R. A. King,
    F. A. Evangelista, J. M. Turney, T. D. Crawford, C. D. Sherrill,
    J. Chem. Phys. 152(18) 184108 (2020). https://doi.org/10.1063/5.0006002

                            Additional Code Authors
    E. T. Seidl, C. L. Janssen, E. F. Valeev, M. L. Leininger,
    J. F. Gonthier, R. M. Richard, H. R. McAlexander, M. Saitow, X. Wang,
    P. Verma, and M. H. Lechner

             Previous Authors, Complete List of Code Contributors,
                       and Citations for Specific Modules
    https://github.com/psi4/psi4/blob/master/codemeta.json
    https://github.com/psi4/psi4/graphs/contributors
    http://psicode.org/psi4manual/master/introduction.html#citing-psifour

    -----------------------------------------------------------------------


    Psi4 started on: Friday, 05 November 2021 04:03AM

    Process ID: 23904
    Host:       compute087.bc4.acrc.priv
    PSIDATADIR: /mnt/storage/home/zw18965/.conda/envs/p4env/share/psi4
    Memory:     500.0 MiB
    Threads:    28
    
  ==> Input File <==

--------------------------------------------------------------------------
memory 120 GB

molecule {
2 2
Au       0.000000    0.000000    1.750714 
Au      -0.000000    1.549973   -0.597614 
Au       1.342316   -0.774986   -0.597614 
Au      -1.342316   -0.774986   -0.597614 
H        0.000000    0.000000    3.328141 
 }

set reference uks
set basis Def2-TZVPPD

energy("GAM")
--------------------------------------------------------------------------

  Memory set to 111.759 GiB by Python driver.

Scratch directory: /tmp/

*** tstart() called on compute087.bc4.acrc.priv
*** at Fri Nov  5 04:03:22 2021

   => Loading Basis Set <=

    Name: DEF2-TZVPPD
    Role: ORBITAL
    Keyword: BASIS
    atoms 1-4 entry AU         line  2995 (ECP: line  4084) file /mnt/storage/home/zw18965/.conda/envs/p4env/share/psi4/basis/def2-tzvppd.gbs 
    atoms 5   entry H          line    14 file /mnt/storage/home/zw18965/.conda/envs/p4env/share/psi4/basis/def2-tzvppd.gbs 

    !!!  WARNING: ECP capability is in beta. Please check occupations closely.  !!!


         ---------------------------------------------------------
                                   SCF
               by Justin Turney, Rob Parrish, Andy Simmonett
                          and Daniel G. A. Smith
                              UKS Reference
                       28 Threads, 114440 MiB Core
         ---------------------------------------------------------

  ==> Geometry <==

    Molecular point group: cs
    Full point group: Cs

    Geometry (in Angstrom), charge = 2, multiplicity = 2:

       Center              X                  Y                   Z               Mass       
    ------------   -----------------  -----------------  -----------------  -----------------
         AU           0.000000249681    -1.756980682856     0.000000000000   196.966568790000
         AU          -1.549972750319     0.591347317144     0.000000000000   196.966568790000
         AU           0.774986249681     0.591347317144     1.342316000000   196.966568790000
         AU           0.774986249681     0.591347317144    -1.342316000000   196.966568790000
         H            0.000000249681    -3.334407682856     0.000000000000     1.007825032230

  Running in cs symmetry.

  Rotational constants: A =      0.01188  B =      0.01098  C =      0.01098 [cm^-1]
  Rotational constants: A =    356.00431  B =    329.09493  C =    329.09487 [MHz]
  Nuclear repulsion =  430.674023410953794

  Charge       = 2
  Multiplicity = 2
  Electrons    = 75
  Nalpha       = 38
  Nbeta        = 37

  ==> Algorithm <==

  SCF Algorithm Type is DF.
  DIIS enabled.
  MOM disabled.
  Fractional occupation disabled.
  Guess Type is SAD.
  Energy threshold   = 1.00e-06
  Density threshold  = 1.00e-06
  Integral threshold = 1.00e-12

  ==> Primary Basis <==

  Basis Set: DEF2-TZVPPD
    Blend: DEF2-TZVPPD
    Number of shells: 75
    Number of basis functions: 253
    Number of Cartesian functions: 314
    Spherical Harmonics?: true
    Max angular momentum: 4

  Core potential: DEF2-TZVPPD
    Number of shells: 16
    Number of ECP primitives: 56
    Number of ECP core electrons: 240
    Max angular momentum: 3

  ==> DFT Potential <==

   => Composite Functional: GAM <= 

   GAM GGA Minessota Exchange-Correlation Functional

    H.S. Yu, et al., Phys. Chem. Chem. Phys. 17, 12146, 2015


    Deriv               =              1
    GGA                 =           TRUE
    Meta                =          FALSE

    Exchange Hybrid     =          FALSE
    MP2 Hybrid          =          FALSE

   => Exchange Functionals <=

    1.0000     XC_GGA_X_GAM

   => Correlation Functionals <=

    1.0000     XC_GGA_C_GAM

   => LibXC Density Thresholds  <==

    XC_GGA_C_GAM:  1.00E-14 
    XC_GGA_X_GAM:  1.00E-14 

   => Molecular Quadrature <=

    Radial Scheme          =       TREUTLER
    Pruning Scheme         =           NONE
    Nuclear Scheme         =       TREUTLER

    BS radius alpha        =              1
    Pruning alpha          =              1
    Radial Points          =             75
    Spherical Points       =            302
    Total Points           =         107351
    Total Blocks           =            921
    Max Points             =            255
    Max Functions          =            247
    Weights Tolerance      =       1.00E-15

   => Loading Basis Set <=

    Name: (DEF2-TZVPPD AUX)
    Role: JKFIT
    Keyword: DF_BASIS_SCF
    atoms 1-4 entry AU         line  8426 file /mnt/storage/home/zw18965/.conda/envs/p4env/share/psi4/basis/def2-universal-jkfit.gbs 
    atoms 5   entry H          line    18 file /mnt/storage/home/zw18965/.conda/envs/p4env/share/psi4/basis/def2-universal-jkfit.gbs 

  ==> Integral Setup <==

  DFHelper Memory: AOs need 0.507 GiB; user supplied 83.267 GiB. Using in-core AOs.

  ==> MemDFJK: Density-Fitted J/K Matrices <==

    J tasked:                   Yes
    K tasked:                    No
    wK tasked:                   No
    OpenMP threads:              28
    Memory [MiB]:             85265
    Algorithm:                 Core
    Schwarz Cutoff:           1E-12
    Mask sparsity (%):       2.5371
    Fitting Condition:        1E-10

   => Auxiliary Basis Set <=

  Basis Set: (DEF2-TZVPPD AUX)
    Blend: DEF2-UNIVERSAL-JKFIT
    Number of shells: 210
    Number of basis functions: 1006
    Number of Cartesian functions: 1480
    Spherical Harmonics?: true
    Max angular momentum: 6

  Cached 100.0% of DFT collocation blocks in 0.552 [GiB].

  Minimum eigenvalue in the overlap matrix is 8.3178954460E-04.
  Reciprocal condition number of the overlap matrix is 1.2671988456E-04.
    Using symmetric orthogonalization.

  ==> Pre-Iterations <==

  SCF Guess: Superposition of Atomic Densities via on-the-fly atomic UHF (no occupation information).

   -------------------------
    Irrep   Nso     Nmo    
   -------------------------
     A'       147     147 
     A"       106     106 
   -------------------------
    Total     253     253
   -------------------------

  ==> Iterations <==

                           Total Energy        Delta E     RMS |[F,P]|

   @DF-UKS iter SAD:  -544.91702537817400   -5.44917e+02   0.00000e+00 
    Occupation by irrep:
             Ap   App 
    DOCC [    23,   14 ]
    SOCC [     0,    1 ]

   @DF-UKS iter   1:  -544.80677006922815    1.10255e-01   3.10578e-03 DIIS
    Occupation by irrep:
             Ap   App 
    DOCC [    22,   15 ]
    SOCC [     1,    0 ]

   @DF-UKS iter   2:  -544.31324505339512    4.93525e-01   6.58860e-03 DIIS
   @DF-UKS iter   3:  -544.74270909947768   -4.29464e-01   2.91245e-03 DIIS
   @DF-UKS iter   4:  -544.89831653303349   -1.55607e-01   6.91223e-04 DIIS
   @DF-UKS iter   5:  -544.90415104285012   -5.83451e-03   4.67763e-04 DIIS
   @DF-UKS iter   6:  -544.90732242884815   -3.17139e-03   9.02038e-05 DIIS
   @DF-UKS iter   7:  -544.90731684153980    5.58731e-06   8.93522e-05 DIIS
   @DF-UKS iter   8:  -544.90742129782006   -1.04456e-04   3.68594e-05 DIIS
   @DF-UKS iter   9:  -544.90744214889787   -2.08511e-05   1.04634e-05 DIIS
   @DF-UKS iter  10:  -544.90744391657654   -1.76768e-06   3.22909e-06 DIIS
   @DF-UKS iter  11:  -544.90744406683598   -1.50259e-07   1.65428e-06 DIIS
   @DF-UKS iter  12:  -544.90744409741410   -3.05781e-08   5.92737e-07 DIIS
  Energy and wave function converged.


  ==> Post-Iterations <==

   Electrons on quadrature grid:
      Nalpha   =   37.9999924403 ; deviation = -7.560e-06
      Nbeta    =   36.9999925520 ; deviation = -7.448e-06
      Ntotal   =   74.9999849923 ; deviation = -1.501e-05 

   @Spin Contamination Metric:   3.764173257E-03
   @S^2 Expected:                7.500000000E-01
   @S^2 Observed:                7.537641733E-01
   @S   Expected:                5.000000000E-01
   @S   Observed:                5.000000000E-01

    Orbital Energies [Eh]
    ---------------------

    Alpha Occupied:                                                       

       1Ap    -4.428574     2Ap    -4.398769     3Ap    -4.398445  
       1App   -4.398444     4Ap    -2.659637     5Ap    -2.637722  
       2App   -2.637717     6Ap    -2.625125     3App   -2.620355  
       7Ap    -2.620352     4App   -2.614690     8Ap    -2.614682  
       9Ap    -2.614525     5App   -2.613463    10Ap    -2.613462  
       6App   -2.612700    11Ap    -0.795243    12Ap    -0.729421  
      13Ap    -0.712773     7App   -0.712742    14Ap    -0.696817  
       8App   -0.695953    15Ap    -0.695952     9App   -0.677488  
      16Ap    -0.677483    17Ap    -0.671927    18Ap    -0.659133  
      10App   -0.652753    19Ap    -0.652748    11App   -0.638642  
      20Ap    -0.638639    12App   -0.637120    13App   -0.636982  
      21Ap    -0.636972    14App   -0.626880    22Ap    -0.626879  
      15App   -0.613332    23Ap    -0.598659  

    Alpha Virtual:                                                        

      16App   -0.507797    24Ap    -0.507792    25Ap    -0.443295  
      26Ap    -0.357224    27Ap    -0.357019    17App   -0.357001  
      28Ap    -0.335745    18App   -0.335744    29Ap    -0.255827  
      19App   -0.212542    30Ap    -0.212540    20App   -0.196670  
      21App   -0.190515    31Ap    -0.190500    32Ap    -0.184120  
      33Ap    -0.139900    34Ap    -0.121166    35Ap    -0.108292  
      36Ap    -0.102578    22App   -0.102565    23App   -0.098339  
      37Ap    -0.098338    38Ap    -0.081202    24App   -0.081187  
      39Ap    -0.067481    25App   -0.056781    40Ap    -0.056780  
      41Ap    -0.033594    26App   -0.032430    42Ap    -0.032415  
      27App   -0.016473    43Ap    -0.016449    28App   -0.013726  
      44Ap     0.020154    29App    0.020155    45Ap     0.027912  
      46Ap     0.044505    30App    0.044505    31App    0.057871  
      32App    0.087144    47Ap     0.087144    48Ap     0.095623  
      49Ap     0.122997    50Ap     0.144625    33App    0.144640  
      51Ap     0.145654    52Ap     0.183098    34App    0.183133  
      53Ap     0.194007    35App    0.214273    54Ap     0.214295  
      36App    0.220088    55Ap     0.220114    37App    0.220312  
      56Ap     0.266816    57Ap     0.464069    38App    0.464088  
      58Ap     0.473868    39App    0.527873    59Ap     0.527879  
      60Ap     0.556898    40App    0.576904    61Ap     0.576905  
      62Ap     0.618770    41App    0.627410    63Ap     0.627431  
      64Ap     0.639489    42App    0.656388    43App    0.669558  
      65Ap     0.669570    66Ap     0.701032    67Ap     0.715445  
      44App    0.715447    45App    0.735695    68Ap     0.735703  
      69Ap     0.749156    46App    0.768768    47App    0.788838  
      70Ap     0.788859    48App    0.789561    49App    0.828975  
      71Ap     0.828991    72Ap     0.829735    73Ap     0.870746  
      50App    0.870759    51App    0.890745    74Ap     0.901296  
      52App    0.901343    75Ap     0.937520    53App    0.952825  
      76Ap     0.952844    54App    0.981260    77Ap     0.981311  
      78Ap     1.020483    79Ap     1.028972    55App    1.028985  
      56App    1.030878    80Ap     1.051862    81Ap     1.064929  
      57App    1.064946    58App    1.096464    82Ap     1.096472  
      83Ap     1.106661    84Ap     1.117543    59App    1.117568  
      60App    1.136525    85Ap     1.173296    61App    1.176235  
      86Ap     1.176258    87Ap     1.214351    62App    1.214354  
      88Ap     1.264032    63App    1.334395    89Ap     1.334507  
      90Ap     1.463012    64App    1.463018    65App    1.548677  
      91Ap     1.568549    92Ap     1.797775    93Ap     2.177038  
      66App    2.268357    94Ap     2.268443    95Ap     2.368178  
      96Ap     2.708214    67App    2.708347    97Ap     2.832999  
      68App    2.833290    98Ap     2.916413    99Ap     2.943966  
     100Ap     2.947049    69App    2.947064    70App    3.028016  
      71App    3.035196   101Ap     3.035209   102Ap     3.039741  
     103Ap     3.080157    72App    3.080183   104Ap     3.080249  
      73App    3.096526   105Ap     3.096581    74App    3.126644  
     106Ap     3.130593    75App    3.246694   107Ap     3.253606  
      76App    3.253746   108Ap     3.264292    77App    3.264421  
      78App    3.268801   109Ap     3.269258   110Ap     3.293446  
     111Ap     3.381621    79App    3.381793   112Ap     3.382197  
     113Ap     3.426165    80App    3.426183    81App    3.458944  
     114Ap     3.518408    82App    3.518618   115Ap     3.597008  
      83App    3.597026    84App    3.599904   116Ap     3.602748  
     117Ap     3.605258    85App    3.605584   118Ap     3.607370  
      86App    3.608153   119Ap     3.608514   120Ap     3.611188  
     121Ap     3.614742    87App    3.614764    88App    3.615184  
      89App    3.615734   122Ap     3.615854   123Ap     3.616636  
      90App    3.619737   124Ap     3.620100    91App    3.620626  
     125Ap     3.620954    92App    3.632418   126Ap     3.632543  
      93App    3.638805   127Ap     3.646824    94App    3.646868  
      95App    3.649718   128Ap     3.649723   129Ap     3.674385  
      96App    3.687663   130Ap     3.687699    97App    3.781368  
     131Ap     3.781470    98App    3.848045   132Ap     4.028748  
     133Ap     4.191599    99App    4.192200   134Ap     5.093699  
     135Ap    27.074024   100App   27.074118   101App   27.214367  
     136Ap    27.214369   137Ap    27.420069   102App   28.193617  
     138Ap    28.193663   103App   28.389926   139Ap    28.691883  
     104App   29.290888   140Ap    29.290916   141Ap    31.990269  
     142Ap    43.736818   105App   44.229301   143Ap    44.229310  
     144Ap    44.238956   145Ap   204.688250   146Ap   204.894381  
     106App  204.906909   147Ap   204.906913  

    Beta Occupied:                                                        

       1Ap    -4.422843     2Ap    -4.398196     3Ap    -4.397872  
       1App   -4.397871     4Ap    -2.649931     5Ap    -2.633116  
       2App   -2.633113     6Ap    -2.624351     3App   -2.619633  
       7Ap    -2.619630     4App   -2.614310     8Ap    -2.614301  
       9Ap    -2.613611    10Ap    -2.612628     5App   -2.612627  
       6App   -2.612430    11Ap    -0.781623    12Ap    -0.723021  
      13Ap    -0.709687     7App   -0.709660    14Ap    -0.693478  
       8App   -0.693477    15Ap    -0.688601    16Ap    -0.670234  
       9App   -0.670096    17Ap    -0.670093    18Ap    -0.653333  
      10App   -0.647034    19Ap    -0.647027    11App   -0.638122  
      20Ap    -0.638122    12App   -0.635873    13App   -0.635819  
      21Ap    -0.635809    22Ap    -0.623208    14App   -0.623207  
      15App   -0.613265  

    Beta Virtual:                                                         

      23Ap    -0.573792    16App   -0.506780    24Ap    -0.506776  
      25Ap    -0.433921    26Ap    -0.356406    27Ap    -0.355248  
      17App   -0.355234    18App   -0.335148    28Ap    -0.335147  
      29Ap    -0.248610    19App   -0.217448    30Ap    -0.217447  
      20App   -0.196754    21App   -0.189945    31Ap    -0.189936  
      32Ap    -0.186961    33Ap    -0.132610    34Ap    -0.118741  
      35Ap    -0.106019    36Ap    -0.101226    22App   -0.101205  
      23App   -0.099756    37Ap    -0.099755    38Ap    -0.087072  
      24App   -0.087065    39Ap    -0.064309    25App   -0.064302  
      40Ap    -0.062335    41Ap    -0.032177    26App   -0.018824  
      42Ap    -0.018791    27App   -0.014385    43Ap    -0.014385  
      28App   -0.012509    44Ap     0.019059    29App    0.019061  
      45Ap     0.033159    46Ap     0.036858    30App    0.036867  
      31App    0.055817    32App    0.085805    47Ap     0.085811  
      48Ap     0.101547    49Ap     0.133375    50Ap     0.144432  
      33App    0.144452    51Ap     0.184232    34App    0.184255  
      52Ap     0.184662    53Ap     0.205941    35App    0.214523  
      54Ap     0.214551    36App    0.221407    37App    0.238995  
      55Ap     0.239001    56Ap     0.280300    57Ap     0.474971  
      38App    0.474987    58Ap     0.475643    39App    0.532045  
      59Ap     0.532052    60Ap     0.561420    40App    0.579854  
      61Ap     0.579863    62Ap     0.624912    41App    0.635098  
      63Ap     0.635110    64Ap     0.651874    42App    0.668040  
      43App    0.671333    65Ap     0.671348    66Ap     0.713700  
      44App    0.719548    67Ap     0.719557    45App    0.739275  
      68Ap     0.739286    69Ap     0.770019    46App    0.777004  
      47App    0.789961    70Ap     0.789983    48App    0.790650  
      49App    0.835548    71Ap     0.835562    72Ap     0.842183  
      73Ap     0.873113    50App    0.873130    51App    0.893535  
      74Ap     0.908795    52App    0.908832    75Ap     0.942506  
      53App    0.954310    76Ap     0.954323    54App    0.983576  
      77Ap     0.983635    78Ap     1.028570    55App    1.031175  
      79Ap     1.031624    56App    1.031629    80Ap     1.052934  
      57App    1.067578    81Ap     1.067584    58App    1.097112  
      82Ap     1.097132    83Ap     1.116424    84Ap     1.117218  
      59App    1.117218    60App    1.136878    61App    1.176703  
      85Ap     1.176725    86Ap     1.183078    62App    1.226215  
      87Ap     1.226215    88Ap     1.267778    63App    1.336703  
      89Ap     1.336795    90Ap     1.465633    64App    1.465649  
      65App    1.549213    91Ap     1.584691    92Ap     1.804052  
      93Ap     2.202270    66App    2.270035    94Ap     2.270107  
      95Ap     2.403475    96Ap     2.763420    67App    2.763481  
      97Ap     2.879651    68App    2.879960    98Ap     2.917998  
      99Ap     2.950782    69App    2.952586   100Ap     2.952587  
      70App    3.035746    71App    3.037791   101Ap     3.037801  
     102Ap     3.050128   103Ap     3.083848    72App    3.084424  
     104Ap     3.084483    73App    3.097615   105Ap     3.097676  
      74App    3.129948   106Ap     3.146203    75App    3.248204  
     107Ap     3.258737    76App    3.258856   108Ap     3.268011  
      77App    3.268051    78App    3.271981   109Ap     3.272340  
     110Ap     3.298952   111Ap     3.383633    79App    3.383808  
     112Ap     3.392935    80App    3.459717   113Ap     3.471565  
      81App    3.471637   114Ap     3.537868    82App    3.538018  
      83App    3.606034   115Ap     3.606094    84App    3.606421  
     116Ap     3.606913   117Ap     3.608166    85App    3.608867  
     118Ap     3.609226   119Ap     3.613275   120Ap     3.613532  
      86App    3.613620   121Ap     3.616361    87App    3.616437  
      88App    3.616684    89App    3.616873   122Ap     3.616913  
     123Ap     3.617729    90App    3.620456   124Ap     3.622408  
      91App    3.622871   125Ap     3.623573    92App    3.636522  
     126Ap     3.636708    93App    3.639946    94App    3.649789  
     127Ap     3.649792   128Ap     3.651079    95App    3.651174  
     129Ap     3.677323    96App    3.693044   130Ap     3.693085  
      97App    3.782364   131Ap     3.782462    98App    3.848284  
     132Ap     4.074611   133Ap     4.222878    99App    4.223454  
     134Ap     5.119617   135Ap    27.074754   100App   27.074849  
     101App   27.217759   136Ap    27.217767   137Ap    27.421277  
     102App   28.195650   138Ap    28.195698   103App   28.389817  
     139Ap    28.692100   104App   29.290868   140Ap    29.290881  
     141Ap    31.992728   142Ap    43.736362   105App   44.229087  
     143Ap    44.229095   144Ap    44.237002   145Ap   204.690722  
     146Ap   204.901969   106App  204.907813   147Ap   204.907814  

    Final Occupation by Irrep:
             Ap   App 
    DOCC [    22,   15 ]
    SOCC [     1,    0 ]

  @DF-UKS Final Energy:  -544.90744409741410

   => Energetics <=

    Nuclear Repulsion Energy =            430.6740234109537937
    One-Electron Energy =               -1787.3994609426904390
    Two-Electron Energy =                 865.4434308841879329
    DFT Exchange-Correlation Energy =     -53.6254374498654300
    Empirical Dispersion Energy =           0.0000000000000000
    VV10 Nonlocal Energy =                  0.0000000000000000
    Total Energy =                       -544.9074440974140998

  UHF NO Occupations:
  HONO-2 :   21 Ap 1.9998288
  HONO-1 :   22 Ap 1.9987113
  HONO-0 :   23 Ap 1.0000000
  LUNO+0 :   24 Ap 0.0012887
  LUNO+1 :   25 Ap 0.0001712
  LUNO+2 :   16App 0.0001711
  LUNO+3 :   26 Ap 0.0001058


Computation Completed


Properties will be evaluated at   0.000000,   0.000000,   0.000000 [a0]

Properties computed using the SCF density matrix

  Nuclear Dipole Moment: [e a0]
     X:     0.0000      Y:    -5.6885      Z:    -0.0000

  Electronic Dipole Moment: [e a0]
     X:    -0.0002      Y:     5.5595      Z:     0.0000

  Dipole Moment: [e a0]
     X:    -0.0002      Y:    -0.1290      Z:    -0.0000     Total:     0.1290

  Dipole Moment: [D]
     X:    -0.0006      Y:    -0.3280      Z:    -0.0000     Total:     0.3280


*** tstop() called on compute087.bc4.acrc.priv at Fri Nov  5 04:04:06 2021
Module time:
	user time   =     861.85 seconds =      14.36 minutes
	system time =      41.48 seconds =       0.69 minutes
	total time  =         44 seconds =       0.73 minutes
Total time:
	user time   =     861.85 seconds =      14.36 minutes
	system time =      41.48 seconds =       0.69 minutes
	total time  =         44 seconds =       0.73 minutes

    Psi4 stopped on: Friday, 05 November 2021 04:04AM
    Psi4 wall time for execution: 0:00:43.62

*** Psi4 exiting successfully. Buy a developer a beer!
