
    -----------------------------------------------------------------------
          Psi4: An Open-Source Ab Initio Electronic Structure Package
                               Psi4 1.3.2 release

                         Git: Rev {HEAD} ecbda83 


    R. M. Parrish, L. A. Burns, D. G. A. Smith, A. C. Simmonett,
    A. E. DePrince III, E. G. Hohenstein, U. Bozkaya, A. Yu. Sokolov,
    R. Di Remigio, R. M. Richard, J. F. Gonthier, A. M. James,
    H. R. McAlexander, A. Kumar, M. Saitow, X. Wang, B. P. Pritchard,
    P. Verma, H. F. Schaefer III, K. Patkowski, R. A. King, E. F. Valeev,
    F. A. Evangelista, J. M. Turney, T. D. Crawford, and C. D. Sherrill,
    J. Chem. Theory Comput. 13(7) pp 3185--3197 (2017).
    (doi: 10.1021/acs.jctc.7b00174)


                         Additional Contributions by
    P. Kraus, H. Kruse, M. H. Lechner, M. C. Schieber, R. A. Shaw,
    A. Alenaizan, R. Galvelis, Z. L. Glick, S. Lehtola, and J. P. Misiewicz

    -----------------------------------------------------------------------


    Psi4 started on: Thursday, 28 October 2021 03:25PM

    Process ID: 120314
    Host:       bp1-compute00157.data.bp.acrc.priv
    PSIDATADIR: /work/zw18965/.conda/envs/p4env/share/psi4
    Memory:     500.0 MiB
    Threads:    24
    
  ==> Input File <==

--------------------------------------------------------------------------
memory 144 GB

molecule {
0 1
Cu       0.000000    0.000000    0.412716 
F        0.000000    0.000000   -1.329863 
 }

set basis Def2-TZVPPD

energy("GAM")
--------------------------------------------------------------------------

  Memory set to 134.110 GiB by Python driver.

*** tstart() called on bp1-compute00157.data.bp.acrc.priv
*** at Thu Oct 28 15:25:19 2021

   => Loading Basis Set <=

    Name: DEF2-TZVPPD
    Role: ORBITAL
    Keyword: BASIS
    atoms 1 entry CU         line  1290 file /work/zw18965/.conda/envs/p4env/share/psi4/basis/def2-tzvppd.gbs 
    atoms 2 entry F          line   257 file /work/zw18965/.conda/envs/p4env/share/psi4/basis/def2-tzvppd.gbs 


         ---------------------------------------------------------
                                   SCF
               by Justin Turney, Rob Parrish, Andy Simmonett
                          and Daniel G. A. Smith
                              RKS Reference
                       24 Threads, 137329 MiB Core
         ---------------------------------------------------------

  ==> Geometry <==

    Molecular point group: c2v
    Full point group: C_inf_v

    Geometry (in Angstrom), charge = 0, multiplicity = 1:

       Center              X                  Y                   Z               Mass       
    ------------   -----------------  -----------------  -----------------  -----------------
         CU           0.000000000000     0.000000000000     0.404089176206    62.929597720000
         F            0.000000000000     0.000000000000    -1.338489823794    18.998403162730

  Running in c2v symmetry.

  Rotational constants: A = ************  B =      0.38043  C =      0.38043 [cm^-1]
  Rotational constants: A = ************  B =  11404.92806  C =  11404.92806 [MHz]
  Nuclear repulsion =   79.259105030457718

  Charge       = 0
  Multiplicity = 1
  Electrons    = 38
  Nalpha       = 19
  Nbeta        = 19

  ==> Algorithm <==

  SCF Algorithm Type is DF.
  DIIS enabled.
  MOM disabled.
  Fractional occupation disabled.
  Guess Type is SAD.
  Energy threshold   = 1.00e-06
  Density threshold  = 1.00e-06
  Integral threshold = 0.00e+00

  ==> Primary Basis <==

  Basis Set: DEF2-TZVPPD
    Blend: DEF2-TZVPPD
    Number of shells: 33
    Number of basis function: 107
    Number of Cartesian functions: 129
    Spherical Harmonics?: true
    Max angular momentum: 4

  ==> DFT Potential <==

   => Composite Functional: GAM <= 

   GAM GGA Minessota Exchange-Correlation Functional

    H.S. Yu, et al., Phys. Chem. Chem. Phys. 17, 12146, 2015


    Deriv               =              1
    GGA                 =           TRUE
    Meta                =          FALSE

    Exchange Hybrid     =          FALSE
    MP2 Hybrid          =          FALSE

   => Exchange Functionals <=

    1.0000     XC_GGA_X_GAM

   => Correlation Functionals <=

    1.0000     XC_GGA_C_GAM

   => Molecular Quadrature <=

    Radial Scheme          =       TREUTLER
    Pruning Scheme         =           FLAT
    Nuclear Scheme         =       TREUTLER

    BS radius alpha        =              1
    Pruning alpha          =              1
    Radial Points          =             75
    Spherical Points       =            302
    Total Points           =          45300
    Total Blocks           =            428
    Max Points             =            256
    Max Functions          =            106

   => Loading Basis Set <=

    Name: (DEF2-TZVPPD AUX)
    Role: JKFIT
    Keyword: DF_BASIS_SCF
    atoms 1 entry CU         line  2361 file /work/zw18965/.conda/envs/p4env/share/psi4/basis/def2-tzvpp-jkfit.gbs 
    atoms 2 entry F          line   383 file /work/zw18965/.conda/envs/p4env/share/psi4/basis/def2-tzvpp-jkfit.gbs 

  ==> Pre-Iterations <==

   -------------------------------------------------------
    Irrep   Nso     Nmo     Nalpha   Nbeta   Ndocc  Nsocc
   -------------------------------------------------------
     A1        45      45       0       0       0       0
     A2        12      12       0       0       0       0
     B1        25      25       0       0       0       0
     B2        25      25       0       0       0       0
   -------------------------------------------------------
    Total     107     107      19      19      19       0
   -------------------------------------------------------

  ==> Integral Setup <==

  DFHelper Memory: AOs need 0.035 GiB; user supplied 100.470 GiB. Using in-core AOs.

  ==> MemDFJK: Density-Fitted J/K Matrices <==

    J tasked:                   Yes
    K tasked:                    No
    wK tasked:                   No
    OpenMP threads:              24
    Memory [MiB]:            102880
    Algorithm:                 Core
    Schwarz Cutoff:           1E-12
    Mask sparsity (%):       0.5939
    Fitting Condition:        1E-10

   => Auxiliary Basis Set <=

  Basis Set: (DEF2-TZVPPD AUX)
    Blend: DEF2-TZVPP-JKFIT
    Number of shells: 83
    Number of basis function: 341
    Number of Cartesian functions: 470
    Spherical Harmonics?: true
    Max angular momentum: 6

  Cached 100.0% of DFT collocation blocks in 0.113 [GiB].

  Minimum eigenvalue in the overlap matrix is 2.2043391512E-03.
  Using Symmetric Orthogonalization.

  SCF Guess: Superposition of Atomic Densities via on-the-fly atomic UHF.

  ==> Iterations <==

                           Total Energy        Delta E     RMS |[F,P]|

   @DF-RKS iter SAD: -1738.75868207870826   -1.73876e+03   0.00000e+00 
    Occupation by irrep:
             A1    A2    B1    B2 
    DOCC [    11,    0,    4,    4 ]

   @DF-RKS iter   1: -1737.84230974361935    9.16372e-01   7.84168e-02 DIIS
    Occupation by irrep:
             A1    A2    B1    B2 
    DOCC [    11,    1,    4,    3 ]

   @DF-RKS iter   2: -1697.96699393091262    3.98753e+01   1.63867e-01 DIIS
    Occupation by irrep:
             A1    A2    B1    B2 
    DOCC [    10,    1,    4,    4 ]

   @DF-RKS iter   3: -1737.38162920340756   -3.94146e+01   5.55460e-02 DIIS
   @DF-RKS iter   4: -1739.92329873955873   -2.54167e+00   3.79977e-02 DIIS
   @DF-RKS iter   5: -1741.19210388243528   -1.26881e+00   1.11298e-02 DIIS
   @DF-RKS iter   6: -1741.26083080559829   -6.87269e-02   5.77072e-03 DIIS
   @DF-RKS iter   7: -1741.29933112514345   -3.85003e-02   6.57586e-04 DIIS
   @DF-RKS iter   8: -1741.29965762481379   -3.26500e-04   5.58239e-04 DIIS
   @DF-RKS iter   9: -1741.29994643551004   -2.88811e-04   8.18086e-05 DIIS
   @DF-RKS iter  10: -1741.29995327385654   -6.83835e-06   4.40023e-05 DIIS
   @DF-RKS iter  11: -1741.29995462805346   -1.35420e-06   8.87034e-06 DIIS
   @DF-RKS iter  12: -1741.29995468320658   -5.51531e-08   1.20426e-06 DIIS
   @DF-RKS iter  13: -1741.29995468414336   -9.36780e-10   6.10911e-08 DIIS
  Energy and wave function converged.


  ==> Post-Iterations <==

    Orbital Energies [Eh]
    ---------------------

    Doubly Occupied:                                                      

       1A1  -320.915259     2A1   -38.387011     3A1   -33.785776  
       1B2   -33.784831     1B1   -33.784831     4A1   -24.128115  
       5A1    -4.161899     6A1    -2.701579     2B2    -2.696267  
       2B1    -2.696267     7A1    -0.975826     8A1    -0.340213  
       3B2    -0.295624     3B1    -0.295624     1A2    -0.240634  
       9A1    -0.240630     4B2    -0.219802     4B1    -0.219802  
      10A1    -0.218184  

    Virtual:                                                              

      11A1    -0.141804     5B2    -0.014360     5B1    -0.014360  
      12A1     0.031982    13A1     0.070719     6B2     0.120095  
       6B1     0.120095    14A1     0.134758     7B2     0.152142  
       7B1     0.152142     2A2     0.164735    15A1     0.164735  
      16A1     0.192951     8B2     0.245853     8B1     0.245853  
      17A1     0.263862    18A1     0.355656    19A1     0.535274  
       3A2     0.535275     9B2     0.602254     9B1     0.602254  
      20A1     0.611400    21A1     0.679722    10B2     0.683771  
      10B1     0.683771    11B2     0.760492    11B1     0.760492  
       4A2     0.833208    22A1     0.833210    12B2     1.002042  
      12B1     1.002042    23A1     1.002665    24A1     1.054676  
      25A1     1.280017    26A1     2.223932     5A2     2.248871  
      27A1     2.248873    13B2     2.275833    13B1     2.275833  
      14B2     2.892660    14B1     2.892660    28A1     2.967898  
      29A1     3.083906    30A1     3.293327    15B2     3.295687  
      15B1     3.295687    16B2     3.332410    16B1     3.332410  
      31A1     3.337051     6A2     3.337060    17B2     3.434327  
      17B1     3.434327    32A1     3.532754     7A2     3.532755  
      18B2     3.616250    18B1     3.616250    33A1     3.745417  
      34A1     3.895090    35A1     4.260602     8A2     6.796993  
      36A1     6.797027    19B1     6.810473    19B2     6.810473  
      20B2     6.838462    20B1     6.838462    37A1     6.928394  
      38A1     8.337284     9A2     8.337407    21B2     8.388953  
      21B1     8.388953    39A1     8.617785    40A1    12.722469  
      10A2    12.722474    22B2    12.723441    22B1    12.723441  
      23B1    12.725439    23B2    12.725439    41A1    12.728173  
      11A2    12.728783    42A1    12.732352    24B2    12.858496  
      24B1    12.858496    12A2    12.864059    43A1    12.864259  
      25B2    12.898602    25B1    12.898602    44A1    13.085071  
      45A1    56.882319  

    Final Occupation by Irrep:
             A1    A2    B1    B2 
    DOCC [    10,    1,    4,    4 ]

  @DF-RKS Final Energy: -1741.29995468414336

   => Energetics <=

    Nuclear Repulsion Energy =             79.2591050304577180
    One-Electron Energy =               -2589.1114275263580566
    Two-Electron Energy =                 847.3896208997356325
    DFT Exchange-Correlation Energy =     -78.8372530879785813
    Empirical Dispersion Energy =           0.0000000000000000
    VV10 Nonlocal Energy =                  0.0000000000000000
    Total Energy =                      -1741.2999546841431311

Computation Completed


Properties will be evaluated at   0.000000,   0.000000,   0.000000 [a0]

Properties computed using the SCF density matrix

  Nuclear Dipole Moment: [e a0]
     X:     0.0000      Y:     0.0000      Z:    -0.6195

  Electronic Dipole Moment: [e a0]
     X:     0.0000      Y:     0.0000      Z:     2.4760

  Dipole Moment: [e a0]
     X:     0.0000      Y:     0.0000      Z:     1.8565     Total:     1.8565

  Dipole Moment: [D]
     X:     0.0000      Y:     0.0000      Z:     4.7187     Total:     4.7187


*** tstop() called on bp1-compute00157.data.bp.acrc.priv at Thu Oct 28 15:25:21 2021
Module time:
	user time   =      36.14 seconds =       0.60 minutes
	system time =       1.59 seconds =       0.03 minutes
	total time  =          2 seconds =       0.03 minutes
Total time:
	user time   =      36.14 seconds =       0.60 minutes
	system time =       1.59 seconds =       0.03 minutes
	total time  =          2 seconds =       0.03 minutes

    Psi4 stopped on: Thursday, 28 October 2021 03:25PM
    Psi4 wall time for execution: 0:00:01.80

*** Psi4 exiting successfully. Buy a developer a beer!
