
    -----------------------------------------------------------------------
          Psi4: An Open-Source Ab Initio Electronic Structure Package
                               Psi4 1.3.2 release

                         Git: Rev {HEAD} ecbda83 


    R. M. Parrish, L. A. Burns, D. G. A. Smith, A. C. Simmonett,
    A. E. DePrince III, E. G. Hohenstein, U. Bozkaya, A. Yu. Sokolov,
    R. Di Remigio, R. M. Richard, J. F. Gonthier, A. M. James,
    H. R. McAlexander, A. Kumar, M. Saitow, X. Wang, B. P. Pritchard,
    P. Verma, H. F. Schaefer III, K. Patkowski, R. A. King, E. F. Valeev,
    F. A. Evangelista, J. M. Turney, T. D. Crawford, and C. D. Sherrill,
    J. Chem. Theory Comput. 13(7) pp 3185--3197 (2017).
    (doi: 10.1021/acs.jctc.7b00174)


                         Additional Contributions by
    P. Kraus, H. Kruse, M. H. Lechner, M. C. Schieber, R. A. Shaw,
    A. Alenaizan, R. Galvelis, Z. L. Glick, S. Lehtola, and J. P. Misiewicz

    -----------------------------------------------------------------------


    Psi4 started on: Thursday, 28 October 2021 03:25PM

    Process ID: 79237
    Host:       bp1-compute00162.data.bp.acrc.priv
    PSIDATADIR: /work/zw18965/.conda/envs/p4env/share/psi4
    Memory:     500.0 MiB
    Threads:    24
    
  ==> Input File <==

--------------------------------------------------------------------------
memory 144 GB

molecule {
1 1
Cu       0.000000    1.349261   -0.000000 
Cu       1.168494   -0.674630    0.000000 
Cu      -1.168494   -0.674630   -0.000000 
 }

set basis Def2-TZVPPD

energy("GAM")
--------------------------------------------------------------------------

  Memory set to 134.110 GiB by Python driver.

*** tstart() called on bp1-compute00162.data.bp.acrc.priv
*** at Thu Oct 28 15:25:26 2021

   => Loading Basis Set <=

    Name: DEF2-TZVPPD
    Role: ORBITAL
    Keyword: BASIS
    atoms 1-3 entry CU         line  1290 file /work/zw18965/.conda/envs/p4env/share/psi4/basis/def2-tzvppd.gbs 


         ---------------------------------------------------------
                                   SCF
               by Justin Turney, Rob Parrish, Andy Simmonett
                          and Daniel G. A. Smith
                              RKS Reference
                       24 Threads, 137329 MiB Core
         ---------------------------------------------------------

  ==> Geometry <==

    Molecular point group: c2v
    Full point group: C2v

    Geometry (in Angstrom), charge = 1, multiplicity = 1:

       Center              X                  Y                   Z               Mass       
    ------------   -----------------  -----------------  -----------------  -----------------
         CU           0.000000000000     0.000000000000     1.349260666667    62.929597720000
         CU           1.168494000000     0.000000000000    -0.674630333333    62.929597720000
         CU          -1.168494000000    -0.000000000000    -0.674630333333    62.929597720000

  Running in c2v symmetry.

  Rotational constants: A =      0.09810  B =      0.09810  C =      0.04905 [cm^-1]
  Rotational constants: A =   2940.89335  B =   2940.89328  C =   1470.44666 [MHz]
  Nuclear repulsion =  571.296940641642436

  Charge       = 1
  Multiplicity = 1
  Electrons    = 86
  Nalpha       = 43
  Nbeta        = 43

  ==> Algorithm <==

  SCF Algorithm Type is DF.
  DIIS enabled.
  MOM disabled.
  Fractional occupation disabled.
  Guess Type is SAD.
  Energy threshold   = 1.00e-06
  Density threshold  = 1.00e-06
  Integral threshold = 0.00e+00

  ==> Primary Basis <==

  Basis Set: DEF2-TZVPPD
    Blend: DEF2-TZVPPD
    Number of shells: 57
    Number of basis function: 201
    Number of Cartesian functions: 249
    Spherical Harmonics?: true
    Max angular momentum: 4

  ==> DFT Potential <==

   => Composite Functional: GAM <= 

   GAM GGA Minessota Exchange-Correlation Functional

    H.S. Yu, et al., Phys. Chem. Chem. Phys. 17, 12146, 2015


    Deriv               =              1
    GGA                 =           TRUE
    Meta                =          FALSE

    Exchange Hybrid     =          FALSE
    MP2 Hybrid          =          FALSE

   => Exchange Functionals <=

    1.0000     XC_GGA_X_GAM

   => Correlation Functionals <=

    1.0000     XC_GGA_C_GAM

   => Molecular Quadrature <=

    Radial Scheme          =       TREUTLER
    Pruning Scheme         =           FLAT
    Nuclear Scheme         =       TREUTLER

    BS radius alpha        =              1
    Pruning alpha          =              1
    Radial Points          =             75
    Spherical Points       =            302
    Total Points           =          67950
    Total Blocks           =            596
    Max Points             =            254
    Max Functions          =            191

   => Loading Basis Set <=

    Name: (DEF2-TZVPPD AUX)
    Role: JKFIT
    Keyword: DF_BASIS_SCF
    atoms 1-3 entry CU         line  2361 file /work/zw18965/.conda/envs/p4env/share/psi4/basis/def2-tzvpp-jkfit.gbs 

  ==> Pre-Iterations <==

   -------------------------------------------------------
    Irrep   Nso     Nmo     Nalpha   Nbeta   Ndocc  Nsocc
   -------------------------------------------------------
     A1        70      70       0       0       0       0
     A2        32      32       0       0       0       0
     B1        59      59       0       0       0       0
     B2        40      40       0       0       0       0
   -------------------------------------------------------
    Total     201     201      43      43      43       0
   -------------------------------------------------------

  ==> Integral Setup <==

  DFHelper Memory: AOs need 0.246 GiB; user supplied 100.326 GiB. Using in-core AOs.

  ==> MemDFJK: Density-Fitted J/K Matrices <==

    J tasked:                   Yes
    K tasked:                    No
    wK tasked:                   No
    OpenMP threads:              24
    Memory [MiB]:            102733
    Algorithm:                 Core
    Schwarz Cutoff:           1E-12
    Mask sparsity (%):       6.9305
    Fitting Condition:        1E-10

   => Auxiliary Basis Set <=

  Basis Set: (DEF2-TZVPPD AUX)
    Blend: DEF2-TZVPP-JKFIT
    Number of shells: 174
    Number of basis function: 792
    Number of Cartesian functions: 1131
    Spherical Harmonics?: true
    Max angular momentum: 6

  Cached 100.0% of DFT collocation blocks in 0.257 [GiB].

  Minimum eigenvalue in the overlap matrix is 7.6765794614E-04.
  Using Symmetric Orthogonalization.

  SCF Guess: Superposition of Atomic Densities via on-the-fly atomic UHF.

  ==> Iterations <==

                           Total Energy        Delta E     RMS |[F,P]|

   @DF-RKS iter SAD: -4918.04452819781363   -4.91804e+03   0.00000e+00 
    Occupation by irrep:
             A1    A2    B1    B2 
    DOCC [    18,    4,   13,    8 ]

   @DF-RKS iter   1: -4914.30138900757720    3.74314e+00   7.42320e-02 DIIS
    Occupation by irrep:
             A1    A2    B1    B2 
    DOCC [    18,    5,   13,    7 ]

   @DF-RKS iter   2: -4781.59960354223313    1.32702e+02   1.63929e-01 DIIS
    Occupation by irrep:
             A1    A2    B1    B2 
    DOCC [    19,    5,   12,    7 ]

   @DF-RKS iter   3: -4922.23624848826330   -1.40637e+02   2.54172e-02 DIIS
    Occupation by irrep:
             A1    A2    B1    B2 
    DOCC [    18,    5,   13,    7 ]

   @DF-RKS iter   4: -4916.34461679933611    5.89163e+00   5.51316e-02 DIIS
   @DF-RKS iter   5: -4922.31246181364440   -5.96785e+00   2.79686e-02 DIIS
   @DF-RKS iter   6: -4923.69236298183750   -1.37990e+00   1.46864e-02 DIIS
   @DF-RKS iter   7: -4924.15945633819319   -4.67093e-01   3.38104e-03 DIIS
   @DF-RKS iter   8: -4924.15681516036238    2.64118e-03   2.86612e-03 DIIS
   @DF-RKS iter   9: -4924.17943261525761   -2.26175e-02   7.80222e-04 DIIS
   @DF-RKS iter  10: -4924.18050750048678   -1.07489e-03   2.85754e-04 DIIS
   @DF-RKS iter  11: -4924.18070159543004   -1.94095e-04   1.27935e-04 DIIS
   @DF-RKS iter  12: -4924.18073066252418   -2.90671e-05   3.83415e-05 DIIS
   @DF-RKS iter  13: -4924.18073686031130   -6.19779e-06   6.33471e-06 DIIS
   @DF-RKS iter  14: -4924.18073702925267   -1.68941e-07   3.14311e-07 DIIS
  Energy and wave function converged.


  ==> Post-Iterations <==

    Orbital Energies [Eh]
    ---------------------

    Doubly Occupied:                                                      

       1A1  -321.092262     1B1  -321.092258     2A1  -321.092238  
       3A1   -38.562644     2B1   -38.562640     4A1   -38.562585  
       5A1   -33.961796     3B1   -33.961792     6A1   -33.961792  
       4B1   -33.961734     5B1   -33.961726     7A1   -33.961723  
       1B2   -33.959506     1A2   -33.959503     2B2   -33.959501  
       8A1    -4.335084     9A1    -4.334609     6B1    -4.334603  
      10A1    -2.875779    11A1    -2.873520     7B1    -2.873520  
      12A1    -2.871620     8B1    -2.871615     9B1    -2.871296  
       3B2    -2.867982     4B2    -2.867592     2A2    -2.867585  
      13A1    -0.472261    14A1    -0.443528    10B1    -0.443520  
       5B2    -0.440003    15A1    -0.431378     3A2    -0.423685  
       6B2    -0.423659    16A1    -0.409383    17A1    -0.409206  
      11B1    -0.409200    18A1    -0.405196    12B1    -0.405159  
       4A2    -0.404722     5A2    -0.404171     7B2    -0.404126  
      13B1    -0.395778  

    Virtual:                                                              

      19A1    -0.299491    14B1    -0.299488     8B2    -0.233834  
      20A1    -0.194887    15B1    -0.178625    21A1    -0.178623  
       9B2    -0.126188     6A2    -0.126185    16B1    -0.065063  
      22A1    -0.065063    23A1    -0.057639    17B1    -0.049776  
      10B2    -0.033668    24A1    -0.025723    18B1    -0.007140  
      25A1    -0.007139    26A1     0.008557    11B2     0.017270  
       7A2     0.017272     8A2     0.032525    12B2     0.032531  
      27A1     0.041415    19B1     0.041418    20B1     0.058510  
      13B2     0.060632    21B1     0.065522    28A1     0.065524  
      29A1     0.118366    22B1     0.118368     9A2     0.143207  
      30A1     0.157152    31A1     0.176015    23B1     0.176016  
      14B2     0.178703    10A2     0.178705    24B1     0.273843  
      25B1     0.292333    32A1     0.292350    15B2     0.414583  
      33A1     0.425212    26B1     0.470161    34A1     0.470173  
      16B2     0.517696    11A2     0.517700    35A1     0.551803  
      27B1     0.576383    36A1     0.576387    17B2     0.578341  
      18B2     0.611109    12A2     0.611109    37A1     0.690323  
      28B1     0.702550    29B1     0.709652    38A1     0.709656  
      13A2     0.788496    30B1     0.801801    39A1     0.801815  
      14A2     0.847086    19B2     0.847091    31B1     1.017213  
      40A1     1.017294    32B1     1.036211    20B2     2.669877  
      41A1     2.725613    33B1     2.746668    42A1     2.746685  
      21B2     2.778853    15A2     2.778896    43A1     2.799184  
      44A1     2.803262    34B1     2.803271    35B1     2.921184  
      45A1     3.099088    36B1     3.117672    46A1     3.117691  
      22B2     3.127462    16A2     3.130409    23B2     3.130433  
      47A1     3.150370    37B1     3.150384    24B2     3.155024  
      38B1     3.155670    48A1     3.155682    25B2     3.156870  
      17A2     3.156890    39B1     3.159204    18A2     3.159257  
      26B2     3.160045    19A2     3.160099    40B1     3.164260  
      49A1     3.164286    50A1     3.192158    41B1     3.226997  
      42B1     3.279120    51A1     3.279138    20A2     3.375636  
      27B2     3.375645    52A1     3.376711    28B2     3.409320  
      53A1     3.429387    43B1     3.429387    21A2     3.450376  
      22A2     3.503035    29B2     3.503072    54A1     3.637217  
      44B1     3.637252    55A1     3.652122    45B1     3.699661  
      56A1     3.935750    46B1     3.935769    57A1    12.547811  
      58A1    12.548394    47B1    12.548447    48B1    12.548850  
      59A1    12.549972    23A2    12.549992    49B1    12.550014  
      30B2    12.550104    31B2    12.550218    24A2    12.551049  
      32B2    12.551396    25A2    12.551464    60A1    12.552305  
      50B1    12.552612    61A1    12.552630    26A2    12.553112  
      33B2    12.553127    51B1    12.553161    34B2    12.553273  
      62A1    12.553334    52B1    12.553430    27A2    12.554386  
      28A2    12.554420    35B2    12.554467    63A1    12.554467  
      53B1    12.554613    64A1    12.554626    65A1    12.681414  
      66A1    12.682196    54B1    12.682288    29A2    12.682466  
      36B2    12.682478    37B2    12.684466    38B2    12.686009  
      30A2    12.686035    55B1    12.686955    56B1    12.687246  
      67A1    12.687313    39B2    12.688619    31A2    12.693073  
      68A1    12.696825    69A1    12.697728    57B1    12.697728  
      32A2    12.702430    40B2    12.702457    58B1    12.778154  
      70A1    12.783398    59B1    12.783424  

    Final Occupation by Irrep:
             A1    A2    B1    B2 
    DOCC [    18,    5,   13,    7 ]

  @DF-RKS Final Energy: -4924.18073702925267

   => Energetics <=

    Nuclear Repulsion Energy =            571.2969406416424363
    One-Electron Energy =               -7997.0665585154383734
    Two-Electron Energy =                2706.5908443905664171
    DFT Exchange-Correlation Energy =    -205.0019635460228642
    Empirical Dispersion Energy =           0.0000000000000000
    VV10 Nonlocal Energy =                  0.0000000000000000
    Total Energy =                      -4924.1807370292526684

Computation Completed


Properties will be evaluated at   0.000000,   0.000000,   0.000000 [a0]

Properties computed using the SCF density matrix

  Nuclear Dipole Moment: [e a0]
     X:     0.0000      Y:     0.0000      Z:    -0.0000

  Electronic Dipole Moment: [e a0]
     X:     0.0000      Y:     0.0000      Z:     0.0002

  Dipole Moment: [e a0]
     X:     0.0000      Y:     0.0000      Z:     0.0002     Total:     0.0002

  Dipole Moment: [D]
     X:     0.0000      Y:     0.0000      Z:     0.0004     Total:     0.0004


*** tstop() called on bp1-compute00162.data.bp.acrc.priv at Thu Oct 28 15:25:28 2021
Module time:
	user time   =      45.01 seconds =       0.75 minutes
	system time =       1.75 seconds =       0.03 minutes
	total time  =          2 seconds =       0.03 minutes
Total time:
	user time   =      45.01 seconds =       0.75 minutes
	system time =       1.75 seconds =       0.03 minutes
	total time  =          2 seconds =       0.03 minutes

    Psi4 stopped on: Thursday, 28 October 2021 03:25PM
    Psi4 wall time for execution: 0:00:02.41

*** Psi4 exiting successfully. Buy a developer a beer!
