
    -----------------------------------------------------------------------
          Psi4: An Open-Source Ab Initio Electronic Structure Package
                               Psi4 1.4.1 release

                         Git: Rev {HEAD} cd00f19 


    D. G. A. Smith, L. A. Burns, A. C. Simmonett, R. M. Parrish,
    M. C. Schieber, R. Galvelis, P. Kraus, H. Kruse, R. Di Remigio,
    A. Alenaizan, A. M. James, S. Lehtola, J. P. Misiewicz, M. Scheurer,
    R. A. Shaw, J. B. Schriber, Y. Xie, Z. L. Glick, D. A. Sirianni,
    J. S. O'Brien, J. M. Waldrop, A. Kumar, E. G. Hohenstein,
    B. P. Pritchard, B. R. Brooks, H. F. Schaefer III, A. Yu. Sokolov,
    K. Patkowski, A. E. DePrince III, U. Bozkaya, R. A. King,
    F. A. Evangelista, J. M. Turney, T. D. Crawford, C. D. Sherrill,
    J. Chem. Phys. 152(18) 184108 (2020). https://doi.org/10.1063/5.0006002

                            Additional Code Authors
    E. T. Seidl, C. L. Janssen, E. F. Valeev, M. L. Leininger,
    J. F. Gonthier, R. M. Richard, H. R. McAlexander, M. Saitow, X. Wang,
    P. Verma, and M. H. Lechner

             Previous Authors, Complete List of Code Contributors,
                       and Citations for Specific Modules
    https://github.com/psi4/psi4/blob/master/codemeta.json
    https://github.com/psi4/psi4/graphs/contributors
    http://psicode.org/psi4manual/master/introduction.html#citing-psifour

    -----------------------------------------------------------------------


    Psi4 started on: Tuesday, 02 November 2021 11:05AM

    Process ID: 15777
    Host:       compute405.bc4.acrc.priv
    PSIDATADIR: /mnt/storage/home/zw18965/.conda/envs/p4env/share/psi4
    Memory:     500.0 MiB
    Threads:    28
    
  ==> Input File <==

--------------------------------------------------------------------------
memory 144 GB

molecule {
2 2
Cu      -0.000000    1.401870   -0.545062 
Cu       1.214055   -0.700935   -0.545062 
Cu      -1.214055   -0.700935   -0.545062 
Cu       0.000000    0.000000    1.530006 
H        0.000000    0.000000    3.050192 
 }

set reference uks
set basis Def2-TZVPPD

energy("GAM")
--------------------------------------------------------------------------

  Memory set to 134.110 GiB by Python driver.

Scratch directory: /tmp/

*** tstart() called on compute405.bc4.acrc.priv
*** at Tue Nov  2 11:05:12 2021

   => Loading Basis Set <=

    Name: DEF2-TZVPPD
    Role: ORBITAL
    Keyword: BASIS
    atoms 1-4 entry CU         line  1290 file /mnt/storage/home/zw18965/.conda/envs/p4env/share/psi4/basis/def2-tzvppd.gbs 
    atoms 5   entry H          line    14 file /mnt/storage/home/zw18965/.conda/envs/p4env/share/psi4/basis/def2-tzvppd.gbs 


         ---------------------------------------------------------
                                   SCF
               by Justin Turney, Rob Parrish, Andy Simmonett
                          and Daniel G. A. Smith
                              UKS Reference
                       28 Threads, 137329 MiB Core
         ---------------------------------------------------------

  ==> Geometry <==

    Molecular point group: cs
    Full point group: Cs

    Geometry (in Angstrom), charge = 2, multiplicity = 2:

       Center              X                  Y                   Z               Mass       
    ------------   -----------------  -----------------  -----------------  -----------------
         CU          -1.401870000000     0.531035456593     0.000000000000    62.929597720000
         CU           0.700935000000     0.531035456593     1.214055000000    62.929597720000
         CU           0.700935000000     0.531035456593    -1.214055000000    62.929597720000
         CU          -0.000000000000    -1.544032543407     0.000000000000    62.929597720000
         H           -0.000000000000    -3.064218543407     0.000000000000     1.007825032230

  Running in cs symmetry.

  Rotational constants: A =      0.04544  B =      0.04233  C =      0.04233 [cm^-1]
  Rotational constants: A =   1362.15183  B =   1269.04675  C =   1269.04672 [MHz]
  Nuclear repulsion = 1105.027163594112380

  Charge       = 2
  Multiplicity = 2
  Electrons    = 115
  Nalpha       = 58
  Nbeta        = 57

  ==> Algorithm <==

  SCF Algorithm Type is DF.
  DIIS enabled.
  MOM disabled.
  Fractional occupation disabled.
  Guess Type is SAD.
  Energy threshold   = 1.00e-06
  Density threshold  = 1.00e-06
  Integral threshold = 1.00e-12

  ==> Primary Basis <==

  Basis Set: DEF2-TZVPPD
    Blend: DEF2-TZVPPD
    Number of shells: 83
    Number of basis functions: 285
    Number of Cartesian functions: 350
    Spherical Harmonics?: true
    Max angular momentum: 4

  ==> DFT Potential <==

   => Composite Functional: GAM <= 

   GAM GGA Minessota Exchange-Correlation Functional

    H.S. Yu, et al., Phys. Chem. Chem. Phys. 17, 12146, 2015


    Deriv               =              1
    GGA                 =           TRUE
    Meta                =          FALSE

    Exchange Hybrid     =          FALSE
    MP2 Hybrid          =          FALSE

   => Exchange Functionals <=

    1.0000     XC_GGA_X_GAM

   => Correlation Functionals <=

    1.0000     XC_GGA_C_GAM

   => LibXC Density Thresholds  <==

    XC_GGA_C_GAM:  1.00E-14 
    XC_GGA_X_GAM:  1.00E-14 

   => Molecular Quadrature <=

    Radial Scheme          =       TREUTLER
    Pruning Scheme         =           NONE
    Nuclear Scheme         =       TREUTLER

    BS radius alpha        =              1
    Pruning alpha          =              1
    Radial Points          =             75
    Spherical Points       =            302
    Total Points           =         108614
    Total Blocks           =            933
    Max Points             =            256
    Max Functions          =            263
    Weights Tolerance      =       1.00E-15

   => Loading Basis Set <=

    Name: (DEF2-TZVPPD AUX)
    Role: JKFIT
    Keyword: DF_BASIS_SCF
    atoms 1-4 entry CU         line  2356 file /mnt/storage/home/zw18965/.conda/envs/p4env/share/psi4/basis/def2-universal-jkfit.gbs 
    atoms 5   entry H          line    18 file /mnt/storage/home/zw18965/.conda/envs/p4env/share/psi4/basis/def2-universal-jkfit.gbs 

  ==> Integral Setup <==

  DFHelper Memory: AOs need 0.632 GiB; user supplied 100.079 GiB. Using in-core AOs.

  ==> MemDFJK: Density-Fitted J/K Matrices <==

    J tasked:                   Yes
    K tasked:                    No
    wK tasked:                   No
    OpenMP threads:              28
    Memory [MiB]:            102481
    Algorithm:                 Core
    Schwarz Cutoff:           1E-12
    Mask sparsity (%):      10.3022
    Fitting Condition:        1E-10

   => Auxiliary Basis Set <=

  Basis Set: (DEF2-TZVPPD AUX)
    Blend: DEF2-UNIVERSAL-JKFIT
    Number of shells: 238
    Number of basis functions: 1074
    Number of Cartesian functions: 1528
    Spherical Harmonics?: true
    Max angular momentum: 6

  Cached 100.0% of DFT collocation blocks in 0.504 [GiB].

  Minimum eigenvalue in the overlap matrix is 4.1382247410E-04.
  Reciprocal condition number of the overlap matrix is 5.8865608987E-05.
    Using symmetric orthogonalization.

  ==> Pre-Iterations <==

  SCF Guess: Superposition of Atomic Densities via on-the-fly atomic UHF (no occupation information).

   -------------------------
    Irrep   Nso     Nmo    
   -------------------------
     A'       165     165 
     A"       120     120 
   -------------------------
    Total     285     285
   -------------------------

  ==> Iterations <==

                           Total Energy        Delta E     RMS |[F,P]|

   @DF-UKS iter SAD: -6558.39089526708540   -6.55839e+03   0.00000e+00 
    Occupation by irrep:
             Ap   App 
    DOCC [    37,   20 ]
    SOCC [     0,    1 ]

   @DF-UKS iter   1: -6552.46421922407717    5.92668e+00   4.41135e-02 DIIS
    Occupation by irrep:
             Ap   App 
    DOCC [    35,   22 ]
    SOCC [     0,    1 ]

   @DF-UKS iter   2: -6376.44816129794708    1.76016e+02   1.00142e-01 DIIS
    Occupation by irrep:
             Ap   App 
    DOCC [    38,   19 ]
    SOCC [     0,    1 ]

   @DF-UKS iter   3: -6562.85502428315158   -1.86407e+02   1.30477e-02 DIIS
    Occupation by irrep:
             Ap   App 
    DOCC [    35,   22 ]
    SOCC [     1,    0 ]

   @DF-UKS iter   4: -6494.93431371927454    6.79207e+01   7.21708e-02 DIIS
    Occupation by irrep:
             Ap   App 
    DOCC [    37,   20 ]
    SOCC [     1,    0 ]

   @DF-UKS iter   5: -6560.58077285921900   -6.56465e+01   2.16213e-02 DIIS
    Occupation by irrep:
             Ap   App 
    DOCC [    35,   22 ]
    SOCC [     1,    0 ]

   @DF-UKS iter   6: -6548.03690232419285    1.25439e+01   3.79335e-02 DIIS
   @DF-UKS iter   7: -6565.05401297449407   -1.70171e+01   8.89732e-03 DIIS
   @DF-UKS iter   8: -6565.43672062005407   -3.82708e-01   6.41846e-03 DIIS
   @DF-UKS iter   9: -6565.22953947499173    2.07181e-01   6.81459e-03 DIIS
   @DF-UKS iter  10: -6565.77591719489737   -5.46378e-01   6.08142e-04 DIIS
   @DF-UKS iter  11: -6565.77072489974671    5.19230e-03   6.10950e-04 DIIS
   @DF-UKS iter  12: -6565.78163308629973   -1.09082e-02   9.06048e-05 DIIS
   @DF-UKS iter  13: -6565.78162596260063    7.12370e-06   1.35344e-04 DIIS
   @DF-UKS iter  14: -6565.78185365745503   -2.27695e-04   3.20887e-05 DIIS
   @DF-UKS iter  15: -6565.78185996237153   -6.30492e-06   2.80674e-05 DIIS
   @DF-UKS iter  16: -6565.78186672802440   -6.76565e-06   1.07834e-05 DIIS
   @DF-UKS iter  17: -6565.78186841764727   -1.68962e-06   2.16106e-06 DIIS
   @DF-UKS iter  18: -6565.78186847090728   -5.32600e-08   3.85260e-07 DIIS
  Energy and wave function converged.


  ==> Post-Iterations <==

   Electrons on quadrature grid:
      Nalpha   =   57.9999833658 ; deviation = -1.663e-05
      Nbeta    =   56.9999810349 ; deviation = -1.897e-05
      Ntotal   =  114.9999644007 ; deviation = -3.560e-05 

   @Spin Contamination Metric:   6.301882592E-03
   @S^2 Expected:                7.500000000E-01
   @S^2 Observed:                7.563018826E-01
   @S   Expected:                5.000000000E-01
   @S   Observed:                5.000000000E-01

    Orbital Energies [Eh]
    ---------------------

    Alpha Occupied:                                                       

       1Ap  -321.326321     1App -321.302508     2Ap  -321.302503  
       3Ap  -321.302489     4Ap   -38.805922     2App  -38.773046  
       5Ap   -38.773042     6Ap   -38.773006     7Ap   -34.210028  
       8Ap   -34.199391     3App  -34.199389     4App  -34.172159  
       9Ap   -34.172157    10Ap   -34.172149     5App  -34.170833  
      11Ap   -34.170831    12Ap   -34.170823     6App  -34.170580  
      13Ap   -34.170576     7App  -34.170573    14Ap    -4.573193  
      15Ap    -4.544379     8App   -4.544085    16Ap    -4.544084  
      17Ap    -3.122784    18Ap    -3.101715     9App   -3.101706  
      19Ap    -3.084412    20Ap    -3.082512    10App   -3.082509  
      21Ap    -3.079761    22Ap    -3.079546    11App   -3.079540  
      23Ap    -3.079103    12App   -3.079102    13App   -3.078514  
      24Ap    -0.735173    25Ap    -0.677931    26Ap    -0.666600  
      14App   -0.666565    27Ap    -0.653057    28Ap    -0.649128  
      15App   -0.649122    16App   -0.641442    29Ap    -0.641441  
      30Ap    -0.637893    31Ap    -0.633927    17App   -0.625912  
      32Ap    -0.625905    33Ap    -0.615735    18App   -0.615730  
      34Ap    -0.615658    19App   -0.615648    20App   -0.615196  
      21App   -0.612729    35Ap    -0.612726    22App   -0.604607  
      36Ap    -0.604517  

    Alpha Virtual:                                                        

      37Ap    -0.492336    23App   -0.492335    38Ap    -0.458630  
      39Ap    -0.370678    40Ap    -0.361249    24App   -0.361244  
      25App   -0.349493    41Ap    -0.349491    42Ap    -0.255665  
      43Ap    -0.219359    26App   -0.219358    27App   -0.202775  
      28App   -0.200754    44Ap    -0.200753    45Ap    -0.199820  
      46Ap    -0.169529    47Ap    -0.156580    48Ap    -0.147728  
      29App   -0.147718    49Ap    -0.140152    50Ap    -0.138696  
      30App   -0.138695    51Ap    -0.129782    31App   -0.129781  
      52Ap    -0.120265    32App   -0.085131    53Ap    -0.085130  
      33App   -0.073417    54Ap    -0.073416    34App   -0.067143  
      55Ap    -0.065116    35App   -0.058660    56Ap    -0.058660  
      57Ap    -0.031745    36App   -0.031742    58Ap    -0.023436  
      59Ap    -0.019805    37App   -0.019790    38App   -0.013486  
      60Ap     0.013872    61Ap     0.027961    62Ap     0.034390  
      39App    0.034394    63Ap     0.048979    40App    0.048980  
      41App    0.083564    64Ap     0.083569    65Ap     0.090156  
      42App    0.119623    66Ap     0.119623    43App    0.125641  
      44App    0.140653    67Ap     0.140664    68Ap     0.148279  
      69Ap     0.183088    70Ap     0.290162    45App    0.335913  
      71Ap     0.335949    46App    0.340557    72Ap     0.340563  
      73Ap     0.378702    47App    0.383716    74Ap     0.383724  
      75Ap     0.413581    76Ap     0.421335    48App    0.440330  
      77Ap     0.440343    49App    0.467206    78Ap     0.467208  
      79Ap     0.512231    50App    0.512234    51App    0.514060  
      80Ap     0.544019    52App    0.544026    81Ap     0.558484  
      53App    0.582131    54App    0.582168    82Ap     0.582168  
      55App    0.605625    83Ap     0.605637    84Ap     0.615254  
      56App    0.652576    85Ap     0.652607    86Ap     0.801758  
      57App    0.810280    87Ap     0.810329    58App    0.826261  
      88Ap     0.880084    59App    0.880090    89Ap     1.014346  
      90Ap     2.188642    91Ap     2.331642    92Ap     2.473436  
      60App    2.473451    93Ap     2.544911    61App    2.544938  
      94Ap     2.549740    62App    2.581363    95Ap     2.581374  
      96Ap     2.584137    97Ap     2.678792    63App    2.678798  
      98Ap     2.724251    64App    2.724274    65App    2.734501  
      99Ap     2.770563   100Ap     2.790747    66App    2.790761  
     101Ap     2.826745   102Ap     2.910923   103Ap     2.922981  
      67App    2.922996   104Ap     2.930653    68App    2.936957  
     105Ap     2.940483    69App    2.941581   106Ap     2.941609  
      70App    2.944945   107Ap     2.944997    71App    2.947750  
     108Ap     2.948033    72App    2.948042   109Ap     2.949047  
      73App    2.949048    74App    2.949945    75App    2.966008  
     110Ap     2.966009    76App    2.970577   111Ap     2.970588  
      77App    2.983835   112Ap     2.986224   113Ap     2.988695  
      78App    2.988707   114Ap     2.989973    79App    3.100033  
     115Ap     3.100046   116Ap     3.165847    80App    3.165873  
     117Ap     3.165885   118Ap     3.183429   119Ap     3.221378  
      81App    3.221424    82App    3.240794   120Ap     3.244943  
      83App    3.244966   121Ap     3.266096    84App    3.266108  
     122Ap     3.361642    85App    3.377986   123Ap     3.378014  
      86App    3.424440   124Ap     3.424457   125Ap     3.441759  
      87App    3.484024   126Ap     3.493445    88App    3.493480  
     127Ap     3.594542    89App    3.594549   128Ap     3.711137  
      90App    3.821911   129Ap     3.821958   130Ap     3.884606  
     131Ap     4.642075   132Ap    12.318271    91App   12.318443  
     133Ap    12.320594    92App   12.321093   134Ap    12.321499  
      93App   12.324202   135Ap    12.324984   136Ap    12.327023  
      94App   12.327061   137Ap    12.339759    95App   12.339997  
     138Ap    12.340061    96App   12.340477   139Ap    12.340501  
      97App   12.340877   140Ap    12.340958   141Ap    12.341204  
      98App   12.341312    99App   12.341532   142Ap    12.341675  
     100App   12.341797   143Ap    12.342021   101App   12.342338  
     144Ap    12.342355   102App   12.342559   145Ap    12.342764  
     103App   12.342979   104App   12.343119   146Ap    12.343204  
     147Ap    12.343378   148Ap    12.344256   105App   12.344382  
     149Ap    12.344423   106App   12.344629   107App   12.344666  
     150Ap    12.344676   108App   12.457829   151Ap    12.459203  
     152Ap    12.459637   109App   12.459665   153Ap    12.475056  
     110App   12.475070   154Ap    12.476343   111App   12.477144  
     155Ap    12.478422   112App   12.478448   113App   12.480282  
     156Ap    12.480288   114App   12.480557   157Ap    12.480655  
     158Ap    12.483517   159Ap    12.484063   115App   12.484097  
     116App   12.486313   160Ap    12.486324   161Ap    12.494759  
     117App   12.494782   162Ap    12.522847   118App   12.522950  
     163Ap    12.527431   119App   12.539032   164Ap    12.547900  
     120App   12.547939   165Ap    12.816737  

    Beta Occupied:                                                        

       1Ap  -321.325575     1App -321.302447     2Ap  -321.302443  
       3Ap  -321.302428     4Ap   -38.801120     2App  -38.772679  
       5Ap   -38.772675     6Ap   -38.772639     7Ap   -34.204792  
       8Ap   -34.196356     3App  -34.196355     4App  -34.171824  
       9Ap   -34.171823    10Ap   -34.171815     5App  -34.170472  
      11Ap   -34.170468     6App  -34.170465     7App  -34.170421  
      12Ap   -34.170420    13Ap   -34.170412    14Ap    -4.564424  
      15Ap    -4.543708     8App   -4.543415    16Ap    -4.543414  
      17Ap    -3.106760    18Ap    -3.096468     9App   -3.096462  
      19Ap    -3.083285    20Ap    -3.081475    10App   -3.081472  
      21Ap    -3.079161    11App   -3.079153    22Ap    -3.079023  
      12App   -3.078474    23Ap    -3.078473    13App   -3.078317  
      24Ap    -0.712987    25Ap    -0.661874    26Ap    -0.660365  
      14App   -0.660335    27Ap    -0.645974    28Ap    -0.645574  
      15App   -0.645563    16App   -0.637102    29Ap    -0.637094  
      30Ap    -0.633259    31Ap    -0.629803    17App   -0.622821  
      32Ap    -0.622817    33Ap    -0.614871    18App   -0.614854  
      19App   -0.614549    34Ap    -0.614538    20App   -0.614534  
      35Ap    -0.610107    21App   -0.610101    22App   -0.604157  

    Beta Virtual:                                                         

      36Ap    -0.564596    37Ap    -0.490250    23App   -0.490250  
      38Ap    -0.448078    39Ap    -0.369322    40Ap    -0.358160  
      24App   -0.358158    25App   -0.347817    41Ap    -0.347817  
      42Ap    -0.245031    43Ap    -0.223150    26App   -0.223149  
      27App   -0.201957    28App   -0.197296    44Ap    -0.197293  
      45Ap    -0.196149    46Ap    -0.162821    29App   -0.154088  
      47Ap    -0.154080    48Ap    -0.153299    49Ap    -0.138000  
      50Ap    -0.129415    30App   -0.129413    51Ap    -0.126708  
      31App   -0.126708    52Ap    -0.108207    32App   -0.078275  
      53Ap    -0.078275    54Ap    -0.067586    33App   -0.064168  
      34App   -0.062080    55Ap    -0.062075    35App   -0.057269  
      56Ap    -0.057268    36App   -0.039344    57Ap    -0.039339  
      37App   -0.027979    58Ap    -0.027977    59Ap    -0.013940  
      38App   -0.013755    60Ap     0.010312    61Ap     0.034038  
      62Ap     0.034417    39App    0.034417    40App    0.048104  
      63Ap     0.048105    41App    0.074892    64Ap     0.074899  
      65Ap     0.093195    42App    0.120253    66Ap     0.120254  
      43App    0.127377    44App    0.136282    67Ap     0.136292  
      68Ap     0.169822    69Ap     0.184045    70Ap     0.288672  
      45App    0.339826    71Ap     0.339840    46App    0.341964  
      72Ap     0.341970    73Ap     0.379269    47App    0.386918  
      74Ap     0.386933    75Ap     0.415281    76Ap     0.419754  
      48App    0.436749    77Ap     0.436760    49App    0.473931  
      78Ap     0.473937    50App    0.512351    51App    0.513388  
      79Ap     0.513393    80Ap     0.560140    52App    0.561453  
      81Ap     0.561454    53App    0.585038    54App    0.593646  
      82Ap     0.593652    55App    0.615918    83Ap     0.615925  
      84Ap     0.631634    56App    0.676242    85Ap     0.676272  
      57App    0.812275    86Ap     0.812345    58App    0.827397  
      87Ap     0.830082    59App    0.913292    88Ap     0.913292  
      89Ap     1.045984    90Ap     2.280532    91Ap     2.366507  
      92Ap     2.499528    60App    2.499537    93Ap     2.551075  
      61App    2.551110    94Ap     2.552649    95Ap     2.590356  
      62App    2.604506    96Ap     2.604513    63App    2.693378  
      97Ap     2.693395    64App    2.734905    98Ap     2.775818  
      65App    2.783757    99Ap     2.783781    66App    2.813243  
     100Ap     2.813248   101Ap     2.831832   102Ap     2.911464  
     103Ap     2.924849    67App    2.924859   104Ap     2.934788  
      68App    2.944090   105Ap     2.944115    69App    2.946163  
     106Ap     2.946212    70App    2.947125    71App    2.949096  
      72App    2.949282   107Ap     2.949284   108Ap     2.949834  
      73App    2.949835   109Ap     2.950786    74App    2.951823  
      75App    2.969515   110Ap     2.969517    76App    2.972573  
     111Ap     2.972588    77App    2.984823   112Ap     2.988912  
     113Ap     3.005068    78App    3.016161   114Ap     3.016172  
      79App    3.102963   115Ap     3.102979   116Ap     3.169039  
      80App    3.172311   117Ap     3.172316   118Ap     3.190117  
     119Ap     3.230947    81App    3.230999    82App    3.242115  
     120Ap     3.248402    83App    3.248425   121Ap     3.338658  
      84App    3.338664   122Ap     3.369322    85App    3.388771  
     123Ap     3.388812    86App    3.426888   124Ap     3.426904  
     125Ap     3.451836    87App    3.484914   126Ap     3.502343  
      88App    3.502382   127Ap     3.677395    89App    3.677402  
     128Ap     3.771199    90App    3.824818   129Ap     3.824887  
     130Ap     3.901551   131Ap     4.708165   132Ap    12.324241  
      91App   12.324336    92App   12.325795   133Ap    12.326566  
     134Ap    12.331706    93App   12.332265   135Ap    12.332452  
      94App   12.332494   136Ap    12.336516   137Ap    12.340738  
      95App   12.340811   138Ap    12.340925    96App   12.341159  
     139Ap    12.341225   140Ap    12.341298    97App   12.341468  
      98App   12.341703   141Ap    12.341771    99App   12.342018  
     142Ap    12.342123   100App   12.342410   143Ap    12.342634  
     101App   12.342676   102App   12.342949   144Ap    12.342983  
     145Ap    12.343131   103App   12.343301   146Ap    12.343493  
     104App   12.343761   147Ap    12.343984   148Ap    12.344804  
     105App   12.344823   149Ap    12.344905   106App   12.345011  
     107App   12.345131   150Ap    12.345184   108App   12.461681  
     151Ap    12.463024   152Ap    12.466705   109App   12.466733  
     153Ap    12.475936   110App   12.475951   154Ap    12.477326  
     111App   12.477473   155Ap    12.479203   112App   12.479217  
     156Ap    12.480795   113App   12.480802   114App   12.481073  
     157Ap    12.481897   158Ap    12.484330   159Ap    12.485019  
     115App   12.485050   116App   12.487481   160Ap    12.487500  
     161Ap    12.496810   117App   12.496833   162Ap    12.528535  
     163Ap    12.532399   118App   12.532482   119App   12.540194  
     164Ap    12.553080   120App   12.553140   165Ap    12.833207  

    Final Occupation by Irrep:
             Ap   App 
    DOCC [    35,   22 ]
    SOCC [     1,    0 ]

  @DF-UKS Final Energy: -6565.78186847090728

   => Energetics <=

    Nuclear Repulsion Energy =           1105.0271635941123805
    One-Electron Energy =              -11324.6947336375524173
    Two-Electron Energy =                3927.3512328305014307
    DFT Exchange-Correlation Energy =    -273.4655312579685074
    Empirical Dispersion Energy =           0.0000000000000000
    VV10 Nonlocal Energy =                  0.0000000000000000
    Total Energy =                      -6565.7818684709081936

  UHF NO Occupations:
  HONO-2 :   22App 1.9997450
  HONO-1 :   35 Ap 1.9976260
  HONO-0 :   36 Ap 1.0000000
  LUNO+0 :   37 Ap 0.0023740
  LUNO+1 :   23App 0.0002550
  LUNO+2 :   38 Ap 0.0002549
  LUNO+3 :   39 Ap 0.0001341


Computation Completed


Properties will be evaluated at   0.000000,   0.000000,   0.000000 [a0]

Properties computed using the SCF density matrix

  Nuclear Dipole Moment: [e a0]
     X:    -0.0000      Y:    -3.1012      Z:    -0.0000

  Electronic Dipole Moment: [e a0]
     X:     0.0001      Y:     3.2752      Z:     0.0000

  Dipole Moment: [e a0]
     X:     0.0001      Y:     0.1740      Z:    -0.0000     Total:     0.1740

  Dipole Moment: [D]
     X:     0.0002      Y:     0.4422      Z:    -0.0000     Total:     0.4422


*** tstop() called on compute405.bc4.acrc.priv at Tue Nov  2 11:05:49 2021
Module time:
	user time   =     961.64 seconds =      16.03 minutes
	system time =      40.77 seconds =       0.68 minutes
	total time  =         37 seconds =       0.62 minutes
Total time:
	user time   =     961.64 seconds =      16.03 minutes
	system time =      40.77 seconds =       0.68 minutes
	total time  =         37 seconds =       0.62 minutes

    Psi4 stopped on: Tuesday, 02 November 2021 11:05AM
    Psi4 wall time for execution: 0:00:37.20

*** Psi4 exiting successfully. Buy a developer a beer!
