
                                 *****************
                                 * O   R   C   A *
                                 *****************

           --- An Ab Initio, DFT and Semiempirical electronic structure package ---

                  #######################################################
                  #                        -***-                        #
                  #          Department of theory and spectroscopy      #
                  #               Directorship: Frank Neese             #
                  #        Max Planck Institute fuer Kohlenforschung    #
                  #                Kaiser Wilhelm Platz 1               #
                  #                 D-45470 Muelheim/Ruhr               #
                  #                      Germany                        #
                  #                                                     #
                  #                  All rights reserved                #
                  #                        -***-                        #
                  #######################################################


                         Program Version 4.2.0 -  RELEASE  -


 With contributions from (in alphabetic order):
   Daniel Aravena         : Magnetic Suceptibility
   Michael Atanasov       : Ab Initio Ligand Field Theory (pilot matlab implementation)
   Alexander A. Auer      : GIAO ZORA, VPT2
   Ute Becker             : Parallelization
   Giovanni Bistoni       : ED, misc. LED, open-shell LED, HFLED
   Martin Brehm           : Molecular dynamics
   Dmytro Bykov           : SCF Hessian
   Vijay G. Chilkuri      : MRCI spin determinant printing, contributions to CSF-ICE
   Dipayan Datta          : RHF DLPNO-CCSD density
   Achintya Kumar Dutta   : EOM-CC, STEOM-CC
   Dmitry Ganyushin       : Spin-Orbit,Spin-Spin,Magnetic field MRCI
   Miquel Garcia          : C-PCM Hessian, Gaussian charge scheme
   Yang Guo               : DLPNO-NEVPT2, CIM, IAO-localization
   Andreas Hansen         : Spin unrestricted coupled pair/coupled cluster methods
   Benjamin Helmich-Paris : CASSCF linear response (MC-RPA)
   Lee Huntington         : MR-EOM, pCC
   Robert Izsak           : Overlap fitted RIJCOSX, COSX-SCS-MP3, EOM
   Christian Kollmar      : KDIIS, OOCD, Brueckner-CCSD(T), CCSD density
   Simone Kossmann        : Meta GGA functionals, TD-DFT gradient, OOMP2, MP2 Hessian
   Martin Krupicka        : AUTO-CI
   Lucas Lang             : DCDCAS
   Dagmar Lenk            : GEPOL surface, SMD
   Dimitrios Liakos       : Extrapolation schemes; Compound Job, initial MDCI parallelization
   Dimitrios Manganas     : Further ROCIS development; embedding schemes
   Dimitrios Pantazis     : SARC Basis sets
   Taras Petrenko         : DFT Hessian,TD-DFT gradient, ASA, ECA, R-Raman, ABS, FL, XAS/XES, NRVS
   Peter Pinski           : DLPNO-MP2, DLPNO-MP2 Gradient
   Christoph Reimann      : Effective Core Potentials
   Marius Retegan         : Local ZFS, SOC
   Christoph Riplinger    : Optimizer, TS searches, QM/MM, DLPNO-CCSD(T), (RO)-DLPNO pert. Triples
   Tobias Risthaus        : Range-separated hybrids, TD-DFT gradient, RPA, STAB
   Michael Roemelt        : Original ROCIS implementation
   Masaaki Saitow         : Open-shell DLPNO-CCSD energy and density
   Barbara Sandhoefer     : DKH picture change effects
   Avijit Sen             : IP-ROCIS
   Kantharuban Sivalingam : CASSCF convergence, NEVPT2, FIC-MRCI
   Bernardo de Souza      : ESD, SOC TD-DFT
   Georgi Stoychev        : AutoAux, RI-MP2 NMR
   Willem Van den Heuvel  : Paramagnetic NMR
   Boris Wezisla          : Elementary symmetry handling
   Frank Wennmohs         : Technical directorship


 We gratefully acknowledge several colleagues who have allowed us to
 interface, adapt or use parts of their codes:
   Stefan Grimme, W. Hujo, H. Kruse,             : VdW corrections, initial TS optimization,
                  C. Bannwarth                     DFT functionals, gCP, sTDA/sTD-DF
   Ed Valeev, F. Pavosevic, A. Kumar             : LibInt (2-el integral package), F12 methods
   Garnet Chan, S. Sharma, J. Yang, R. Olivares  : DMRG
   Ulf Ekstrom                                   : XCFun DFT Library
   Mihaly Kallay                                 : mrcc  (arbitrary order and MRCC methods)
   Andreas Klamt, Michael Diedenhofen            : otool_cosmo (COSMO solvation model)
   Jiri Pittner, Ondrej Demel                    : Mk-CCSD
   Frank Weinhold                                : gennbo (NPA and NBO analysis)
   Christopher J. Cramer and Donald G. Truhlar   : smd solvation model
   Lars Goerigk                                  : TD-DFT with DH, B97 family of functionals
   V. Asgeirsson, H. Jonsson                     : NEB implementation
   FAccTs GmbH                                   : IRC, NEB, NEB-TS, Multilevel, MM, QM/MM, CI optimization
   S Lehtola, MJT Oliveira, MAL Marques          : LibXC Library


 Your calculation uses the libint2 library for the computation of 2-el integrals
 For citations please refer to: http://libint.valeyev.net

 Your ORCA version has been built with support for libXC version: 4.2.3
 For citations please refer to: https://tddft.org/programs/libxc/

 This ORCA versions uses:
   CBLAS   interface :  Fast vector & matrix operations
   LAPACKE interface :  Fast linear algebra routines
   SCALAPACK package :  Parallel linear algebra routines


Your calculation utilizes the DFT-NL dispersion correction.
Cite in your paper:
Vydrov, O. A.; Van Voorhis, T. J. Chem. Phys. 2010, 133, 244103
Hujo, W.; Grimme, S. J. Chem. Theory Comput. 2011, 7, 3866 
   

----- Orbital basis set information -----
Your calculation utilizes the basis: def2-TZVPPD
   F. Weigend and R. Ahlrichs, Phys. Chem. Chem. Phys. 7, 3297 (2005).
   D. Rappoport and F. Furche, J. Chem. Phys. 133 134105 (2010).

----- AuxJK basis set information -----
Your calculation utilizes the auxiliary basis: def2/JK
   H-Ba, Hf-Rn: F. Weigend, J. Comput. Chem. 29, 167 (2008).

cite the ECPs for Ag [Def2-ECP] as follows:
Ce-Yb(ecp-28): M. Dolg, H. Stoll, H.Preuss, J. Chem. Phys., 1989, 90, 1730-1734.
Y-Cd(ecp-28), Hf-Hg(ecp-46): D. Andrae,U. Haeussermann, M. Dolg, H. Stoll, H. Preuss, Theor. Chim. Acta, 1990, 77, 123-141.
In-Sb(ecp-28), Tl-Bi(ecp-46): B. Metz, H. Stoll, M. Dolg, J. Chem. Phys., 2000, 113, 2563-2569.
Te-Xe(ecp-28), Po-Rn(ecp-46): K. A. Peterson, D. Figgen, E. Goll, H. Stoll, M. Dolg, J. Chem. Phys., 2003, 119, 11113-11123.
Rb(ecp-28), Cs(ecp-46): T. Leininger, A. Nicklass, W. Kuechle, H. Stoll, M. Dolg, A. Bergner, Chem. Phys. Lett., 1996, 255, 274-280.
Sr(ecp-28), Ba(ecp-46): M. Kaupp, P. V. Schleyer, H. Stoll and H. Preuss, J. Chem. Phys., 1991, 94, 1360-1366.
La(ecp-46): M. Dolg, H. Stoll, A. Savin, H. Preuss, Theor. Chim. Acta, 1989, 75, 173-194.
Lu(ecp-28): X. Cao, M. Dolg, J. Chem. Phys., 2001, 115, 7348-7355.

ECP parameters for Ag [Def2-ECP] have been obtained from:
TURBOMOLE (7.0.2)

================================================================================
                                        WARNINGS
                       Please study these warnings very carefully!
================================================================================


WARNING: Geometry Optimization
  ===> : Switching off AutoStart
         For restart on a previous wavefunction, please use MOREAD

INFO   : the flag for use of LIBINT has been found!

================================================================================
                                       INPUT FILE
================================================================================
NAME = Ag01N0_F.in
|  1> #
|  2> # Ag01N0_F wB97X-V/Def2-TZVPPD
|  3> #
|  4> ! wb97x-v def2-tzvppd def2/jk grid4 nofinalgrid opt xyzfile numfreq numgrad
|  5> 
|  6> *xyz 0 1
|  7> Ag       0.000000    0.000000    0.317712 
|  8> F        0.000000    0.000000   -1.659163 
|  9> *
| 10> 
| 11> %maxcore 5000
| 12> 
| 13> %pal
| 14> nprocs = 24
| 15> end
| 16> 
| 17> 
| 18>                          ****END OF INPUT****
================================================================================

                       *****************************
                       * Geometry Optimization Run *
                       *****************************

Geometry optimization settings:
Update method            Update   .... BFGS
Choice of coordinates    CoordSys .... Z-matrix Internals
Initial Hessian          InHess   .... Almoef's Model

Convergence Tolerances:
Energy Change            TolE     ....  5.0000e-06 Eh
Max. Gradient            TolMAXG  ....  3.0000e-04 Eh/bohr
RMS Gradient             TolRMSG  ....  1.0000e-04 Eh/bohr
Max. Displacement        TolMAXD  ....  4.0000e-03 bohr
RMS Displacement         TolRMSD  ....  2.0000e-03 bohr
Strict Convergence                ....  False
------------------------------------------------------------------------------
                        ORCA OPTIMIZATION COORDINATE SETUP
------------------------------------------------------------------------------

The optimization will be done in new redundant internal coordinates
Making redundant internal coordinates   ...  (new redundants) done
Evaluating the initial hessian          ...  (Almloef) done
Evaluating the coordinates              ...  done
Calculating the B-matrix                .... done
Calculating the G-matrix                .... done
Diagonalizing the G-matrix              .... done
The first mode is                       ....    0
The number of degrees of freedom        ....    1

    -----------------------------------------------------------------
                    Redundant Internal Coordinates


    -----------------------------------------------------------------
         Definition                    Initial Value    Approx d2E/dq
    -----------------------------------------------------------------
      1. B(F   1,Ag  0)                  1.9769         0.609214   
    -----------------------------------------------------------------

Number of atoms                         .... 2
Number of degrees of freedom            .... 1

         *************************************************************
         *                GEOMETRY OPTIMIZATION CYCLE   1            *
         *************************************************************
---------------------------------
CARTESIAN COORDINATES (ANGSTROEM)
---------------------------------
  Ag     0.000000    0.000000    0.317712
  F      0.000000    0.000000   -1.659163

----------------------------
CARTESIAN COORDINATES (A.U.)
----------------------------
  NO LB      ZA    FRAG     MASS         X           Y           Z
   0 Ag   19.0000*   0   107.870    0.000000    0.000000    0.600389
   1 F     9.0000    0    18.998    0.000000    0.000000   -3.135364
* core charge reduced due to ECP

--------------------------------
INTERNAL COORDINATES (ANGSTROEM)
--------------------------------
 Ag     0   0   0     0.000000000000     0.00000000     0.00000000
 F      1   0   0     1.976875000000     0.00000000     0.00000000

---------------------------
INTERNAL COORDINATES (A.U.)
---------------------------
 Ag     0   0   0     0.000000000000     0.00000000     0.00000000
 F      1   0   0     3.735752350996     0.00000000     0.00000000

---------------------
BASIS SET INFORMATION
---------------------
There are 2 groups of distinct atoms

 Group   1 Type Ag  : 7s7p6d2f1g contracted to 6s4p3d2f1g pattern {211111/4111/411/11/1}
 Group   2 Type F   : 12s7p3d1f contracted to 6s4p3d1f pattern {621111/4111/111/1}

Atom   0Ag   basis set group =>   1
Atom   1F    basis set group =>   2
----------------------------------
AUXILIARY/JK BASIS SET INFORMATION
----------------------------------
There are 2 groups of distinct atoms

 Group   1 Type Ag  : 13s12p10d9f6g3h2i contracted to 11s10p9d8f6g3h2i pattern {31111111111/3111111111/211111111/21111111/111111/111/11}
 Group   2 Type F   : 14s10p6d2f1g contracted to 10s8p4d2f1g pattern {5111111111/31111111/3111/11/1}

Atom   0Ag   basis set group =>   1
Atom   1F    basis set group =>   2
-------------------------
ECP PARAMETER INFORMATION
-------------------------

 Group 1, Type Ag ECP Def2-ECP (replacing 28 core electrons, lmax=3)

Atom   0Ag   ECP group =>   1



           ************************************************************
           *        Program running with 24 parallel MPI-processes    *
           *              working on a common directory               *
           ************************************************************
------------------------------------------------------------------------------
                           ORCA GTO INTEGRAL CALCULATION
------------------------------------------------------------------------------

                         BASIS SET STATISTICS AND STARTUP INFO

 # of primitive gaussian shells          ...   46
 # of primitive gaussian functions       ...  136
 # of contracted shells                  ...   30
 # of contracted basis functions         ...   96
 Highest angular momentum                ...    4
 Maximum contraction depth               ...    6
 Integral package used                   ... LIBINT
 Integral threshhold            Thresh   ...  2.500e-11
 Primitive cut-off              TCut     ...  2.500e-12


------------------------------ INTEGRAL EVALUATION ----------------------------


 * One electron integrals 

   ECP integrals                         ... done
 Pre-screening matrix                    ... done
 Shell pair data                         ... done (   0.000 sec)



           ************************************************************
           *        Program running with 24 parallel MPI-processes    *
           *              working on a common directory               *
           ************************************************************
-------------------------------------------------------------------------------
                                 ORCA SCF
-------------------------------------------------------------------------------

------------
SCF SETTINGS
------------
Hamiltonian:
 Density Functional     Method          .... DFT(GTOs)
 Exchange Functional    Exchange        .... WB97X-V
 Correlation Functional Correlation     .... WB97X-V
 Gradients option       PostSCFGGA      .... off
 Hybrid DFT is turned on
   Fraction HF Exchange ScalHFX         ....  0.167000
   Scaling of DF-GGA-X  ScalDFX         ....  0.000000
   Scaling of DF-GGA-C  ScalDFC         ....  1.000000
   Scaling of DF-LDA-C  ScalLDAC        ....  1.000000
   Perturbative correction              ....  0.000000
   Density functional embedding theory  .... OFF
 Long-range corrected/Screened/Range-Separated Hybrid DFT is turned on
   Amount of maximum screened exact exchange              ....  0.833000
   Range separation parameter mu (erf(mu*r12)/r12)        ....  0.300000
   NL short-range parameter             ....  6.000000
   NL long-range parameter              ....  0.010000


General Settings:
 Integral files         IntName         .... Ag01N0_F
 Hartree-Fock type      HFTyp           .... RHF
 Total Charge           Charge          ....    0
 Multiplicity           Mult            ....    1
 Number of Electrons    NEL             ....   28
 Basis Dimension        Dim             ....   96
 Nuclear Repulsion      ENuc            ....     45.7739121691 Eh

Convergence Acceleration:
 DIIS                   CNVDIIS         .... on
   Start iteration      DIISMaxIt       ....    12
   Startup error        DIISStart       ....  0.200000
   # of expansion vecs  DIISMaxEq       ....     5
   Bias factor          DIISBfac        ....   1.050
   Max. coefficient     DIISMaxC        ....  10.000
 Newton-Raphson         CNVNR           .... off
 SOSCF                  CNVSOSCF        .... off
 Level Shifting         CNVShift        .... on
   Level shift para.    LevelShift      ....    0.2500
   Turn off err/grad.   ShiftErr        ....    0.0010
 Zerner damping         CNVZerner       .... off
 Static damping         CNVDamp         .... on
   Fraction old density DampFac         ....    0.7000
   Max. Damping (<1)    DampMax         ....    0.9800
   Min. Damping (>=0)   DampMin         ....    0.0000
   Turn off err/grad.   DampErr         ....    0.1000
 Fernandez-Rico         CNVRico         .... off

SCF Procedure:
 Maximum # iterations   MaxIter         ....   125
 SCF integral mode      SCFMode         .... Direct
   Integral package                     .... LIBINT
 Reset frequency        DirectResetFreq ....    20
 Integral Threshold     Thresh          ....  2.500e-11 Eh
 Primitive CutOff       TCut            ....  2.500e-12 Eh

Convergence Tolerance:
 Convergence Check Mode ConvCheckMode   .... Total+1el-Energy
 Convergence forced     ConvForced      .... 0
 Energy Change          TolE            ....  1.000e-08 Eh
 1-El. energy change                    ....  1.000e-05 Eh
 DIIS Error             TolErr          ....  5.000e-07


Diagonalization of the overlap matrix:
Smallest eigenvalue                        ... 3.392e-03
Time for diagonalization                   ...    0.003 sec
Threshold for overlap eigenvalues          ... 1.000e-08
Number of eigenvalues below threshold      ... 0
Time for construction of square roots      ...    0.001 sec
Total time needed                          ...    0.004 sec

-------------------
DFT GRID GENERATION
-------------------

General Integration Accuracy     IntAcc      ...  4.670
Radial Grid Type                 RadialGrid  ... Gauss-Chebyshev
Angular Grid (max. acc.)         AngularGrid ... Lebedev-302
Angular grid pruning method      GridPruning ... 3 (G Style)
Weight generation scheme         WeightScheme... Becke
Basis function cutoff            BFCut       ...    1.0000e-11
Integration weight cutoff        WCut        ...    1.0000e-14
Grids for H and He will be reduced by one unit

# of grid points (after initial pruning)     ...  16930 (   0.0 sec)
# of grid points (after weights+screening)   ...  16875 (   0.0 sec)
nearest neighbour list constructed           ...    0.0 sec
Grid point re-assignment to atoms done       ...    0.0 sec
Grid point division into batches done        ...    0.1 sec
Reduced shell lists constructed in    0.1 sec

Total number of grid points                  ...    16875
Total number of batches                      ...      265
Average number of points per batch           ...       63
Average number of grid points per atom       ...     8438
Average number of shells per batch           ...     3.31 (11.03%)
Average number of basis functions per batch  ...     7.62 ( 7.93%)
Average number of large shells per batch     ...     2.08 (62.79%)
Average number of large basis fcns per batch ...     4.38 (57.58%)
Maximum spatial batch extension              ...  36.77, 40.43, 23.83 au
Average spatial batch extension              ...   1.19,  1.22,  0.86 au

Time for grid setup =    0.159 sec

------------------------------
INITIAL GUESS: MODEL POTENTIAL
------------------------------
Loading Hartree-Fock densities                     ... done
  calling /sw/apps/orca/orca_4_2_0_linux_x86-64_openmpi314/orca Ag01N0_F_atom47.inp > Ag01N0_F_atom47.out in order to generate an atomic fitting density for atom 0 (Ag with ECP) on-the-fly... 
    atom 0 (Ag), assumed electronic state with S=2: 1s2 2s2 2p6 3s2 3p6 4s2 3d10 4p6 5s2 4d9           ... done
Calculating cut-offs                               ... done
Setting up the integral package                    ... done
Initializing the effective Hamiltonian             ... done
Starting the Coulomb interaction                   ... done (   0.0 sec)
Reading the grid                                   ... done
Mapping shells                                     ... done
Starting the XC term evaluation                    ... done (   0.0 sec)
  promolecular density results
     # of electrons  =     56.001290403
     EX              =   -119.581161137
     EC              =     -3.665229886
     EX+EC           =   -123.246391023
Transforming the Hamiltonian                       ... done (   0.0 sec)
Diagonalizing the Hamiltonian                      ... done (   0.0 sec)
Back transforming the eigenvectors                 ... done (   0.0 sec)
Now organizing SCF variables                       ... done
                      ------------------
                      INITIAL GUESS DONE (   1.4 sec)
                      ------------------
--------------
SCF ITERATIONS
--------------
ITER       Energy         Delta-E        Max-DP      RMS-DP      [F,P]     Damp
               ***  Starting incremental Fock matrix formation  ***
  0   -246.8248705245   0.000000000000 0.04171340  0.00144399  0.3992762 0.7000
  1   -246.8598160227  -0.034945498209 0.03632384  0.00109339  0.2771033 0.7000
  2   -246.8773031173  -0.017487094601 0.02994119  0.00077261  0.2031633 0.7000
                               ***Turning on DIIS***
  3   -246.8882722293  -0.010969111977 0.02330570  0.00057707  0.1462502 0.7000
  4   -246.8960635200  -0.007791290735 0.01972113  0.00049344  0.1038318 0.7000
  5   -246.9017149236  -0.005651403511 0.05577518  0.00133076  0.0719387 0.0000
  6   -246.9162524026  -0.014537479010 0.00840570  0.00024255  0.0106525 0.0000
  7   -246.9165895269  -0.000337124347 0.00974008  0.00025169  0.0071084 0.0000
  8   -246.9168257312  -0.000236204280 0.00847826  0.00019887  0.0052956 0.0000
  9   -246.9169553271  -0.000129595882 0.00603177  0.00013629  0.0024424 0.0000
 10   -246.9170003158  -0.000044988744 0.00286734  0.00006624  0.0012960 0.0000
 11   -246.9170121572  -0.000011841394 0.00232688  0.00006039  0.0005522 0.0000
 12   -246.9170159800  -0.000003822810 0.00010618  0.00000388  0.0002371 0.0000
 13   -246.9170160410  -0.000000060976 0.00005996  0.00000226  0.0001360 0.0000
 14   -246.9170160651  -0.000000024066 0.00002939  0.00000101  0.0000213 0.0000
 15   -246.9170160672  -0.000000002134 0.00003920  0.00000073  0.0000165 0.0000
 16   -246.9170160680  -0.000000000785 0.00000418  0.00000020  0.0000081 0.0000
 17   -246.9170160680  -0.000000000040 0.00000887  0.00000016  0.0000040 0.0000
 18   -246.9170160681  -0.000000000083 0.00000549  0.00000011  0.0000017 0.0000
                 **** Energy Check signals convergence ****

               *****************************************************
               *                     SUCCESS                       *
               *           SCF CONVERGED AFTER  19 CYCLES          *
               *****************************************************


Setting up the DFT-NL grid :

General Integration Accuracy     IntAcc      ...  4.340
Radial Grid Type                 RadialGrid  ... Gauss-Chebyshev
Angular Grid (max. acc.)         AngularGrid ... Lebedev-110
Angular grid pruning method      GridPruning ... 3 (G Style)
Weight generation scheme         WeightScheme... Becke
Basis function cutoff            BFCut       ...    1.0000e-11
Integration weight cutoff        WCut        ...    1.0000e-14
Grids for H and He will be reduced by one unit

# of grid points (after initial pruning)     ...   4998 (   0.0 sec)
# of grid points (after weights+screening)   ...   4971 (   0.0 sec)
nearest neighbour list constructed           ...    0.0 sec
Grid point re-assignment to atoms done       ...    0.0 sec
Grid point division into batches done        ...    0.0 sec
Reduced shell lists constructed in    0.0 sec

Total number of grid points                  ...     4971
Total number of batches                      ...       79
Average number of points per batch           ...       62
Average number of grid points per atom       ...     2486
Average number of shells per batch           ...     8.00 (26.67%)
Average number of basis functions per batch  ...    20.80 (21.67%)
Average number of large shells per batch     ...     6.40 (80.00%)
Average number of large basis fcns per batch ...    17.60 (84.62%)
Maximum spatial batch extension              ...  48.08, 37.49, 25.79 au
Average spatial batch extension              ...   1.87,  1.60,  1.17 au

Final grid set up in    0.0 sec

-------------------------------------------------------------------------------
                         DFT-NL dispersion correction                          
-------------------------------------------------------------------------------

SC Energy -246.917016068 
NL    Energy 0.112846276 
SC+NL Energy -246.804169792 
NL done in    0.0 sec
-------------------------------------------------------------------------------

----------------
TOTAL SCF ENERGY
----------------

Total Energy       :         -246.80416979 Eh           -6715.88289 eV

Components:
Nuclear Repulsion  :           45.77391217 Eh            1245.57147 eV
Electronic Energy  :         -292.57808196 Eh           -7961.45436 eV
One Electron Energy:         -492.94489758 Eh          -13413.71260 eV
Two Electron Energy:          200.36681562 Eh            5452.25824 eV

Virial components:
Potential Energy   :         -402.88971774 Eh          -10963.18658 eV
Kinetic Energy     :          156.08554795 Eh            4247.30369 eV
Virial Ratio       :            2.58121090


DFT components:
N(Alpha)           :       14.000010777548 electrons
N(Beta)            :       14.000010777548 electrons
N(Total)           :       28.000021555096 electrons
E(X)               :      -15.772702602716 Eh       
E(C)               :       -1.311966605514 Eh       
NL Energy, E(C,NL) :        0.112846276456 Eh       
E(XC)              :      -16.971822931774 Eh       
DFET-embed. en.    :        0.000000000000 Eh       

---------------
SCF CONVERGENCE
---------------

  Last Energy change         ...   -3.6948e-12  Tolerance :   1.0000e-08
  Last MAX-Density change    ...    1.8577e-06  Tolerance :   1.0000e-07
  Last RMS-Density change    ...    3.9008e-08  Tolerance :   5.0000e-09
  Last DIIS Error            ...    9.8887e-07  Tolerance :   5.0000e-07

             **** THE GBW FILE WAS UPDATED (Ag01N0_F.gbw) ****
             **** DENSITY FILE WAS UPDATED (Ag01N0_F.scfp) ****
             **** ENERGY FILE WAS UPDATED (Ag01N0_F.en.tmp) ****
             **** THE GBW FILE WAS UPDATED (Ag01N0_F.gbw) ****
             **** DENSITY FILE WAS UPDATED (Ag01N0_F.scfp) ****
----------------
ORBITAL ENERGIES
----------------

  NO   OCC          E(Eh)            E(eV) 
   0   2.0000     -24.629537      -670.2038 
   1   2.0000      -3.870428      -105.3197 
   2   2.0000      -2.469724       -67.2046 
   3   2.0000      -2.469724       -67.2046 
   4   2.0000      -2.469665       -67.2030 
   5   2.0000      -1.153474       -31.3876 
   6   2.0000      -0.508171       -13.8280 
   7   2.0000      -0.484436       -13.1822 
   8   2.0000      -0.484436       -13.1822 
   9   2.0000      -0.467697       -12.7267 
  10   2.0000      -0.467697       -12.7267 
  11   2.0000      -0.392809       -10.6889 
  12   2.0000      -0.392809       -10.6889 
  13   2.0000      -0.385664       -10.4945 
  14   0.0000      -0.046355        -1.2614 
  15   0.0000       0.051921         1.4128 
  16   0.0000       0.051921         1.4128 
  17   0.0000       0.086474         2.3531 
  18   0.0000       0.141000         3.8368 
  19   0.0000       0.203074         5.5259 
  20   0.0000       0.212105         5.7717 
  21   0.0000       0.212105         5.7717 
  22   0.0000       0.263011         7.1569 
  23   0.0000       0.263011         7.1569 
  24   0.0000       0.316264         8.6060 
  25   0.0000       0.423014        11.5108 
  26   0.0000       0.477153        12.9840 
  27   0.0000       0.477153        12.9840 
  28   0.0000       0.564218        15.3531 
  29   0.0000       0.564218        15.3531 
  30   0.0000       0.604865        16.4592 
  31   0.0000       0.655966        17.8497 
  32   0.0000       0.655967        17.8498 
  33   0.0000       0.777915        21.1681 
  34   0.0000       0.777915        21.1681 
  35   0.0000       0.780178        21.2297 
  36   0.0000       0.920456        25.0469 
  37   0.0000       0.920456        25.0469 
  38   0.0000       1.182494        32.1773 
  39   0.0000       1.237249        33.6673 
  40   0.0000       1.670239        45.4495 
  41   0.0000       1.670239        45.4495 
  42   0.0000       1.683958        45.8228 
  43   0.0000       1.683958        45.8228 
  44   0.0000       1.686043        45.8796 
  45   0.0000       1.686044        45.8796 
  46   0.0000       1.759015        47.8652 
  47   0.0000       1.782400        48.5016 
  48   0.0000       1.782400        48.5016 
  49   0.0000       1.868864        50.8544 
  50   0.0000       2.083854        56.7045 
  51   0.0000       2.133004        58.0420 
  52   0.0000       2.133004        58.0420 
  53   0.0000       2.142216        58.2926 
  54   0.0000       2.142216        58.2926 
  55   0.0000       2.178610        59.2830 
  56   0.0000       2.448626        66.6305 
  57   0.0000       2.448632        66.6307 
  58   0.0000       2.524567        68.6970 
  59   0.0000       2.524567        68.6970 
  60   0.0000       2.898391        78.8692 
  61   0.0000       3.540240        96.3348 
  62   0.0000       3.540240        96.3348 
  63   0.0000       3.849382       104.7470 
  64   0.0000       4.258478       115.8791 
  65   0.0000       4.909885       133.6048 
  66   0.0000       4.909885       133.6048 
  67   0.0000       4.920728       133.8998 
  68   0.0000       4.920736       133.9000 
  69   0.0000       4.985242       135.6553 
  70   0.0000       4.985242       135.6553 
  71   0.0000       5.173537       140.7791 
  72   0.0000       5.641287       153.5072 
  73   0.0000       5.641287       153.5072 
  74   0.0000       5.641426       153.5110 
  75   0.0000       5.641431       153.5111 
  76   0.0000       5.642043       153.5278 
  77   0.0000       5.642069       153.5285 
  78   0.0000       5.644915       153.6059 
  79   0.0000       5.644915       153.6059 
  80   0.0000       5.709664       155.3678 
  81   0.0000       7.086074       192.8219 
  82   0.0000       7.086541       192.8346 
  83   0.0000       7.098553       193.1615 
  84   0.0000       7.098553       193.1615 
  85   0.0000       7.113929       193.5798 
  86   0.0000       7.113929       193.5798 
  87   0.0000       7.229932       196.7364 
  88   0.0000       8.659127       235.6268 
  89   0.0000       8.659153       235.6275 
  90   0.0000       8.694505       236.5895 
  91   0.0000       8.694505       236.5895 
  92   0.0000       8.892696       241.9826 
  93   0.0000      33.501810       911.6306 
  94   0.0000      57.091373      1553.5352 
  95   0.0000     110.890795      3017.4919 

                    ********************************
                    * MULLIKEN POPULATION ANALYSIS *
                    ********************************

-----------------------
MULLIKEN ATOMIC CHARGES
-----------------------
   0 Ag:    0.723465
   1 F :   -0.723465
Sum of atomic charges:    0.0000000

--------------------------------
MULLIKEN REDUCED ORBITAL CHARGES
--------------------------------
  0 Ags       :     2.253121  s :     2.253121
      pz      :     2.036518  p :     6.080918
      px      :     2.022200
      py      :     2.022200
      dz2     :     1.932422  d :     9.935596
      dxz     :     2.001331
      dyz     :     2.001331
      dx2y2   :     2.000256
      dxy     :     2.000256
      f0      :     0.003466  f :     0.006809
      f+1     :     0.001557
      f-1     :     0.001557
      f+2     :     0.000115
      f-2     :     0.000115
      f+3     :     0.000000
      f-3     :     0.000000
      g0      :     0.000051  g :     0.000091
      g+1     :     0.000020
      g-1     :     0.000020
      g+2     :     0.000000
      g-2     :     0.000000
      g+3     :     0.000000
      g-3     :     0.000000
      g+4     :     0.000000
      g-4     :     0.000000
  1 F s       :     3.989031  s :     3.989031
      pz      :     1.782163  p :     5.734031
      px      :     1.975934
      py      :     1.975934
      dz2     :     0.003182  d :     0.000297
      dxz     :    -0.001070
      dyz     :    -0.001070
      dx2y2   :    -0.000373
      dxy     :    -0.000373
      f0      :     0.000046  f :     0.000105
      f+1     :     0.000028
      f-1     :     0.000028
      f+2     :     0.000002
      f-2     :     0.000002
      f+3     :     0.000000
      f-3     :     0.000000


                     *******************************
                     * LOEWDIN POPULATION ANALYSIS *
                     *******************************

----------------------
LOEWDIN ATOMIC CHARGES
----------------------
   0 Ag:    0.727171
   1 F :   -0.727171

-------------------------------
LOEWDIN REDUCED ORBITAL CHARGES
-------------------------------
  0 Ags       :     2.154927  s :     2.154927
      pz      :     2.077682  p :     6.146337
      px      :     2.034327
      py      :     2.034327
      dz2     :     1.971184  d :     9.959425
      dxz     :     1.997019
      dyz     :     1.997019
      dx2y2   :     1.997102
      dxy     :     1.997102
      f0      :     0.006445  f :     0.011975
      f+1     :     0.002634
      f-1     :     0.002634
      f+2     :     0.000131
      f-2     :     0.000131
      f+3     :     0.000000
      f-3     :     0.000000
      g0      :     0.000096  g :     0.000165
      g+1     :     0.000034
      g-1     :     0.000034
      g+2     :     0.000000
      g-2     :     0.000000
      g+3     :     0.000000
      g-3     :     0.000000
      g+4     :     0.000000
      g-4     :     0.000000
  1 F s       :     3.885001  s :     3.885001
      pz      :     1.851970  p :     5.743937
      px      :     1.945983
      py      :     1.945983
      dz2     :     0.052573  d :     0.097969
      dxz     :     0.019936
      dyz     :     0.019936
      dx2y2   :     0.002762
      dxy     :     0.002762
      f0      :     0.000122  f :     0.000265
      f+1     :     0.000066
      f-1     :     0.000066
      f+2     :     0.000005
      f-2     :     0.000005
      f+3     :     0.000000
      f-3     :     0.000000


                      *****************************
                      * MAYER POPULATION ANALYSIS *
                      *****************************

  NA   - Mulliken gross atomic population
  ZA   - Total nuclear charge
  QA   - Mulliken gross atomic charge
  VA   - Mayer's total valence
  BVA  - Mayer's bonded valence
  FA   - Mayer's free valence

  ATOM       NA         ZA         QA         VA         BVA        FA
  0 Ag    18.2765    19.0000     0.7235     0.4500     0.4500     0.0000
  1 F      9.7235     9.0000    -0.7235     0.4500     0.4500     0.0000

  Mayer bond orders larger than 0.100000
B(  0-Ag,  1-F ) :   0.4500 

-------
TIMINGS
-------

Total SCF time: 0 days 0 hours 0 min 6 sec 

Total time                  ....       6.174 sec
Sum of individual times     ....       5.940 sec  ( 96.2%)

Fock matrix formation       ....       4.524 sec  ( 73.3%)
  XC integration            ....       0.516 sec  ( 11.4% of F)
    Basis function eval.    ....       0.037 sec  (  7.2% of XC)
    Density eval.           ....       0.020 sec  (  3.8% of XC)
    XC-Functional eval.     ....       0.025 sec  (  4.9% of XC)
    XC-Potential eval.      ....       0.026 sec  (  5.0% of XC)
Diagonalization             ....       0.025 sec  (  0.4%)
Density matrix formation    ....       0.006 sec  (  0.1%)
Population analysis         ....       0.003 sec  (  0.0%)
Initial guess               ....       1.194 sec  ( 19.3%)
Orbital Transformation      ....       0.000 sec  (  0.0%)
Orbital Orthonormalization  ....       0.000 sec  (  0.0%)
DIIS solution               ....       0.016 sec  (  0.3%)
Grid generation             ....       0.173 sec  (  2.8%)

-------------------------   --------------------
FINAL SINGLE POINT ENERGY      -246.804169791652
-------------------------   --------------------


----------------------------------------------------------------------------
                           ORCA NUMERICAL GRADIENT
                              (24-process run)
----------------------------------------------------------------------------

I state                        ... 1
J state                        ... 0
Number of atoms                ... 2
Derivative's order of accuracy ... 2
Central differences            ... used
Number of displacements        ... 12
Numerical increment            ... 5.000e-03 bohr
Translation invariance         ... used

The output will be reduced. Please look at the following files:
SCF program output             ... >Ag01N0_F.lastscf
Integral program output        ... >Ag01N0_F.lastint
Gradient program output        ... >Ag01N0_F.lastgrad


     Note:   There are more processes than displacements to do
     ===>:   Reducing number of processes to   3

             <<<Displacing   2/coordinate 3 (+)>>>
             <<<Displacing   2/coordinate 1 (+)>>>
             <<<Displacing   2/coordinate 2 (+)>>>
             <<<Displacing   2/coordinate 1 (-)>>>
             <<<Displacing   2/coordinate 2 (-)>>>
             <<<Displacing   2/coordinate 3 (-)>>>

------------------------------
CARTESIAN GRADIENT (NUMERICAL)
-------------------------------
   1   Ag  :   -0.000000001   -0.000000001   -0.004841215
   2   F   :    0.000000001    0.000000001    0.004841215

Norm of the cartesian gradient     ...    0.006846512
RMS gradient                       ...    0.002795077
MAX gradient                       ...    0.004841215

-------
TIMINGS
-------

Total numerical gradient time      ...       25.357 sec

------------------------------------------------------------------------------
                         ORCA GEOMETRY RELAXATION STEP
------------------------------------------------------------------------------

Reading the OPT-File                    .... done
Getting information on internals        .... done
Copying old internal coords+grads       .... done
Making the new internal coordinates     .... (new redundants).... done
Validating the new internal coordinates .... (new redundants).... done
Calculating the B-matrix                .... done
Calculating the G,G- and P matrices     .... done
Transforming gradient to internals      .... done
Projecting the internal gradient        .... done
Number of atoms                         ....   2
Number of internal coordinates          ....   1
Current Energy                          ....  -246.804169792 Eh
Current gradient norm                   ....     0.006846512 Eh/bohr
Maximum allowed component of the step   ....  0.300
Current trust radius                    ....  0.300
Evaluating the initial hessian          ....  (Almloef) done
Projecting the Hessian                  .... done
Forming the augmented Hessian           .... done
Diagonalizing the augmented Hessian     .... done
Last element of RFO vector              ....  0.999968431
Lowest eigenvalues of augmented Hessian:
 -0.000038469
Length of the computed step             ....  0.007946155
The final length of the internal step   ....  0.007946155
Converting the step to cartesian space:
 Initial RMS(Int)=    0.0079461554
Transforming coordinates:
 Iter   0:  RMS(Cart)=    0.0022938575 RMS(Int)=    0.0079461554
 Iter   1:  RMS(Cart)=    0.0000000000 RMS(Int)=    0.0000000000
done
Storing new coordinates                 .... done

                                .--------------------.
          ----------------------|Geometry convergence|-------------------------
          Item                value                   Tolerance       Converged
          ---------------------------------------------------------------------
          RMS gradient        0.0048412154            0.0001000000      NO
          MAX gradient        0.0048412154            0.0003000000      NO
          RMS step            0.0079461554            0.0020000000      NO
          MAX step            0.0079461554            0.0040000000      NO
          ........................................................
          Max(Bonds)      0.0042      Max(Angles)    0.00
          Max(Dihed)        0.00      Max(Improp)    0.00
          ---------------------------------------------------------------------

The optimization has not yet converged - more geometry cycles are needed


    ---------------------------------------------------------------------------
                         Redundant Internal Coordinates
                            (Angstroem and degrees)

        Definition                    Value    dE/dq     Step     New-Value
    ----------------------------------------------------------------------------
     1. B(F   1,Ag  0)                1.9769 -0.004841  0.0042    1.9811   
    ----------------------------------------------------------------------------

         *************************************************************
         *                GEOMETRY OPTIMIZATION CYCLE   2            *
         *************************************************************
---------------------------------
CARTESIAN COORDINATES (ANGSTROEM)
---------------------------------
  Ag     0.000000    0.000000    0.319814
  F      0.000000    0.000000   -1.661265

----------------------------
CARTESIAN COORDINATES (A.U.)
----------------------------
  NO LB      ZA    FRAG     MASS         X           Y           Z
   0 Ag   19.0000*   0   107.870    0.000000    0.000000    0.604362
   1 F     9.0000    0    18.998    0.000000    0.000000   -3.139337
* core charge reduced due to ECP

--------------------------------
INTERNAL COORDINATES (ANGSTROEM)
--------------------------------
 Ag     0   0   0     0.000000000000     0.00000000     0.00000000
 F      1   0   0     1.981079924322     0.00000000     0.00000000

---------------------------
INTERNAL COORDINATES (A.U.)
---------------------------
 Ag     0   0   0     0.000000000000     0.00000000     0.00000000
 F      1   0   0     3.743698506378     0.00000000     0.00000000



           ************************************************************
           *        Program running with 24 parallel MPI-processes    *
           *              working on a common directory               *
           ************************************************************


           ************************************************************
           *        Program running with 24 parallel MPI-processes    *
           *              working on a common directory               *
           ************************************************************

Diagonalization of the overlap matrix:
Smallest eigenvalue                        ... 3.425e-03
Time for diagonalization                   ...    0.003 sec
Threshold for overlap eigenvalues          ... 1.000e-08
Number of eigenvalues below threshold      ... 0
Time for construction of square roots      ...    0.001 sec
Total time needed                          ...    0.005 sec

-------------------
DFT GRID GENERATION
-------------------

General Integration Accuracy     IntAcc      ...  4.670
Radial Grid Type                 RadialGrid  ... Gauss-Chebyshev
Angular Grid (max. acc.)         AngularGrid ... Lebedev-302
Angular grid pruning method      GridPruning ... 3 (G Style)
Weight generation scheme         WeightScheme... Becke
Basis function cutoff            BFCut       ...    1.0000e-11
Integration weight cutoff        WCut        ...    1.0000e-14
Grids for H and He will be reduced by one unit

# of grid points (after initial pruning)     ...  16930 (   0.0 sec)
# of grid points (after weights+screening)   ...  16875 (   0.0 sec)
nearest neighbour list constructed           ...    0.0 sec
Grid point re-assignment to atoms done       ...    0.0 sec
Grid point division into batches done        ...    0.1 sec
Reduced shell lists constructed in    0.1 sec

Total number of grid points                  ...    16875
Total number of batches                      ...      265
Average number of points per batch           ...       63
Average number of grid points per atom       ...     8438
Average number of shells per batch           ...     3.31 (11.03%)
Average number of basis functions per batch  ...     7.62 ( 7.93%)
Average number of large shells per batch     ...     2.08 (62.79%)
Average number of large basis fcns per batch ...     4.38 (57.58%)
Maximum spatial batch extension              ...  36.77, 40.43, 23.83 au
Average spatial batch extension              ...   1.18,  1.24,  0.86 au

Time for grid setup =    0.162 sec

--------------
SCF ITERATIONS
--------------
ITER       Energy         Delta-E        Max-DP      RMS-DP      [F,P]     Damp
               ***  Starting incremental Fock matrix formation  ***
  0   -246.9170605682   0.000000000000 0.00012921  0.00000463  0.0065010 0.7000
  1   -246.9170611218  -0.000000553549 0.00010394  0.00000403  0.0045679 0.7000
                               ***Turning on DIIS***
  2   -246.9170615365  -0.000000414664 0.00024163  0.00001045  0.0032050 0.0000
  3   -246.9170626502  -0.000001113762 0.00024938  0.00000599  0.0001431 0.0000
  4   -246.9170627536  -0.000000103414 0.00010694  0.00000234  0.0001049 0.0000
  5   -246.9170627839  -0.000000030241 0.00016169  0.00000320  0.0000532 0.0000
  6   -246.9170628055  -0.000000021631 0.00008145  0.00000154  0.0000247 0.0000
  7   -246.9170628101  -0.000000004597 0.00002932  0.00000063  0.0000125 0.0000
  8   -246.9170628111  -0.000000001032 0.00001834  0.00000038  0.0000053 0.0000
                 **** Energy Check signals convergence ****

               *****************************************************
               *                     SUCCESS                       *
               *           SCF CONVERGED AFTER   9 CYCLES          *
               *****************************************************


Setting up the DFT-NL grid :

General Integration Accuracy     IntAcc      ...  4.340
Radial Grid Type                 RadialGrid  ... Gauss-Chebyshev
Angular Grid (max. acc.)         AngularGrid ... Lebedev-110
Angular grid pruning method      GridPruning ... 3 (G Style)
Weight generation scheme         WeightScheme... Becke
Basis function cutoff            BFCut       ...    1.0000e-11
Integration weight cutoff        WCut        ...    1.0000e-14
Grids for H and He will be reduced by one unit

# of grid points (after initial pruning)     ...   4998 (   0.0 sec)
# of grid points (after weights+screening)   ...   4971 (   0.0 sec)
nearest neighbour list constructed           ...    0.0 sec
Grid point re-assignment to atoms done       ...    0.0 sec
Grid point division into batches done        ...    0.0 sec
Reduced shell lists constructed in    0.0 sec

Total number of grid points                  ...     4971
Total number of batches                      ...       79
Average number of points per batch           ...       62
Average number of grid points per atom       ...     2486
Average number of shells per batch           ...     8.00 (26.67%)
Average number of basis functions per batch  ...    20.80 (21.67%)
Average number of large shells per batch     ...     6.40 (80.00%)
Average number of large basis fcns per batch ...    17.60 (84.62%)
Maximum spatial batch extension              ...  48.08, 37.49, 25.79 au
Average spatial batch extension              ...   1.87,  1.60,  1.17 au

Final grid set up in    0.0 sec

-------------------------------------------------------------------------------
                         DFT-NL dispersion correction                          
-------------------------------------------------------------------------------

SC Energy -246.917062811 
NL    Energy 0.112859844 
SC+NL Energy -246.804202967 
NL done in    0.0 sec
-------------------------------------------------------------------------------
Total Energy       :         -246.80420297 Eh           -6715.88379 eV
  Last Energy change         ...   -3.0337e-10  Tolerance :   1.0000e-08
  Last MAX-Density change    ...    3.5717e-06  Tolerance :   1.0000e-07
             **** THE GBW FILE WAS UPDATED (Ag01N0_F.gbw) ****
             **** DENSITY FILE WAS UPDATED (Ag01N0_F.scfp) ****
             **** ENERGY FILE WAS UPDATED (Ag01N0_F.en.tmp) ****
             **** THE GBW FILE WAS UPDATED (Ag01N0_F.gbw) ****
             **** DENSITY FILE WAS UPDATED (Ag01N0_F.scfp) ****
Total SCF time: 0 days 0 hours 0 min 2 sec 

-------------------------   --------------------
FINAL SINGLE POINT ENERGY      -246.804202967275
-------------------------   --------------------


----------------------------------------------------------------------------
                           ORCA NUMERICAL GRADIENT
                              (24-process run)
----------------------------------------------------------------------------

I state                        ... 1
J state                        ... 0
Number of atoms                ... 2
Derivative's order of accuracy ... 2
Central differences            ... used
Number of displacements        ... 12
Numerical increment            ... 5.000e-03 bohr
Translation invariance         ... used

The output will be reduced. Please look at the following files:
SCF program output             ... >Ag01N0_F.lastscf
Integral program output        ... >Ag01N0_F.lastint
Gradient program output        ... >Ag01N0_F.lastgrad


     Note:   There are more processes than displacements to do
     ===>:   Reducing number of processes to   3

             <<<Displacing   2/coordinate 2 (+)>>>
             <<<Displacing   2/coordinate 1 (+)>>>
             <<<Displacing   2/coordinate 3 (+)>>>
             <<<Displacing   2/coordinate 1 (-)>>>
             <<<Displacing   2/coordinate 2 (-)>>>
             <<<Displacing   2/coordinate 3 (-)>>>

------------------------------
CARTESIAN GRADIENT (NUMERICAL)
-------------------------------
   1   Ag  :   -0.000000000   -0.000000000   -0.003517005
   2   F   :    0.000000000    0.000000000    0.003517005

Norm of the cartesian gradient     ...    0.004973796
RMS gradient                       ...    0.002030544
MAX gradient                       ...    0.003517005

-------
TIMINGS
-------

Total numerical gradient time      ...       25.742 sec

------------------------------------------------------------------------------
                         ORCA GEOMETRY RELAXATION STEP
------------------------------------------------------------------------------

Reading the OPT-File                    .... done
Getting information on internals        .... done
Copying old internal coords+grads       .... done
Making the new internal coordinates     .... (new redundants).... done
Validating the new internal coordinates .... (new redundants).... done
Calculating the B-matrix                .... done
Calculating the G,G- and P matrices     .... done
Transforming gradient to internals      .... done
Projecting the internal gradient        .... done
Number of atoms                         ....   2
Number of internal coordinates          ....   1
Current Energy                          ....  -246.804202967 Eh
Current gradient norm                   ....     0.004973796 Eh/bohr
Maximum allowed component of the step   ....  0.300
Current trust radius                    ....  0.300
Updating the Hessian (BFGS)             .... done
Forming the augmented Hessian           .... done
Diagonalizing the augmented Hessian     .... done
Last element of RFO vector              ....  0.999777575
Lowest eigenvalues of augmented Hessian:
 -0.000074191
Length of the computed step             ....  0.021095001
The final length of the internal step   ....  0.021095001
Converting the step to cartesian space:
 Initial RMS(Int)=    0.0210950012
Transforming coordinates:
 Iter   0:  RMS(Cart)=    0.0060896023 RMS(Int)=    0.0210950012
 Iter   1:  RMS(Cart)=    0.0000000000 RMS(Int)=    0.0000000000
done
Storing new coordinates                 .... done

                                .--------------------.
          ----------------------|Geometry convergence|-------------------------
          Item                value                   Tolerance       Converged
          ---------------------------------------------------------------------
          Energy change      -0.0000331756            0.0000050000      NO
          RMS gradient        0.0035170046            0.0001000000      NO
          MAX gradient        0.0035170046            0.0003000000      NO
          RMS step            0.0210950012            0.0020000000      NO
          MAX step            0.0210950012            0.0040000000      NO
          ........................................................
          Max(Bonds)      0.0112      Max(Angles)    0.00
          Max(Dihed)        0.00      Max(Improp)    0.00
          ---------------------------------------------------------------------

The optimization has not yet converged - more geometry cycles are needed


    ---------------------------------------------------------------------------
                         Redundant Internal Coordinates
                            (Angstroem and degrees)

        Definition                    Value    dE/dq     Step     New-Value
    ----------------------------------------------------------------------------
     1. B(F   1,Ag  0)                1.9811 -0.003517  0.0112    1.9922   
    ----------------------------------------------------------------------------

         *************************************************************
         *                GEOMETRY OPTIMIZATION CYCLE   3            *
         *************************************************************


           ************************************************************
           *        Program running with 24 parallel MPI-processes    *
           *              working on a common directory               *
           ************************************************************


           ************************************************************
           *        Program running with 24 parallel MPI-processes    *
           *              working on a common directory               *
           ************************************************************

Diagonalization of the overlap matrix:
Smallest eigenvalue                        ... 3.515e-03
Time for diagonalization                   ...    0.003 sec
Threshold for overlap eigenvalues          ... 1.000e-08
Number of eigenvalues below threshold      ... 0
Time for construction of square roots      ...    0.001 sec
Total time needed                          ...    0.005 sec

-------------------
DFT GRID GENERATION
-------------------

General Integration Accuracy     IntAcc      ...  4.670
Radial Grid Type                 RadialGrid  ... Gauss-Chebyshev
Angular Grid (max. acc.)         AngularGrid ... Lebedev-302
Angular grid pruning method      GridPruning ... 3 (G Style)
Weight generation scheme         WeightScheme... Becke
Basis function cutoff            BFCut       ...    1.0000e-11
Integration weight cutoff        WCut        ...    1.0000e-14
Grids for H and He will be reduced by one unit

# of grid points (after initial pruning)     ...  16930 (   0.0 sec)
# of grid points (after weights+screening)   ...  16875 (   0.0 sec)
nearest neighbour list constructed           ...    0.0 sec
Grid point re-assignment to atoms done       ...    0.0 sec
Grid point division into batches done        ...    0.1 sec
Reduced shell lists constructed in    0.1 sec

Total number of grid points                  ...    16875
Total number of batches                      ...      265
Average number of points per batch           ...       63
Average number of grid points per atom       ...     8438
Average number of shells per batch           ...     3.31 (11.03%)
Average number of basis functions per batch  ...     7.62 ( 7.93%)
Average number of large shells per batch     ...     2.08 (62.79%)
Average number of large basis fcns per batch ...     4.38 (57.58%)
Maximum spatial batch extension              ...  36.77, 40.43, 23.83 au
Average spatial batch extension              ...   1.19,  1.22,  0.86 au

Time for grid setup =    0.174 sec

--------------
SCF ITERATIONS
--------------
ITER       Energy         Delta-E        Max-DP      RMS-DP      [F,P]     Damp
               ***  Starting incremental Fock matrix formation  ***
  0   -246.9171213467   0.000000000000 0.00033624  0.00001208  0.0170127 0.7000
  1   -246.9171251440  -0.000003797287 0.00027092  0.00001052  0.0119540 0.7000
                               ***Turning on DIIS***
  2   -246.9171279862  -0.000002842295 0.00063062  0.00002729  0.0083874 0.0000
  3   -246.9171356191  -0.000007632880 0.00065727  0.00001574  0.0003755 0.0000
  4   -246.9171363281  -0.000000708971 0.00027941  0.00000612  0.0002747 0.0000
  5   -246.9171365365  -0.000000208359 0.00042592  0.00000837  0.0001407 0.0000
  6   -246.9171366849  -0.000000148468 0.00021401  0.00000401  0.0000649 0.0000
  7   -246.9171367159  -0.000000030964 0.00007767  0.00000165  0.0000329 0.0000
  8   -246.9171367226  -0.000000006724 0.00004827  0.00000100  0.0000138 0.0000
  9   -246.9171367242  -0.000000001587 0.00000914  0.00000025  0.0000038 0.0000
                 **** Energy Check signals convergence ****

               *****************************************************
               *                     SUCCESS                       *
               *           SCF CONVERGED AFTER  10 CYCLES          *
               *****************************************************


Setting up the DFT-NL grid :

General Integration Accuracy     IntAcc      ...  4.340
Radial Grid Type                 RadialGrid  ... Gauss-Chebyshev
Angular Grid (max. acc.)         AngularGrid ... Lebedev-110
Angular grid pruning method      GridPruning ... 3 (G Style)
Weight generation scheme         WeightScheme... Becke
Basis function cutoff            BFCut       ...    1.0000e-11
Integration weight cutoff        WCut        ...    1.0000e-14
Grids for H and He will be reduced by one unit

# of grid points (after initial pruning)     ...   4998 (   0.0 sec)
# of grid points (after weights+screening)   ...   4971 (   0.0 sec)
nearest neighbour list constructed           ...    0.0 sec
Grid point re-assignment to atoms done       ...    0.0 sec
Grid point division into batches done        ...    0.0 sec
Reduced shell lists constructed in    0.0 sec

Total number of grid points                  ...     4971
Total number of batches                      ...       79
Average number of points per batch           ...       62
Average number of grid points per atom       ...     2486
Average number of shells per batch           ...     8.00 (26.67%)
Average number of basis functions per batch  ...    20.80 (21.67%)
Average number of large shells per batch     ...     6.40 (80.00%)
Average number of large basis fcns per batch ...    17.60 (84.62%)
Maximum spatial batch extension              ...  48.08, 37.49, 25.79 au
Average spatial batch extension              ...   1.87,  1.60,  1.17 au

Final grid set up in    0.0 sec

-------------------------------------------------------------------------------
                         DFT-NL dispersion correction                          
-------------------------------------------------------------------------------

SC Energy -246.917136724 
NL    Energy 0.112895645 
SC+NL Energy -246.804241080 
NL done in    0.0 sec
-------------------------------------------------------------------------------
Total Energy       :         -246.80424108 Eh           -6715.88483 eV
  Last Energy change         ...   -2.7313e-11  Tolerance :   1.0000e-08
  Last MAX-Density change    ...    2.5979e-06  Tolerance :   1.0000e-07
             **** THE GBW FILE WAS UPDATED (Ag01N0_F.gbw) ****
             **** DENSITY FILE WAS UPDATED (Ag01N0_F.scfp) ****
             **** ENERGY FILE WAS UPDATED (Ag01N0_F.en.tmp) ****
             **** THE GBW FILE WAS UPDATED (Ag01N0_F.gbw) ****
             **** DENSITY FILE WAS UPDATED (Ag01N0_F.scfp) ****
Total SCF time: 0 days 0 hours 0 min 3 sec 

-------------------------   --------------------
FINAL SINGLE POINT ENERGY      -246.804241079690
-------------------------   --------------------


----------------------------------------------------------------------------
                           ORCA NUMERICAL GRADIENT
                              (24-process run)
----------------------------------------------------------------------------

I state                        ... 1
J state                        ... 0
Number of atoms                ... 2
Derivative's order of accuracy ... 2
Central differences            ... used
Number of displacements        ... 12
Numerical increment            ... 5.000e-03 bohr
Translation invariance         ... used

The output will be reduced. Please look at the following files:
SCF program output             ... >Ag01N0_F.lastscf
Integral program output        ... >Ag01N0_F.lastint
Gradient program output        ... >Ag01N0_F.lastgrad


     Note:   There are more processes than displacements to do
     ===>:   Reducing number of processes to   3

             <<<Displacing   2/coordinate 3 (+)>>>
             <<<Displacing   2/coordinate 1 (+)>>>
             <<<Displacing   2/coordinate 2 (+)>>>
             <<<Displacing   2/coordinate 2 (-)>>>
             <<<Displacing   2/coordinate 1 (-)>>>
             <<<Displacing   2/coordinate 3 (-)>>>

------------------------------
CARTESIAN GRADIENT (NUMERICAL)
-------------------------------
   1   Ag  :    0.000000000   -0.000000000   -0.000132294
   2   F   :   -0.000000000    0.000000000    0.000132294

Norm of the cartesian gradient     ...    0.000187092
RMS gradient                       ...    0.000076380
MAX gradient                       ...    0.000132294

-------
TIMINGS
-------

Total numerical gradient time      ...       25.754 sec

------------------------------------------------------------------------------
                         ORCA GEOMETRY RELAXATION STEP
------------------------------------------------------------------------------

Reading the OPT-File                    .... done
Getting information on internals        .... done
Copying old internal coords+grads       .... done
Making the new internal coordinates     .... (new redundants).... done
Validating the new internal coordinates .... (new redundants).... done
Calculating the B-matrix                .... done
Calculating the G,G- and P matrices     .... done
Transforming gradient to internals      .... done
Projecting the internal gradient        .... done
Number of atoms                         ....   2
Number of internal coordinates          ....   1
Current Energy                          ....  -246.804241080 Eh
Current gradient norm                   ....     0.000187092 Eh/bohr
Maximum allowed component of the step   ....  0.300
Current trust radius                    ....  0.300
Updating the Hessian (BFGS)             .... done
Forming the augmented Hessian           .... done
Diagonalizing the augmented Hessian     .... done
Last element of RFO vector              ....  0.999999660
Lowest eigenvalues of augmented Hessian:
 -0.000000109
Length of the computed step             ....  0.000824512
The final length of the internal step   ....  0.000824512
Converting the step to cartesian space:
 Initial RMS(Int)=    0.0008245122
Transforming coordinates:
 Iter   0:  RMS(Cart)=    0.0002380162 RMS(Int)=    0.0008245122
 Iter   1:  RMS(Cart)=    0.0000000000 RMS(Int)=    0.0000000000
done
Storing new coordinates                 .... done

                                .--------------------.
          ----------------------|Geometry convergence|-------------------------
          Item                value                   Tolerance       Converged
          ---------------------------------------------------------------------
          Energy change      -0.0000381124            0.0000050000      NO
          RMS gradient        0.0001322938            0.0001000000      NO
          MAX gradient        0.0001322938            0.0003000000      YES
          RMS step            0.0008245122            0.0020000000      YES
          MAX step            0.0008245122            0.0040000000      YES
          ........................................................
          Max(Bonds)      0.0004      Max(Angles)    0.00
          Max(Dihed)        0.00      Max(Improp)    0.00
          ---------------------------------------------------------------------

The optimization has not yet converged - more geometry cycles are needed


    ---------------------------------------------------------------------------
                         Redundant Internal Coordinates
                            (Angstroem and degrees)

        Definition                    Value    dE/dq     Step     New-Value
    ----------------------------------------------------------------------------
     1. B(F   1,Ag  0)                1.9922 -0.000132  0.0004    1.9927   
    ----------------------------------------------------------------------------

         *************************************************************
         *                GEOMETRY OPTIMIZATION CYCLE   4            *
         *************************************************************


           ************************************************************
           *        Program running with 24 parallel MPI-processes    *
           *              working on a common directory               *
           ************************************************************


           ************************************************************
           *        Program running with 24 parallel MPI-processes    *
           *              working on a common directory               *
           ************************************************************

Diagonalization of the overlap matrix:
Smallest eigenvalue                        ... 3.519e-03
Time for diagonalization                   ...    0.003 sec
Threshold for overlap eigenvalues          ... 1.000e-08
Number of eigenvalues below threshold      ... 0
Time for construction of square roots      ...    0.001 sec
Total time needed                          ...    0.005 sec

-------------------
DFT GRID GENERATION
-------------------

General Integration Accuracy     IntAcc      ...  4.670
Radial Grid Type                 RadialGrid  ... Gauss-Chebyshev
Angular Grid (max. acc.)         AngularGrid ... Lebedev-302
Angular grid pruning method      GridPruning ... 3 (G Style)
Weight generation scheme         WeightScheme... Becke
Basis function cutoff            BFCut       ...    1.0000e-11
Integration weight cutoff        WCut        ...    1.0000e-14
Grids for H and He will be reduced by one unit

# of grid points (after initial pruning)     ...  16930 (   0.0 sec)
# of grid points (after weights+screening)   ...  16875 (   0.0 sec)
nearest neighbour list constructed           ...    0.0 sec
Grid point re-assignment to atoms done       ...    0.0 sec
Grid point division into batches done        ...    0.1 sec
Reduced shell lists constructed in    0.1 sec

Total number of grid points                  ...    16875
Total number of batches                      ...      265
Average number of points per batch           ...       63
Average number of grid points per atom       ...     8438
Average number of shells per batch           ...     3.31 (11.03%)
Average number of basis functions per batch  ...     7.62 ( 7.93%)
Average number of large shells per batch     ...     2.08 (62.79%)
Average number of large basis fcns per batch ...     4.38 (57.58%)
Maximum spatial batch extension              ...  36.77, 40.43, 23.83 au
Average spatial batch extension              ...   1.20,  1.22,  0.86 au

Time for grid setup =    0.159 sec

--------------
SCF ITERATIONS
--------------
ITER       Energy         Delta-E        Max-DP      RMS-DP      [F,P]     Damp
               ***  Starting incremental Fock matrix formation  ***
  0   -246.9171381479   0.000000000000 0.00001302  0.00000047  0.0006570 0.7000
  1   -246.9171381537  -0.000000005775 0.00001051  0.00000041  0.0004616 0.7000
                               ***Turning on DIIS***
  2   -246.9171381580  -0.000000004327 0.00002350  0.00000110  0.0003239 0.0000
  3   -246.9171381697  -0.000000011702 0.00002396  0.00000055  0.0000133 0.0000
  4   -246.9171381708  -0.000000001012 0.00001179  0.00000025  0.0000098 0.0000
  5   -246.9171381710  -0.000000000270 0.00001408  0.00000028  0.0000044 0.0000
  6   -246.9171381713  -0.000000000243 0.00000753  0.00000014  0.0000025 0.0000
  7   -246.9171381713  -0.000000000011 0.00000271  0.00000006  0.0000011 0.0000
                 **** Energy Check signals convergence ****

               *****************************************************
               *                     SUCCESS                       *
               *           SCF CONVERGED AFTER   8 CYCLES          *
               *****************************************************


Setting up the DFT-NL grid :

General Integration Accuracy     IntAcc      ...  4.340
Radial Grid Type                 RadialGrid  ... Gauss-Chebyshev
Angular Grid (max. acc.)         AngularGrid ... Lebedev-110
Angular grid pruning method      GridPruning ... 3 (G Style)
Weight generation scheme         WeightScheme... Becke
Basis function cutoff            BFCut       ...    1.0000e-11
Integration weight cutoff        WCut        ...    1.0000e-14
Grids for H and He will be reduced by one unit

# of grid points (after initial pruning)     ...   4998 (   0.0 sec)
# of grid points (after weights+screening)   ...   4971 (   0.0 sec)
nearest neighbour list constructed           ...    0.0 sec
Grid point re-assignment to atoms done       ...    0.0 sec
Grid point division into batches done        ...    0.0 sec
Reduced shell lists constructed in    0.0 sec

Total number of grid points                  ...     4971
Total number of batches                      ...       79
Average number of points per batch           ...       62
Average number of grid points per atom       ...     2486
Average number of shells per batch           ...     8.00 (26.67%)
Average number of basis functions per batch  ...    20.80 (21.67%)
Average number of large shells per batch     ...     6.40 (80.00%)
Average number of large basis fcns per batch ...    17.60 (84.62%)
Maximum spatial batch extension              ...  48.08, 37.49, 25.79 au
Average spatial batch extension              ...   1.87,  1.60,  1.17 au

Final grid set up in    0.0 sec

-------------------------------------------------------------------------------
                         DFT-NL dispersion correction                          
-------------------------------------------------------------------------------

SC Energy -246.917138171 
NL    Energy 0.112897039 
SC+NL Energy -246.804241132 
NL done in    0.0 sec
-------------------------------------------------------------------------------
Total Energy       :         -246.80424113 Eh           -6715.88483 eV
  Last Energy change         ...   -5.4257e-11  Tolerance :   1.0000e-08
  Last MAX-Density change    ...    1.6681e-06  Tolerance :   1.0000e-07
             **** THE GBW FILE WAS UPDATED (Ag01N0_F.gbw) ****
             **** DENSITY FILE WAS UPDATED (Ag01N0_F.scfp) ****
             **** ENERGY FILE WAS UPDATED (Ag01N0_F.en.tmp) ****
             **** THE GBW FILE WAS UPDATED (Ag01N0_F.gbw) ****
             **** DENSITY FILE WAS UPDATED (Ag01N0_F.scfp) ****
Total SCF time: 0 days 0 hours 0 min 2 sec 

-------------------------   --------------------
FINAL SINGLE POINT ENERGY      -246.804241131928
-------------------------   --------------------


----------------------------------------------------------------------------
                           ORCA NUMERICAL GRADIENT
                              (24-process run)
----------------------------------------------------------------------------

I state                        ... 1
J state                        ... 0
Number of atoms                ... 2
Derivative's order of accuracy ... 2
Central differences            ... used
Number of displacements        ... 12
Numerical increment            ... 5.000e-03 bohr
Translation invariance         ... used

The output will be reduced. Please look at the following files:
SCF program output             ... >Ag01N0_F.lastscf
Integral program output        ... >Ag01N0_F.lastint
Gradient program output        ... >Ag01N0_F.lastgrad


     Note:   There are more processes than displacements to do
     ===>:   Reducing number of processes to   3

             <<<Displacing   2/coordinate 3 (+)>>>
             <<<Displacing   2/coordinate 2 (+)>>>
             <<<Displacing   2/coordinate 1 (+)>>>
             <<<Displacing   2/coordinate 1 (-)>>>
             <<<Displacing   2/coordinate 2 (-)>>>
             <<<Displacing   2/coordinate 3 (-)>>>

------------------------------
CARTESIAN GRADIENT (NUMERICAL)
-------------------------------
   1   Ag  :    0.000000007    0.000000005   -0.000003811
   2   F   :   -0.000000007   -0.000000005    0.000003811

Norm of the cartesian gradient     ...    0.000005390
RMS gradient                       ...    0.000002200
MAX gradient                       ...    0.000003811

-------
TIMINGS
-------

Total numerical gradient time      ...       25.580 sec

------------------------------------------------------------------------------
                         ORCA GEOMETRY RELAXATION STEP
------------------------------------------------------------------------------

Reading the OPT-File                    .... done
Getting information on internals        .... done
Copying old internal coords+grads       .... done
Making the new internal coordinates     .... (new redundants).... done
Validating the new internal coordinates .... (new redundants).... done
Calculating the B-matrix                .... done
Calculating the G,G- and P matrices     .... done
Transforming gradient to internals      .... done
Projecting the internal gradient        .... done
Number of atoms                         ....   2
Number of internal coordinates          ....   1
Current Energy                          ....  -246.804241132 Eh
Current gradient norm                   ....     0.000005390 Eh/bohr
Maximum allowed component of the step   ....  0.300
Current trust radius                    ....  0.300
Updating the Hessian (BFGS)             .... done
Forming the augmented Hessian           .... done
Diagonalizing the augmented Hessian     .... done
Last element of RFO vector              ....  1.000000000
Lowest eigenvalues of augmented Hessian:
 -0.000000000
Length of the computed step             ....  0.000024458
The final length of the internal step   ....  0.000024458
Converting the step to cartesian space:
 Initial RMS(Int)=    0.0000244578
Transforming coordinates:
 Iter   0:  RMS(Cart)=    0.0000070604 RMS(Int)=    0.0000244578
 Iter   1:  RMS(Cart)=    0.0000000000 RMS(Int)=    0.0000000000
done
Storing new coordinates                 .... done

                                .--------------------.
          ----------------------|Geometry convergence|-------------------------
          Item                value                   Tolerance       Converged
          ---------------------------------------------------------------------
          Energy change      -0.0000000522            0.0000050000      YES
          RMS gradient        0.0000038112            0.0001000000      YES
          MAX gradient        0.0000038112            0.0003000000      YES
          RMS step            0.0000244578            0.0020000000      YES
          MAX step            0.0000244578            0.0040000000      YES
          ........................................................
          Max(Bonds)      0.0000      Max(Angles)    0.00
          Max(Dihed)        0.00      Max(Improp)    0.00
          ---------------------------------------------------------------------

                    ***********************HURRAY********************
                    ***        THE OPTIMIZATION HAS CONVERGED     ***
                    *************************************************


    ---------------------------------------------------------------------------
                         Redundant Internal Coordinates

                          --- Optimized Parameters ---  
                            (Angstroem and degrees)

        Definition                    OldVal   dE/dq     Step     FinalVal
    ----------------------------------------------------------------------------
     1. B(F   1,Ag  0)                1.9927 -0.000004  0.0000    1.9927   
    ----------------------------------------------------------------------------
                 *******************************************************
                 *** FINAL ENERGY EVALUATION AT THE STATIONARY POINT ***
                 ***               (AFTER    4 CYCLES)               ***
                 *******************************************************
---------------------------------
CARTESIAN COORDINATES (ANGSTROEM)
---------------------------------
  Ag     0.000000    0.000000    0.325621
  F      0.000000    0.000000   -1.667072

----------------------------
CARTESIAN COORDINATES (A.U.)
----------------------------
  NO LB      ZA    FRAG     MASS         X           Y           Z
   0 Ag   19.0000*   0   107.870    0.000000    0.000000    0.615334
   1 F     9.0000    0    18.998    0.000000    0.000000   -3.150309
* core charge reduced due to ECP

--------------------------------
INTERNAL COORDINATES (ANGSTROEM)
--------------------------------
 Ag     0   0   0     0.000000000000     0.00000000     0.00000000
 F      1   0   0     1.992692173745     0.00000000     0.00000000

---------------------------
INTERNAL COORDINATES (A.U.)
---------------------------
 Ag     0   0   0     0.000000000000     0.00000000     0.00000000
 F      1   0   0     3.765642477587     0.00000000     0.00000000

---------------------
BASIS SET INFORMATION
---------------------
There are 2 groups of distinct atoms

 Group   1 Type Ag  : 7s7p6d2f1g contracted to 6s4p3d2f1g pattern {211111/4111/411/11/1}
 Group   2 Type F   : 12s7p3d1f contracted to 6s4p3d1f pattern {621111/4111/111/1}

Atom   0Ag   basis set group =>   1
Atom   1F    basis set group =>   2
----------------------------------
AUXILIARY/JK BASIS SET INFORMATION
----------------------------------
There are 2 groups of distinct atoms

 Group   1 Type Ag  : 13s12p10d9f6g3h2i contracted to 11s10p9d8f6g3h2i pattern {31111111111/3111111111/211111111/21111111/111111/111/11}
 Group   2 Type F   : 14s10p6d2f1g contracted to 10s8p4d2f1g pattern {5111111111/31111111/3111/11/1}

Atom   0Ag   basis set group =>   1
Atom   1F    basis set group =>   2
-------------------------
ECP PARAMETER INFORMATION
-------------------------

 Group 1, Type Ag ECP Def2-ECP (replacing 28 core electrons, lmax=3)

Atom   0Ag   ECP group =>   1



           ************************************************************
           *        Program running with 24 parallel MPI-processes    *
           *              working on a common directory               *
           ************************************************************
------------------------------------------------------------------------------
                           ORCA GTO INTEGRAL CALCULATION
------------------------------------------------------------------------------

                         BASIS SET STATISTICS AND STARTUP INFO

 # of primitive gaussian shells          ...   46
 # of primitive gaussian functions       ...  136
[...]
  14   0.0000      -0.047296        -1.2870 
  15   0.0000       0.051479         1.4008 
  16   0.0000       0.051479         1.4008 
  17   0.0000       0.086094         2.3427 
  18   0.0000       0.140517         3.8237 
  19   0.0000       0.203475         5.5368 
  20   0.0000       0.212388         5.7794 
  21   0.0000       0.212388         5.7794 
  22   0.0000       0.262422         7.1409 
  23   0.0000       0.262422         7.1409 
  24   0.0000       0.315109         8.5745 
  25   0.0000       0.421338        11.4652 
  26   0.0000       0.476685        12.9713 
  27   0.0000       0.476685        12.9713 
  28   0.0000       0.562829        15.3153 
  29   0.0000       0.562829        15.3153 
  30   0.0000       0.605800        16.4847 
  31   0.0000       0.656232        17.8570 
  32   0.0000       0.656233        17.8570 
  33   0.0000       0.778511        21.1844 
  34   0.0000       0.778511        21.1844 
  35   0.0000       0.779765        21.2185 
  36   0.0000       0.919469        25.0200 
  37   0.0000       0.919469        25.0200 
  38   0.0000       1.183093        32.1936 
  39   0.0000       1.233349        33.5611 
  40   0.0000       1.669249        45.4226 
  41   0.0000       1.669249        45.4226 
  42   0.0000       1.683579        45.8125 
  43   0.0000       1.683579        45.8125 
  44   0.0000       1.684628        45.8411 
  45   0.0000       1.684630        45.8411 
  46   0.0000       1.758261        47.8447 
  47   0.0000       1.781170        48.4681 
  48   0.0000       1.781170        48.4681 
  49   0.0000       1.873671        50.9852 
  50   0.0000       2.080383        56.6101 
  51   0.0000       2.132314        58.0232 
  52   0.0000       2.132314        58.0232 
  53   0.0000       2.144935        58.3666 
  54   0.0000       2.144935        58.3666 
  55   0.0000       2.180039        59.3219 
  56   0.0000       2.450428        66.6795 
  57   0.0000       2.450431        66.6796 
  58   0.0000       2.520804        68.5946 
  59   0.0000       2.520804        68.5946 
  60   0.0000       2.878727        78.3341 
  61   0.0000       3.540986        96.3551 
  62   0.0000       3.540986        96.3551 
  63   0.0000       3.844999       104.6278 
  64   0.0000       4.260467       115.9332 
  65   0.0000       4.909109       133.5837 
  66   0.0000       4.909109       133.5837 
  67   0.0000       4.919724       133.8725 
  68   0.0000       4.919733       133.8727 
  69   0.0000       4.982614       135.5838 
  70   0.0000       4.982614       135.5838 
  71   0.0000       5.164745       140.5398 
  72   0.0000       5.640472       153.4850 
  73   0.0000       5.640472       153.4850 
  74   0.0000       5.640740       153.4923 
  75   0.0000       5.640745       153.4925 
  76   0.0000       5.641078       153.5015 
  77   0.0000       5.641103       153.5022 
  78   0.0000       5.644083       153.5833 
  79   0.0000       5.644083       153.5833 
  80   0.0000       5.700000       155.1049 
  81   0.0000       7.088201       192.8798 
  82   0.0000       7.088705       192.8935 
  83   0.0000       7.100579       193.2166 
  84   0.0000       7.100579       193.2166 
  85   0.0000       7.112469       193.5401 
  86   0.0000       7.112469       193.5401 
  87   0.0000       7.222731       196.5405 
  88   0.0000       8.660854       235.6738 
  89   0.0000       8.660951       235.6765 
  90   0.0000       8.693764       236.5693 
  91   0.0000       8.693764       236.5693 
  92   0.0000       8.878584       241.5986 
  93   0.0000      33.499840       911.5770 
  94   0.0000      57.089119      1553.4739 
  95   0.0000     110.889775      3017.4642 

                    ********************************
                    * MULLIKEN POPULATION ANALYSIS *
                    ********************************

-----------------------
MULLIKEN ATOMIC CHARGES
-----------------------
   0 Ag:    0.722304
   1 F :   -0.722304
Sum of atomic charges:    0.0000000

--------------------------------
MULLIKEN REDUCED ORBITAL CHARGES
--------------------------------
  0 Ags       :     2.250245  s :     2.250245
      pz      :     2.037656  p :     6.081019
      px      :     2.021681
      py      :     2.021681
      dz2     :     1.936229  d :     9.939895
      dxz     :     2.001585
      dyz     :     2.001585
      dx2y2   :     2.000248
      dxy     :     2.000248
      f0      :     0.003299  f :     0.006452
      f+1     :     0.001463
      f-1     :     0.001463
      f+2     :     0.000114
      f-2     :     0.000114
      f+3     :     0.000000
      f-3     :     0.000000
      g0      :     0.000048  g :     0.000084
      g+1     :     0.000018
      g-1     :     0.000018
      g+2     :     0.000000
      g-2     :     0.000000
      g+3     :     0.000000
      g-3     :     0.000000
      g+4     :     0.000000
      g-4     :     0.000000
  1 F s       :     3.988750  s :     3.988750
      pz      :     1.780618  p :     5.733301
      px      :     1.976341
      py      :     1.976341
      dz2     :     0.003112  d :     0.000155
      dxz     :    -0.001114
      dyz     :    -0.001114
      dx2y2   :    -0.000364
      dxy     :    -0.000364
      f0      :     0.000042  f :     0.000097
      f+1     :     0.000026
      f-1     :     0.000026
      f+2     :     0.000002
      f-2     :     0.000002
      f+3     :     0.000000
      f-3     :     0.000000


                     *******************************
                     * LOEWDIN POPULATION ANALYSIS *
                     *******************************

----------------------
LOEWDIN ATOMIC CHARGES
----------------------
   0 Ag:    0.728017
   1 F :   -0.728017

-------------------------------
LOEWDIN REDUCED ORBITAL CHARGES
-------------------------------
  0 Ags       :     2.153821  s :     2.153821
      pz      :     2.077116  p :     6.144153
      px      :     2.033519
      py      :     2.033519
      dz2     :     1.973912  d :     9.962642
      dxz     :     1.997106
      dyz     :     1.997106
      dx2y2   :     1.997259
      dxy     :     1.997259
      f0      :     0.006031  f :     0.011216
      f+1     :     0.002463
      f-1     :     0.002463
      f+2     :     0.000130
      f-2     :     0.000130
      f+3     :     0.000000
      f-3     :     0.000000
      g0      :     0.000087  g :     0.000150
      g+1     :     0.000031
      g-1     :     0.000031
      g+2     :     0.000000
      g-2     :     0.000000
      g+3     :     0.000000
      g-3     :     0.000000
      g+4     :     0.000000
      g-4     :     0.000000
  1 F s       :     3.888032  s :     3.888032
      pz      :     1.850032  p :     5.744982
      px      :     1.947475
      py      :     1.947475
      dz2     :     0.050857  d :     0.094763
      dxz     :     0.019346
      dyz     :     0.019346
      dx2y2   :     0.002607
      dxy     :     0.002607
      f0      :     0.000112  f :     0.000241
      f+1     :     0.000060
      f-1     :     0.000060
      f+2     :     0.000005
      f-2     :     0.000005
      f+3     :     0.000000
      f-3     :     0.000000


                      *****************************
                      * MAYER POPULATION ANALYSIS *
                      *****************************

  NA   - Mulliken gross atomic population
  ZA   - Total nuclear charge
  QA   - Mulliken gross atomic charge
  VA   - Mayer's total valence
  BVA  - Mayer's bonded valence
  FA   - Mayer's free valence

  ATOM       NA         ZA         QA         VA         BVA        FA
  0 Ag    18.2777    19.0000     0.7223     0.4497     0.4497     0.0000
  1 F      9.7223     9.0000    -0.7223     0.4497     0.4497     0.0000

  Mayer bond orders larger than 0.100000
B(  0-Ag,  1-F ) :   0.4497 

-------
TIMINGS
-------

Total SCF time: 0 days 0 hours 0 min 0 sec 

Total time                  ....       0.924 sec
Sum of individual times     ....       0.680 sec  ( 73.6%)

Fock matrix formation       ....       0.498 sec  ( 53.9%)
  XC integration            ....       0.037 sec  (  7.5% of F)
    Basis function eval.    ....       0.004 sec  ( 10.6% of XC)
    Density eval.           ....       0.002 sec  (  5.7% of XC)
    XC-Functional eval.     ....       0.002 sec  (  6.5% of XC)
    XC-Potential eval.      ....       0.002 sec  (  6.1% of XC)
Diagonalization             ....       0.002 sec  (  0.3%)
Density matrix formation    ....       0.001 sec  (  0.1%)
Population analysis         ....       0.003 sec  (  0.3%)
Initial guess               ....       0.005 sec  (  0.6%)
Orbital Transformation      ....       0.000 sec  (  0.0%)
Orbital Orthonormalization  ....       0.002 sec  (  0.2%)
DIIS solution               ....       0.000 sec  (  0.0%)
Grid generation             ....       0.170 sec  ( 18.4%)

-------------------------   --------------------
FINAL SINGLE POINT ENERGY      -246.804241133960
-------------------------   --------------------

                                *** OPTIMIZATION RUN DONE ***

                            ***************************************
                            *     ORCA property calculations      *
                            ***************************************

                                    ---------------------
                                    Active property flags
                                    ---------------------
   (+) Dipole Moment


------------------------------------------------------------------------------
                       ORCA ELECTRIC PROPERTIES CALCULATION
------------------------------------------------------------------------------

Dipole Moment Calculation                       ... on
Quadrupole Moment Calculation                   ... off
Polarizability Calculation                      ... off
GBWName                                         ... Ag01N0_F.gbw
Electron density file                           ... Ag01N0_F.scfp
The origin for moment calculation is the CENTER OF MASS  = ( 0.000000,  0.000000  0.051443)

-------------
DIPOLE MOMENT
-------------
                                X             Y             Z
Electronic contribution:      0.00000       0.00000      20.51775
Nuclear contribution   :      0.00000       0.00000     -18.10184
                        -----------------------------------------
Total Dipole Moment    :      0.00000       0.00000       2.41591
                        -----------------------------------------
Magnitude (a.u.)       :      2.41591
Magnitude (Debye)      :      6.14074



--------------------
Rotational spectrum 
--------------------
 
Rotational constants in cm-1:     0.000000     0.262821     0.262821 
Rotational constants in MHz :     0.000000  7879.174251  7879.174251 

 Dipole components along the rotational axes: 
x,y,z [a.u.] :     2.415906     0.000000     0.000000 
x,y,z [Debye]:     6.140745     0.000000     0.000000 

 

----------------------------------------------------------------------------
                           ORCA NUMERICAL FREQUENCIES
                              (24-process run)
----------------------------------------------------------------------------

Number of atoms                ... 2
Central differences            ... used
Number of displacements        ... 12
Numerical increment            ... 5.000e-03 bohr
IR-spectrum generation         ... on
Raman-spectrum generation      ... off
Surface Crossing Hessian       ... off

 WARNING: There are more processes than displacements to do
  ====> : Reducing number of processes to   6

The output will be reduced. Please look at the following files:
SCF program output             ... >Ag01N0_F.lastscf
Integral program output        ... >Ag01N0_F.lastint
Gradient program output        ... >Ag01N0_F.lastgrad
Dipole moment program output   ... >Ag01N0_F.lastmom
AutoCI program output          ... >Ag01N0_F.lastautoci


         <<< Energy and Gradient at the input geometry >>>

        <<< Energy and Gradient at displaced geometries >>>
             <<<Displacing   1/coordinate 1 (+)>>>
             <<<Displacing   2/coordinate 1 (+)>>>
             <<<Displacing   1/coordinate 2 (+)>>>
             <<<Displacing   2/coordinate 2 (+)>>>
             <<<Displacing   2/coordinate 3 (+)>>>
             <<<Displacing   1/coordinate 3 (+)>>>
             <<<Displacing   2/coordinate 1 (-)>>>
             <<<Displacing   2/coordinate 2 (-)>>>
             <<<Displacing   1/coordinate 2 (-)>>>
             <<<Displacing   1/coordinate 1 (-)>>>
             <<<Displacing   1/coordinate 3 (-)>>>
             <<<Displacing   2/coordinate 3 (-)>>>
Warning: T+R mode no 5 is zero 

-----------------------
VIBRATIONAL FREQUENCIES
-----------------------

Scaling factor for frequencies =  1.000000000 (already applied!)

   0:         0.00 cm**-1
   1:         0.00 cm**-1
   2:         0.00 cm**-1
   3:         0.00 cm**-1
   4:         0.00 cm**-1
   5:       504.59 cm**-1


------------
NORMAL MODES
------------

These modes are the cartesian displacements weighted by the diagonal matrix
M(i,i)=1/sqrt(m[i]) where m[i] is the mass of the displaced atom
Thus, these vectors are normalized but *not* orthogonal

                  0          1          2          3          4          5    
      0       0.000000   0.000000   0.000000   0.000000   0.000000   0.000000
      1       0.000000   0.000000   0.000000   0.000000   0.000000   0.000000
      2       0.000000   0.000000   0.000000   0.000000   0.000000   0.173450
      3       0.000000   0.000000   0.000000   0.000000   0.000000   0.000000
      4       0.000000   0.000000   0.000000   0.000000   0.000000   0.000000
      5       0.000000   0.000000   0.000000   0.000000   0.000000  -0.984843


-----------
IR SPECTRUM  
-----------

 Mode    freq (cm**-1)   T**2         TX         TY         TZ
-------------------------------------------------------------------
   5:       504.59   60.943972  ( -0.000002  -0.000001   7.806662)

The first frequency considered to be a vibration is 5
The total number of vibrations considered is 1


--------------------------
THERMOCHEMISTRY AT 298.15K
--------------------------

Temperature         ... 298.15 K
Pressure            ... 1.00 atm
Total Mass          ... 126.87 AMU
The molecule is recognized as being linear

Throughout the following assumptions are being made:
  (1) The electronic state is orbitally nondegenerate
  (2) There are no thermally accessible electronically excited states
  (3) Hindered rotations indicated by low frequency modes are not
      treated as such but are treated as vibrations and this may
      cause some error
  (4) All equations used are the standard statistical mechanics
      equations for an ideal gas
  (5) All vibrations are strictly harmonic

freq.     504.59  E(vib)   ...       0.14 

------------
INNER ENERGY
------------

The inner energy is: U= E(el) + E(ZPE) + E(vib) + E(rot) + E(trans)
    E(el)   - is the total energy from the electronic structure calculation
              = E(kin-el) + E(nuc-el) + E(el-el) + E(nuc-nuc)
    E(ZPE)  - the the zero temperature vibrational energy from the frequency calculation
    E(vib)  - the the finite temperature correction to E(ZPE) due to population
              of excited vibrational states
    E(rot)  - is the rotational thermal energy
    E(trans)- is the translational thermal energy

Summary of contributions to the inner energy U:
Electronic energy                ...   -246.80424113 Eh
Zero point energy                ...      0.00114955 Eh       0.72 kcal/mol
Thermal vibrational correction   ...      0.00022074 Eh       0.14 kcal/mol
Thermal rotational correction    ...      0.00094418 Eh       0.59 kcal/mol
Thermal translational correction ...      0.00141627 Eh       0.89 kcal/mol
-----------------------------------------------------------------------
Total thermal energy                   -246.80051039 Eh


Summary of corrections to the electronic energy:
(perhaps to be used in another calculation)
Total thermal correction                  0.00258120 Eh       1.62 kcal/mol
Non-thermal (ZPE) correction              0.00114955 Eh       0.72 kcal/mol
-----------------------------------------------------------------------
Total correction                          0.00373075 Eh       2.34 kcal/mol


--------
ENTHALPY
--------

The enthalpy is H = U + kB*T
                kB is Boltzmann's constant
Total free energy                 ...   -246.80051039 Eh 
Thermal Enthalpy correction       ...      0.00094421 Eh       0.59 kcal/mol
-----------------------------------------------------------------------
Total Enthalpy                    ...   -246.79956618 Eh


Note: Rotational entropy computed according to Herzberg 
Infrared and Raman Spectra, Chapter V,1, Van Nostrand Reinhold, 1945 
Point Group:  Cinfv, Symmetry Number:   1  
Rotational constants in cm-1:     0.000000     0.262821     0.262821 

Vibrational entropy computed according to the QRRHO of S. Grimme
Chem.Eur.J. 2012 18 9955


-------
ENTROPY
-------

The entropy contributions are T*S = T*(S(el)+S(vib)+S(rot)+S(trans))
     S(el)   - electronic entropy
     S(vib)  - vibrational entropy
     S(rot)  - rotational entropy
     S(trans)- translational entropy
The entropies will be listed as mutliplied by the temperature to get
units of energy

Electronic entropy                ...      0.00000000 Eh      0.00 kcal/mol
Vibrational entropy               ...      0.00030774 Eh      0.19 kcal/mol
Rotational entropy                ...      0.00724195 Eh      4.54 kcal/mol
Translational entropy             ...      0.01920828 Eh     12.05 kcal/mol
-----------------------------------------------------------------------
Final entropy term                ...      0.02675798 Eh     16.79 kcal/mol

In case the symmetry of your molecule has not been determined correctly
or in case you have a reason to use a different symmetry number we print 
out the resulting rotational entropy values for sn=1,12 :
 --------------------------------------------------------
|  sn= 1 | S(rot)=             -inf Eh      -inf kcal/mol|
|  sn= 2 | S(rot)=             -inf Eh      -inf kcal/mol|
|  sn= 3 | S(rot)=             -inf Eh      -inf kcal/mol|
|  sn= 4 | S(rot)=             -inf Eh      -inf kcal/mol|
|  sn= 5 | S(rot)=             -inf Eh      -inf kcal/mol|
|  sn= 6 | S(rot)=             -inf Eh      -inf kcal/mol|
|  sn= 7 | S(rot)=             -inf Eh      -inf kcal/mol|
|  sn= 8 | S(rot)=             -inf Eh      -inf kcal/mol|
|  sn= 9 | S(rot)=             -inf Eh      -inf kcal/mol|
|  sn=10 | S(rot)=             -inf Eh      -inf kcal/mol|
|  sn=11 | S(rot)=             -inf Eh      -inf kcal/mol|
|  sn=12 | S(rot)=             -inf Eh      -inf kcal/mol|
 --------------------------------------------------------


-------------------
GIBBS FREE ENERGY
-------------------

The Gibbs free energy is G = H - T*S

Total enthalpy                    ...   -246.79956618 Eh 
Total entropy correction          ...     -0.02675798 Eh    -16.79 kcal/mol
-----------------------------------------------------------------------
Final Gibbs free energy         ...   -246.82632415 Eh

For completeness - the Gibbs free energy minus the electronic energy
G-E(el)                           ...     -0.02208302 Eh    -13.86 kcal/mol


Total Time for Numerical Frequencies  :       176.283 sec

Timings for individual modules:

Sum of individual times         ...      150.908 sec (=   2.515 min)
GTO integral calculation        ...        4.163 sec (=   0.069 min)   2.8 %
SCF iterations                  ...       18.749 sec (=   0.312 min)  12.4 %
SCF Gradient evaluation         ...      127.848 sec (=   2.131 min)  84.7 %
Geometry relaxation             ...        0.148 sec (=   0.002 min)   0.1 %
                             ****ORCA TERMINATED NORMALLY****
TOTAL RUN TIME: 0 days 0 hours 5 minutes 0 seconds 401 msec
