
                                 *****************
                                 * O   R   C   A *
                                 *****************

           --- An Ab Initio, DFT and Semiempirical electronic structure package ---

                  #######################################################
                  #                        -***-                        #
                  #          Department of theory and spectroscopy      #
                  #               Directorship: Frank Neese             #
                  #        Max Planck Institute fuer Kohlenforschung    #
                  #                Kaiser Wilhelm Platz 1               #
                  #                 D-45470 Muelheim/Ruhr               #
                  #                      Germany                        #
                  #                                                     #
                  #                  All rights reserved                #
                  #                        -***-                        #
                  #######################################################


                         Program Version 4.2.0 -  RELEASE  -


 With contributions from (in alphabetic order):
   Daniel Aravena         : Magnetic Suceptibility
   Michael Atanasov       : Ab Initio Ligand Field Theory (pilot matlab implementation)
   Alexander A. Auer      : GIAO ZORA, VPT2
   Ute Becker             : Parallelization
   Giovanni Bistoni       : ED, misc. LED, open-shell LED, HFLED
   Martin Brehm           : Molecular dynamics
   Dmytro Bykov           : SCF Hessian
   Vijay G. Chilkuri      : MRCI spin determinant printing, contributions to CSF-ICE
   Dipayan Datta          : RHF DLPNO-CCSD density
   Achintya Kumar Dutta   : EOM-CC, STEOM-CC
   Dmitry Ganyushin       : Spin-Orbit,Spin-Spin,Magnetic field MRCI
   Miquel Garcia          : C-PCM Hessian, Gaussian charge scheme
   Yang Guo               : DLPNO-NEVPT2, CIM, IAO-localization
   Andreas Hansen         : Spin unrestricted coupled pair/coupled cluster methods
   Benjamin Helmich-Paris : CASSCF linear response (MC-RPA)
   Lee Huntington         : MR-EOM, pCC
   Robert Izsak           : Overlap fitted RIJCOSX, COSX-SCS-MP3, EOM
   Christian Kollmar      : KDIIS, OOCD, Brueckner-CCSD(T), CCSD density
   Simone Kossmann        : Meta GGA functionals, TD-DFT gradient, OOMP2, MP2 Hessian
   Martin Krupicka        : AUTO-CI
   Lucas Lang             : DCDCAS
   Dagmar Lenk            : GEPOL surface, SMD
   Dimitrios Liakos       : Extrapolation schemes; Compound Job, initial MDCI parallelization
   Dimitrios Manganas     : Further ROCIS development; embedding schemes
   Dimitrios Pantazis     : SARC Basis sets
   Taras Petrenko         : DFT Hessian,TD-DFT gradient, ASA, ECA, R-Raman, ABS, FL, XAS/XES, NRVS
   Peter Pinski           : DLPNO-MP2, DLPNO-MP2 Gradient
   Christoph Reimann      : Effective Core Potentials
   Marius Retegan         : Local ZFS, SOC
   Christoph Riplinger    : Optimizer, TS searches, QM/MM, DLPNO-CCSD(T), (RO)-DLPNO pert. Triples
   Tobias Risthaus        : Range-separated hybrids, TD-DFT gradient, RPA, STAB
   Michael Roemelt        : Original ROCIS implementation
   Masaaki Saitow         : Open-shell DLPNO-CCSD energy and density
   Barbara Sandhoefer     : DKH picture change effects
   Avijit Sen             : IP-ROCIS
   Kantharuban Sivalingam : CASSCF convergence, NEVPT2, FIC-MRCI
   Bernardo de Souza      : ESD, SOC TD-DFT
   Georgi Stoychev        : AutoAux, RI-MP2 NMR
   Willem Van den Heuvel  : Paramagnetic NMR
   Boris Wezisla          : Elementary symmetry handling
   Frank Wennmohs         : Technical directorship


 We gratefully acknowledge several colleagues who have allowed us to
 interface, adapt or use parts of their codes:
   Stefan Grimme, W. Hujo, H. Kruse,             : VdW corrections, initial TS optimization,
                  C. Bannwarth                     DFT functionals, gCP, sTDA/sTD-DF
   Ed Valeev, F. Pavosevic, A. Kumar             : LibInt (2-el integral package), F12 methods
   Garnet Chan, S. Sharma, J. Yang, R. Olivares  : DMRG
   Ulf Ekstrom                                   : XCFun DFT Library
   Mihaly Kallay                                 : mrcc  (arbitrary order and MRCC methods)
   Andreas Klamt, Michael Diedenhofen            : otool_cosmo (COSMO solvation model)
   Jiri Pittner, Ondrej Demel                    : Mk-CCSD
   Frank Weinhold                                : gennbo (NPA and NBO analysis)
   Christopher J. Cramer and Donald G. Truhlar   : smd solvation model
   Lars Goerigk                                  : TD-DFT with DH, B97 family of functionals
   V. Asgeirsson, H. Jonsson                     : NEB implementation
   FAccTs GmbH                                   : IRC, NEB, NEB-TS, Multilevel, MM, QM/MM, CI optimization
   S Lehtola, MJT Oliveira, MAL Marques          : LibXC Library


 Your calculation uses the libint2 library for the computation of 2-el integrals
 For citations please refer to: http://libint.valeyev.net

 Your ORCA version has been built with support for libXC version: 4.2.3
 For citations please refer to: https://tddft.org/programs/libxc/

 This ORCA versions uses:
   CBLAS   interface :  Fast vector & matrix operations
   LAPACKE interface :  Fast linear algebra routines
   SCALAPACK package :  Parallel linear algebra routines


Your calculation utilizes the DFT-NL dispersion correction.
Cite in your paper:
Vydrov, O. A.; Van Voorhis, T. J. Chem. Phys. 2010, 133, 244103
Hujo, W.; Grimme, S. J. Chem. Theory Comput. 2011, 7, 3866 
   

----- Orbital basis set information -----
Your calculation utilizes the basis: def2-TZVPPD
   F. Weigend and R. Ahlrichs, Phys. Chem. Chem. Phys. 7, 3297 (2005).
   D. Rappoport and F. Furche, J. Chem. Phys. 133 134105 (2010).

----- AuxJK basis set information -----
Your calculation utilizes the auxiliary basis: def2/JK
   H-Ba, Hf-Rn: F. Weigend, J. Comput. Chem. 29, 167 (2008).

cite the ECPs for Ag [Def2-ECP] as follows:
Ce-Yb(ecp-28): M. Dolg, H. Stoll, H.Preuss, J. Chem. Phys., 1989, 90, 1730-1734.
Y-Cd(ecp-28), Hf-Hg(ecp-46): D. Andrae,U. Haeussermann, M. Dolg, H. Stoll, H. Preuss, Theor. Chim. Acta, 1990, 77, 123-141.
In-Sb(ecp-28), Tl-Bi(ecp-46): B. Metz, H. Stoll, M. Dolg, J. Chem. Phys., 2000, 113, 2563-2569.
Te-Xe(ecp-28), Po-Rn(ecp-46): K. A. Peterson, D. Figgen, E. Goll, H. Stoll, M. Dolg, J. Chem. Phys., 2003, 119, 11113-11123.
Rb(ecp-28), Cs(ecp-46): T. Leininger, A. Nicklass, W. Kuechle, H. Stoll, M. Dolg, A. Bergner, Chem. Phys. Lett., 1996, 255, 274-280.
Sr(ecp-28), Ba(ecp-46): M. Kaupp, P. V. Schleyer, H. Stoll and H. Preuss, J. Chem. Phys., 1991, 94, 1360-1366.
La(ecp-46): M. Dolg, H. Stoll, A. Savin, H. Preuss, Theor. Chim. Acta, 1989, 75, 173-194.
Lu(ecp-28): X. Cao, M. Dolg, J. Chem. Phys., 2001, 115, 7348-7355.

ECP parameters for Ag [Def2-ECP] have been obtained from:
TURBOMOLE (7.0.2)

================================================================================
                                        WARNINGS
                       Please study these warnings very carefully!
================================================================================


WARNING: your system is open-shell and RHF/RKS was chosen
  ===> : WILL SWITCH to UHF/UKS


WARNING: Geometry Optimization
  ===> : Switching off AutoStart
         For restart on a previous wavefunction, please use MOREAD

INFO   : the flag for use of LIBINT has been found!

================================================================================
                                       INPUT FILE
================================================================================
NAME = Ag03N0_D3H.in
|  1> #
|  2> # Ag03N0_D3H wB97X-V/Def2-TZVPPD
|  3> #
|  4> ! wb97x-v def2-tzvppd def2/jk grid4 nofinalgrid opt xyzfile numfreq numgrad
|  5> 
|  6> *xyz 0 2
|  7> Ag       0.000000    1.533951   -0.000000 
|  8> Ag       1.328441   -0.766976    0.000000 
|  9> Ag      -1.328441   -0.766976   -0.000000 
| 10> *
| 11> 
| 12> %maxcore 5000
| 13> 
| 14> %pal
| 15> nprocs = 24
| 16> end
| 17> 
| 18> %geom
| 19> calc_hess true
| 20> numhess true
| 21> recalc_hess 10
| 22> maxiter 100
| 23> end
| 24> 
| 25> 
| 26>                          ****END OF INPUT****
================================================================================

                       *****************************
                       * Geometry Optimization Run *
                       *****************************

Geometry optimization settings:
Update method            Update   .... BFGS
Choice of coordinates    CoordSys .... Z-matrix Internals
Initial Hessian          InHess   .... Almoef's Model

Convergence Tolerances:
Energy Change            TolE     ....  5.0000e-06 Eh
Max. Gradient            TolMAXG  ....  3.0000e-04 Eh/bohr
RMS Gradient             TolRMSG  ....  1.0000e-04 Eh/bohr
Max. Displacement        TolMAXD  ....  4.0000e-03 bohr
RMS Displacement         TolRMSD  ....  2.0000e-03 bohr
Strict Convergence                ....  False
------------------------------------------------------------------------------
                        ORCA OPTIMIZATION COORDINATE SETUP
------------------------------------------------------------------------------

The optimization will be done in new redundant internal coordinates
Making redundant internal coordinates   ...  (new redundants) done
Evaluating the initial hessian          ...  (Is done on the fly) done
Evaluating the coordinates              ...  done
Calculating the B-matrix                .... done
Calculating the G-matrix                .... done
Diagonalizing the G-matrix              .... done
The first mode is                       ....    3
The number of degrees of freedom        ....    3

    -----------------------------------------------------------------
                    Redundant Internal Coordinates


    -----------------------------------------------------------------
         Definition                    Initial Value    d2E/dq (diagonal element)
    -----------------------------------------------------------------
      1. B(Ag  1,Ag  0)                  2.6569         0.000000   
      2. B(Ag  2,Ag  1)                  2.6569         0.000000   
      3. B(Ag  2,Ag  0)                  2.6569         0.000000   
      4. A(Ag  1,Ag  0,Ag  2)           60.0000         0.000000   
      5. A(Ag  0,Ag  1,Ag  2)           60.0000         0.000000   
      6. A(Ag  0,Ag  2,Ag  1)           60.0000         0.000000   
    -----------------------------------------------------------------

Number of atoms                         .... 3
Number of degrees of freedom            .... 6

         *************************************************************
         *                GEOMETRY OPTIMIZATION CYCLE   1            *
         *************************************************************
---------------------------------
CARTESIAN COORDINATES (ANGSTROEM)
---------------------------------
  Ag     0.000000    1.533951   -0.000000
  Ag     1.328441   -0.766976    0.000000
  Ag    -1.328441   -0.766976   -0.000000

----------------------------
CARTESIAN COORDINATES (A.U.)
----------------------------
  NO LB      ZA    FRAG     MASS         X           Y           Z
   0 Ag   19.0000*   0   107.870    0.000000    2.898747   -0.000000
   1 Ag   19.0000*   0   107.870    2.510390   -1.449375    0.000000
   2 Ag   19.0000*   0   107.870   -2.510390   -1.449375   -0.000000
* core charge reduced due to ECP

--------------------------------
INTERNAL COORDINATES (ANGSTROEM)
--------------------------------
 Ag     0   0   0     0.000000000000     0.00000000     0.00000000
 Ag     1   0   0     2.656881734254     0.00000000     0.00000000
 Ag     1   2   0     2.656881734254    60.00000662     0.00000000

---------------------------
INTERNAL COORDINATES (A.U.)
---------------------------
 Ag     0   0   0     0.000000000000     0.00000000     0.00000000
 Ag     1   0   0     5.020778847957     0.00000000     0.00000000
 Ag     1   2   0     5.020778847957    60.00000662     0.00000000

---------------------
BASIS SET INFORMATION
---------------------
There are 1 groups of distinct atoms

 Group   1 Type Ag  : 7s7p6d2f1g contracted to 6s4p3d2f1g pattern {211111/4111/411/11/1}

Atom   0Ag   basis set group =>   1
Atom   1Ag   basis set group =>   1
Atom   2Ag   basis set group =>   1
----------------------------------
AUXILIARY/JK BASIS SET INFORMATION
----------------------------------
There are 1 groups of distinct atoms

 Group   1 Type Ag  : 13s12p10d9f6g3h2i contracted to 11s10p9d8f6g3h2i pattern {31111111111/3111111111/211111111/21111111/111111/111/11}

Atom   0Ag   basis set group =>   1
Atom   1Ag   basis set group =>   1
Atom   2Ag   basis set group =>   1
-------------------------
ECP PARAMETER INFORMATION
-------------------------

 Group 1, Type Ag ECP Def2-ECP (replacing 28 core electrons, lmax=3)

Atom   0Ag   ECP group =>   1
Atom   1Ag   ECP group =>   1
Atom   2Ag   ECP group =>   1



           ************************************************************
           *        Program running with 24 parallel MPI-processes    *
           *              working on a common directory               *
           ************************************************************
------------------------------------------------------------------------------
                           ORCA GTO INTEGRAL CALCULATION
------------------------------------------------------------------------------

                         BASIS SET STATISTICS AND STARTUP INFO

 # of primitive gaussian shells          ...   69
 # of primitive gaussian functions       ...  243
 # of contracted shells                  ...   48
 # of contracted basis functions         ...  168
 Highest angular momentum                ...    4
 Maximum contraction depth               ...    4
 Integral package used                   ... LIBINT
 Integral threshhold            Thresh   ...  2.500e-11
 Primitive cut-off              TCut     ...  2.500e-12


------------------------------ INTEGRAL EVALUATION ----------------------------


 * One electron integrals 

   ECP integrals                         ... done
 Pre-screening matrix                    ... done
 Shell pair data                         ... done (   0.000 sec)



           ************************************************************
           *        Program running with 24 parallel MPI-processes    *
           *              working on a common directory               *
           ************************************************************
-------------------------------------------------------------------------------
                                 ORCA SCF
-------------------------------------------------------------------------------

------------
SCF SETTINGS
------------
Hamiltonian:
 Density Functional     Method          .... DFT(GTOs)
 Exchange Functional    Exchange        .... WB97X-V
 Correlation Functional Correlation     .... WB97X-V
 Gradients option       PostSCFGGA      .... off
 Hybrid DFT is turned on
   Fraction HF Exchange ScalHFX         ....  0.167000
   Scaling of DF-GGA-X  ScalDFX         ....  0.000000
   Scaling of DF-GGA-C  ScalDFC         ....  1.000000
   Scaling of DF-LDA-C  ScalLDAC        ....  1.000000
   Perturbative correction              ....  0.000000
   Density functional embedding theory  .... OFF
 Long-range corrected/Screened/Range-Separated Hybrid DFT is turned on
   Amount of maximum screened exact exchange              ....  0.833000
   Range separation parameter mu (erf(mu*r12)/r12)        ....  0.300000
   NL short-range parameter             ....  6.000000
   NL long-range parameter              ....  0.010000


General Settings:
 Integral files         IntName         .... Ag03N0_D3H
 Hartree-Fock type      HFTyp           .... UHF
 Total Charge           Charge          ....    0
 Multiplicity           Mult            ....    2
 Number of Electrons    NEL             ....   57
 Basis Dimension        Dim             ....  168
 Nuclear Repulsion      ENuc            ....    215.7035784065 Eh

Convergence Acceleration:
 DIIS                   CNVDIIS         .... on
   Start iteration      DIISMaxIt       ....    12
   Startup error        DIISStart       ....  0.200000
   # of expansion vecs  DIISMaxEq       ....     5
   Bias factor          DIISBfac        ....   1.050
   Max. coefficient     DIISMaxC        ....  10.000
 Newton-Raphson         CNVNR           .... off
 SOSCF                  CNVSOSCF        .... off
 Level Shifting         CNVShift        .... on
   Level shift para.    LevelShift      ....    0.2500
   Turn off err/grad.   ShiftErr        ....    0.0010
 Zerner damping         CNVZerner       .... off
 Static damping         CNVDamp         .... on
   Fraction old density DampFac         ....    0.7000
   Max. Damping (<1)    DampMax         ....    0.9800
   Min. Damping (>=0)   DampMin         ....    0.0000
   Turn off err/grad.   DampErr         ....    0.1000
 Fernandez-Rico         CNVRico         .... off

SCF Procedure:
 Maximum # iterations   MaxIter         ....   125
 SCF integral mode      SCFMode         .... Direct
   Integral package                     .... LIBINT
 Reset frequency        DirectResetFreq ....    20
 Integral Threshold     Thresh          ....  2.500e-11 Eh
 Primitive CutOff       TCut            ....  2.500e-12 Eh

Convergence Tolerance:
 Convergence Check Mode ConvCheckMode   .... Total+1el-Energy
 Convergence forced     ConvForced      .... 0
 Energy Change          TolE            ....  1.000e-08 Eh
 1-El. energy change                    ....  1.000e-05 Eh
 DIIS Error             TolErr          ....  5.000e-07


Diagonalization of the overlap matrix:
Smallest eigenvalue                        ... 2.935e-03
Time for diagonalization                   ...    0.022 sec
Threshold for overlap eigenvalues          ... 1.000e-08
Number of eigenvalues below threshold      ... 0
Time for construction of square roots      ...    0.003 sec
Total time needed                          ...    0.025 sec

-------------------
DFT GRID GENERATION
-------------------

General Integration Accuracy     IntAcc      ...  4.670
Radial Grid Type                 RadialGrid  ... Gauss-Chebyshev
Angular Grid (max. acc.)         AngularGrid ... Lebedev-302
Angular grid pruning method      GridPruning ... 3 (G Style)
Weight generation scheme         WeightScheme... Becke
Basis function cutoff            BFCut       ...    1.0000e-11
Integration weight cutoff        WCut        ...    1.0000e-14
Grids for H and He will be reduced by one unit

# of grid points (after initial pruning)     ...  31974 (   0.0 sec)
# of grid points (after weights+screening)   ...  31838 (   0.0 sec)
nearest neighbour list constructed           ...    0.0 sec
Grid point re-assignment to atoms done       ...    0.0 sec
Grid point division into batches done        ...    0.3 sec
Reduced shell lists constructed in    0.3 sec

Total number of grid points                  ...    31838
Total number of batches                      ...      500
Average number of points per batch           ...       63
Average number of grid points per atom       ...    10613
Average number of shells per batch           ...     5.09 (10.61%)
Average number of basis functions per batch  ...    11.27 ( 6.71%)
Average number of large shells per batch     ...     3.32 (65.18%)
Average number of large basis fcns per batch ...     6.68 (59.27%)
Maximum spatial batch extension              ...  27.02, 24.03, 31.14 au
Average spatial batch extension              ...   0.75,  0.64,  0.72 au

Time for grid setup =    0.398 sec

------------------------------
INITIAL GUESS: MODEL POTENTIAL
------------------------------
Loading Hartree-Fock densities                     ... done
  calling /sw/apps/orca/orca_4_2_0_linux_x86-64_openmpi314/orca Ag03N0_D3H_atom47.inp > Ag03N0_D3H_atom47.out in order to generate an atomic fitting density for atom 0 (Ag with ECP) on-the-fly... 
    atom 0 (Ag), assumed electronic state with S=2: 1s2 2s2 2p6 3s2 3p6 4s2 3d10 4p6 5s2 4d9           ... done
Calculating cut-offs                               ... done
Setting up the integral package                    ... done
Initializing the effective Hamiltonian             ... done
Starting the Coulomb interaction                   ... done (   0.0 sec)
Reading the grid                                   ... done
Mapping shells                                     ... done
Starting the XC term evaluation                    ... done (   0.0 sec)
  promolecular density results
     # of electrons  =    141.001725785
     EX              =   -337.613130187
     EC              =     -9.776435829
     EX+EC           =   -347.389566015
Transforming the Hamiltonian                       ... done (   0.0 sec)
Diagonalizing the Hamiltonian                      ... done (   0.0 sec)
Back transforming the eigenvectors                 ... done (   0.0 sec)
Now organizing SCF variables                       ... done
                      ------------------
                      INITIAL GUESS DONE (   1.7 sec)
                      ------------------
--------------
SCF ITERATIONS
--------------
ITER       Energy         Delta-E        Max-DP      RMS-DP      [F,P]     Damp
               ***  Starting incremental Fock matrix formation  ***
  0   -440.9690219185   0.000000000000 0.03050423  0.00079615  0.3714977 0.7000
  1   -441.0217118429  -0.052689924401 0.02751569  0.00067089  0.2744005 0.7000
  2   -441.0488211873  -0.027109344383 0.02044226  0.00049225  0.2002518 0.7000
                               ***Turning on DIIS***
  3   -441.0658999782  -0.017078790953 0.01413302  0.00035967  0.1437383 0.7000
  4   -441.0779210469  -0.012021068652 0.01085464  0.00029024  0.1019219 0.7000
  5   -441.0865387497  -0.008617702834 0.03031500  0.00077556  0.0707377 0.0000
  6   -441.1079885396  -0.021449789897 0.00864917  0.00011481  0.0022936 0.0000
  7   -441.1081992200  -0.000210680403 0.00702285  0.00008681  0.0014736 0.0000
  8   -441.1083023325  -0.000103112519 0.01085676  0.00012492  0.0009636 0.0000
  9   -441.1083765185  -0.000074185957 0.00191620  0.00002135  0.0002771 0.0000
 10   -441.1083819881  -0.000005469661 0.00046410  0.00000745  0.0001619 0.0000
 11   -441.1083833811  -0.000001392945 0.00028617  0.00000627  0.0000846 0.0000
 12   -441.1083839715  -0.000000590360 0.00014038  0.00000232  0.0000392 0.0000
 13   -441.1083840528  -0.000000081329 0.00006951  0.00000097  0.0000193 0.0000
 14   -441.1083840680  -0.000000015199 0.00004792  0.00000071  0.0000128 0.0000
 15   -441.1083840743  -0.000000006283 0.00003645  0.00000048  0.0000076 0.0000
 16   -441.1083840765  -0.000000002221 0.00001383  0.00000017  0.0000033 0.0000
 17   -441.1083840770  -0.000000000516 0.00000897  0.00000011  0.0000023 0.0000
                 **** Energy Check signals convergence ****

               *****************************************************
               *                     SUCCESS                       *
               *           SCF CONVERGED AFTER  18 CYCLES          *
               *****************************************************


Setting up the DFT-NL grid :

General Integration Accuracy     IntAcc      ...  4.340
Radial Grid Type                 RadialGrid  ... Gauss-Chebyshev
Angular Grid (max. acc.)         AngularGrid ... Lebedev-110
Angular grid pruning method      GridPruning ... 3 (G Style)
Weight generation scheme         WeightScheme... Becke
Basis function cutoff            BFCut       ...    1.0000e-11
Integration weight cutoff        WCut        ...    1.0000e-14
Grids for H and He will be reduced by one unit

# of grid points (after initial pruning)     ...   9774 (   0.0 sec)
# of grid points (after weights+screening)   ...   9714 (   0.0 sec)
nearest neighbour list constructed           ...    0.0 sec
Grid point re-assignment to atoms done       ...    0.0 sec
Grid point division into batches done        ...    0.0 sec
Reduced shell lists constructed in    0.0 sec

Total number of grid points                  ...     9714
Total number of batches                      ...      154
Average number of points per batch           ...       63
Average number of grid points per atom       ...     3238
Average number of shells per batch           ...    11.00 (22.92%)
Average number of basis functions per batch  ...    26.25 (15.62%)
Average number of large shells per batch     ...     6.75 (61.36%)
Average number of large basis fcns per batch ...    15.00 (57.14%)
Maximum spatial batch extension              ...  44.28, 22.09, 23.83 au
Average spatial batch extension              ...   1.39,  0.95,  0.99 au

Final grid set up in    0.0 sec

-------------------------------------------------------------------------------
                         DFT-NL dispersion correction                          
-------------------------------------------------------------------------------

SC Energy -441.108384077 
NL    Energy 0.216107996 
SC+NL Energy -440.892276081 
NL done in    0.0 sec
-------------------------------------------------------------------------------

----------------
TOTAL SCF ENERGY
----------------

Total Energy       :         -440.89227608 Eh          -11997.28876 eV

Components:
Nuclear Repulsion  :          215.70357841 Eh            5869.59277 eV
Electronic Energy  :         -656.59585449 Eh          -17866.88154 eV
One Electron Energy:        -1214.97428640 Eh          -33061.13113 eV
Two Electron Energy:          558.37843191 Eh           15194.24959 eV

Virial components:
Potential Energy   :         -609.98451541 Eh          -16598.52252 eV
Kinetic Energy     :          169.09223932 Eh            4601.23375 eV
Virial Ratio       :            3.60740693


DFT components:
N(Alpha)           :       28.999984625916 electrons
N(Beta)            :       27.999984156381 electrons
N(Total)           :       56.999968782297 electrons
E(X)               :      -25.804397067397 Eh       
E(C)               :       -2.688469600995 Eh       
NL Energy, E(C,NL) :        0.216107995754 Eh       
E(XC)              :      -28.276758672638 Eh       
DFET-embed. en.    :        0.000000000000 Eh       

---------------
SCF CONVERGENCE
---------------

  Last Energy change         ...   -2.2521e-10  Tolerance :   1.0000e-08
  Last MAX-Density change    ...    8.0975e-06  Tolerance :   1.0000e-07
  Last RMS-Density change    ...    1.1096e-07  Tolerance :   5.0000e-09
  Last DIIS Error            ...    1.0689e-06  Tolerance :   5.0000e-07

             **** THE GBW FILE WAS UPDATED (Ag03N0_D3H.gbw) ****
             **** DENSITY FILE WAS UPDATED (Ag03N0_D3H.scfp) ****
             **** ENERGY FILE WAS UPDATED (Ag03N0_D3H.en.tmp) ****
----------------------
UHF SPIN CONTAMINATION
----------------------

Warning: in a DFT calculation there is little theoretical justification to 
         calculate <S**2> as in Hartree-Fock theory. We will do it anyways
         but you should keep in mind that the values have only limited relevance

Expectation value of <S**2>     :     0.767586
Ideal value S*(S+1) for S=0.5   :     0.750000
Deviation                       :     0.017586

             **** THE GBW FILE WAS UPDATED (Ag03N0_D3H.gbw) ****
             **** DENSITY FILE WAS UPDATED (Ag03N0_D3H.scfp) ****
----------------
ORBITAL ENERGIES
----------------
                 SPIN UP ORBITALS
  NO   OCC          E(Eh)            E(eV) 
   0   1.0000      -3.844036      -104.6015 
   1   1.0000      -3.843716      -104.5928 
   2   1.0000      -3.822015      -104.0023 
   3   1.0000      -2.446271       -66.5664 
   4   1.0000      -2.442455       -66.4626 
   5   1.0000      -2.442188       -66.4553 
   6   1.0000      -2.441284       -66.4307 
   7   1.0000      -2.441021       -66.4236 
   8   1.0000      -2.440934       -66.4212 
   9   1.0000      -2.420756       -65.8721 
  10   1.0000      -2.420367       -65.8615 
  11   1.0000      -2.417721       -65.7895 
  12   1.0000      -0.486224       -13.2308 
  13   1.0000      -0.471654       -12.8344 
  14   1.0000      -0.464382       -12.6365 
  15   1.0000      -0.462772       -12.5927 
  16   1.0000      -0.449258       -12.2249 
  17   1.0000      -0.447934       -12.1889 
  18   1.0000      -0.442185       -12.0325 
  19   1.0000      -0.428254       -11.6534 
  20   1.0000      -0.424186       -11.5427 
  21   1.0000      -0.421150       -11.4601 
  22   1.0000      -0.411928       -11.2091 
  23   1.0000      -0.410246       -11.1634 
  24   1.0000      -0.406658       -11.0657 
  25   1.0000      -0.405864       -11.0441 
  26   1.0000      -0.391964       -10.6659 
  27   1.0000      -0.328836        -8.9481 
  28   1.0000      -0.194263        -5.2862 
  29   0.0000      -0.040213        -1.0943 
  30   0.0000       0.018453         0.5021 
  31   0.0000       0.033849         0.9211 
  32   0.0000       0.054399         1.4803 
  33   0.0000       0.055959         1.5227 
  34   0.0000       0.090448         2.4612 
  35   0.0000       0.090707         2.4683 
  36   0.0000       0.129276         3.5178 
  37   0.0000       0.132164         3.5964 
  38   0.0000       0.139691         3.8012 
  39   0.0000       0.175452         4.7743 
  40   0.0000       0.219194         5.9646 
  41   0.0000       0.222964         6.0672 
  42   0.0000       0.228108         6.2071 
  43   0.0000       0.236257         6.4289 
  44   0.0000       0.254183         6.9167 
  45   0.0000       0.256477         6.9791 
  46   0.0000       0.306005         8.3268 
  47   0.0000       0.312031         8.4908 
  48   0.0000       0.387716        10.5503 
  49   0.0000       0.455130        12.3847 
  50   0.0000       0.457593        12.4517 
  51   0.0000       0.458610        12.4794 
  52   0.0000       0.488042        13.2803 
  53   0.0000       0.495077        13.4717 
  54   0.0000       0.505181        13.7467 
  55   0.0000       0.591788        16.1034 
  56   0.0000       0.596118        16.2212 
  57   0.0000       0.632804        17.2195 
  58   0.0000       0.652159        17.7461 
  59   0.0000       0.683849        18.6085 
  60   0.0000       0.692217        18.8362 
  61   0.0000       0.698272        19.0009 
  62   0.0000       0.698738        19.0136 
  63   0.0000       0.774677        21.0800 
  64   0.0000       0.780325        21.2337 
  65   0.0000       0.828299        22.5391 
  66   0.0000       1.589737        43.2589 
  67   0.0000       1.593407        43.3588 
  68   0.0000       1.628038        44.3012 
  69   0.0000       1.639682        44.6180 
  70   0.0000       1.661029        45.1989 
  71   0.0000       1.671761        45.4909 
  72   0.0000       1.672673        45.5157 
  73   0.0000       1.689802        45.9819 
  74   0.0000       1.694564        46.1114 
  75   0.0000       1.696026        46.1512 
  76   0.0000       1.707193        46.4551 
  77   0.0000       1.708613        46.4937 
  78   0.0000       1.714799        46.6620 
  79   0.0000       1.716991        46.7217 
  80   0.0000       1.726793        46.9884 
  81   0.0000       1.733231        47.1636 
  82   0.0000       1.733885        47.1814 
  83   0.0000       1.736713        47.2584 
  84   0.0000       1.744473        47.4695 
  85   0.0000       1.754747        47.7491 
  86   0.0000       1.767328        48.0914 
  87   0.0000       1.796454        48.8840 
  88   0.0000       1.811640        49.2972 
  89   0.0000       1.817717        49.4626 
  90   0.0000       1.829878        49.7935 
  91   0.0000       1.839843        50.0647 
  92   0.0000       1.847988        50.2863 
  93   0.0000       1.872031        50.9406 
  94   0.0000       1.873391        50.9776 
  95   0.0000       2.026803        55.1521 
  96   0.0000       2.071723        56.3744 
  97   0.0000       2.163862        58.8817 
  98   0.0000       2.169242        59.0281 
  99   0.0000       2.177942        59.2648 
 100   0.0000       2.201990        59.9192 
 101   0.0000       2.207802        60.0774 
 102   0.0000       2.210260        60.1442 
 103   0.0000       2.222851        60.4868 
 104   0.0000       2.234267        60.7975 
 105   0.0000       2.234793        60.8118 
 106   0.0000       2.244012        61.0627 
 107   0.0000       2.257623        61.4331 
 108   0.0000       2.342736        63.7491 
 109   0.0000       2.350562        63.9620 
 110   0.0000       2.377571        64.6970 
 111   0.0000       2.488734        67.7219 
 112   0.0000       2.655694        72.2651 
 113   0.0000       2.664098        72.4938 
 114   0.0000       4.886867       132.9784 
 115   0.0000       4.899117       133.3117 
 116   0.0000       4.903581       133.4332 
 117   0.0000       4.907201       133.5317 
 118   0.0000       4.917738       133.8184 
 119   0.0000       4.918330       133.8346 
 120   0.0000       4.924364       133.9988 
 121   0.0000       4.934886       134.2851 
 122   0.0000       4.937212       134.3484 
 123   0.0000       4.941921       134.4765 
 124   0.0000       4.943831       134.5285 
 125   0.0000       4.961863       135.0192 
 126   0.0000       4.961908       135.0204 
 127   0.0000       4.995982       135.9476 
 128   0.0000       5.013542       136.4254 
 129   0.0000       5.019268       136.5812 
 130   0.0000       5.024822       136.7324 
 131   0.0000       5.025667       136.7553 
 132   0.0000       5.171297       140.7181 
 133   0.0000       5.176923       140.8712 
 134   0.0000       5.193689       141.3275 
 135   0.0000       5.669130       154.2649 
 136   0.0000       5.669431       154.2731 
 137   0.0000       5.669492       154.2747 
 138   0.0000       5.670182       154.2935 
 139   0.0000       5.670356       154.2982 
 140   0.0000       5.670598       154.3048 
 141   0.0000       5.671444       154.3278 
 142   0.0000       5.671481       154.3288 
 143   0.0000       5.672011       154.3433 
 144   0.0000       5.672323       154.3518 
 145   0.0000       5.672689       154.3617 
 146   0.0000       5.673291       154.3781 
 147   0.0000       5.673579       154.3859 
 148   0.0000       5.673608       154.3867 
 149   0.0000       5.673712       154.3896 
 150   0.0000       5.673714       154.3896 
 151   0.0000       5.677503       154.4927 
 152   0.0000       5.679039       154.5345 
 153   0.0000       5.693733       154.9343 
 154   0.0000       5.694506       154.9554 
 155   0.0000       5.695604       154.9853 
 156   0.0000       5.696868       155.0197 
 157   0.0000       5.697061       155.0249 
 158   0.0000       5.697316       155.0319 
 159   0.0000       5.697479       155.0363 
 160   0.0000       5.700796       155.1266 
 161   0.0000       5.701600       155.1484 
 162   0.0000      33.505701       911.7365 
 163   0.0000      33.834607       920.6865 
 164   0.0000      33.848656       921.0688 
 165   0.0000     110.911802      3018.0636 
 166   0.0000     111.013369      3020.8273 
 167   0.0000     111.028198      3021.2309 

                 SPIN DOWN ORBITALS
  NO   OCC          E(Eh)            E(eV) 
   0   1.0000      -3.843595      -104.5895 
   1   1.0000      -3.843276      -104.5808 
   2   1.0000      -3.820646      -103.9651 
   3   1.0000      -2.445867       -66.5554 
   4   1.0000      -2.442185       -66.4552 
   5   1.0000      -2.441541       -66.4377 
   6   1.0000      -2.441048       -66.4243 
   7   1.0000      -2.440718       -66.4153 
   8   1.0000      -2.440347       -66.4052 
   9   1.0000      -2.419688       -65.8431 
  10   1.0000      -2.419038       -65.8254 
  11   1.0000      -2.416591       -65.7588 
  12   1.0000      -0.484956       -13.1963 
  13   1.0000      -0.469925       -12.7873 
  14   1.0000      -0.463928       -12.6241 
  15   1.0000      -0.460296       -12.5253 
  16   1.0000      -0.447208       -12.1691 
  17   1.0000      -0.446723       -12.1560 
  18   1.0000      -0.441079       -12.0024 
  19   1.0000      -0.427400       -11.6302 
  20   1.0000      -0.423963       -11.5366 
  21   1.0000      -0.420970       -11.4552 
  22   1.0000      -0.409399       -11.1403 
  23   1.0000      -0.408012       -11.1026 
  24   1.0000      -0.403801       -10.9880 
  25   1.0000      -0.402505       -10.9527 
  26   1.0000      -0.388193       -10.5633 
  27   1.0000      -0.311999        -8.4899 
  28   0.0000      -0.034010        -0.9255 
  29   0.0000      -0.015016        -0.4086 
  30   0.0000       0.022238         0.6051 
  31   0.0000       0.047538         1.2936 
  32   0.0000       0.071670         1.9502 
  33   0.0000       0.073173         1.9911 
  34   0.0000       0.091951         2.5021 
  35   0.0000       0.103394         2.8135 
  36   0.0000       0.132806         3.6138 
  37   0.0000       0.148738         4.0474 
  38   0.0000       0.150164         4.0862 
  39   0.0000       0.176944         4.8149 
  40   0.0000       0.221584         6.0296 
  41   0.0000       0.227617         6.1938 
  42   0.0000       0.239096         6.5061 
  43   0.0000       0.239469         6.5163 
  44   0.0000       0.267149         7.2695 
  45   0.0000       0.267808         7.2874 
  46   0.0000       0.308307         8.3894 
  47   0.0000       0.323273         8.7967 
  48   0.0000       0.395463        10.7611 
  49   0.0000       0.457380        12.4459 
  50   0.0000       0.460061        12.5189 
  51   0.0000       0.466225        12.6866 
  52   0.0000       0.489953        13.3323 
  53   0.0000       0.495626        13.4867 
  54   0.0000       0.506031        13.7698 
  55   0.0000       0.592269        16.1165 
  56   0.0000       0.597698        16.2642 
  57   0.0000       0.633149        17.2288 
  58   0.0000       0.652333        17.7509 
  59   0.0000       0.683449        18.5976 
  60   0.0000       0.693374        18.8677 
  61   0.0000       0.699521        19.0349 
  62   0.0000       0.700352        19.0576 
  63   0.0000       0.775062        21.0905 
  64   0.0000       0.782126        21.2827 
  65   0.0000       0.829690        22.5770 
  66   0.0000       1.590922        43.2912 
  67   0.0000       1.596035        43.4303 
  68   0.0000       1.630911        44.3794 
  69   0.0000       1.642083        44.6833 
  70   0.0000       1.661676        45.2165 
  71   0.0000       1.674302        45.5601 
  72   0.0000       1.675092        45.5816 
  73   0.0000       1.691261        46.0216 
  74   0.0000       1.696033        46.1514 
  75   0.0000       1.697042        46.1789 
  76   0.0000       1.707873        46.4736 
  77   0.0000       1.709569        46.5197 
  78   0.0000       1.715880        46.6915 
  79   0.0000       1.718707        46.7684 
  80   0.0000       1.730311        47.0841 
  81   0.0000       1.735717        47.2313 
  82   0.0000       1.735873        47.2355 
  83   0.0000       1.740434        47.3596 
  84   0.0000       1.746025        47.5118 
  85   0.0000       1.758464        47.8502 
  86   0.0000       1.769286        48.1447 
  87   0.0000       1.799165        48.9578 
  88   0.0000       1.813140        49.3380 
  89   0.0000       1.820458        49.5372 
  90   0.0000       1.833326        49.8873 
  91   0.0000       1.840922        50.0940 
  92   0.0000       1.849468        50.3266 
  93   0.0000       1.873655        50.9847 
  94   0.0000       1.875884        51.0454 
  95   0.0000       2.027216        55.1634 
  96   0.0000       2.073970        56.4356 
  97   0.0000       2.165184        58.9177 
  98   0.0000       2.170001        59.0487 
  99   0.0000       2.179800        59.3154 
 100   0.0000       2.202947        59.9452 
 101   0.0000       2.208853        60.1059 
 102   0.0000       2.212508        60.2054 
 103   0.0000       2.224604        60.5345 
 104   0.0000       2.236212        60.8504 
 105   0.0000       2.236882        60.8687 
 106   0.0000       2.244882        61.0864 
 107   0.0000       2.260669        61.5159 
 108   0.0000       2.343619        63.7731 
 109   0.0000       2.352721        64.0208 
 110   0.0000       2.379576        64.7516 
 111   0.0000       2.488988        67.7288 
 112   0.0000       2.656080        72.2756 
 113   0.0000       2.665432        72.5301 
 114   0.0000       4.887816       133.0042 
 115   0.0000       4.900078       133.3379 
 116   0.0000       4.904744       133.4649 
 117   0.0000       4.907767       133.5471 
 118   0.0000       4.918760       133.8463 
 119   0.0000       4.919541       133.8675 
 120   0.0000       4.925645       134.0336 
 121   0.0000       4.935800       134.3099 
 122   0.0000       4.938184       134.3748 
 123   0.0000       4.942918       134.5036 
 124   0.0000       4.944621       134.5500 
 125   0.0000       4.964083       135.0796 
 126   0.0000       4.964357       135.0870 
 127   0.0000       4.997073       135.9773 
 128   0.0000       5.014567       136.4533 
 129   0.0000       5.020516       136.6152 
 130   0.0000       5.026330       136.7734 
 131   0.0000       5.027549       136.8066 
 132   0.0000       5.172014       140.7376 
 133   0.0000       5.178293       140.9085 
 134   0.0000       5.195261       141.3702 
 135   0.0000       5.669218       154.2673 
 136   0.0000       5.669765       154.2821 
 137   0.0000       5.669853       154.2845 
 138   0.0000       5.670084       154.2908 
 139   0.0000       5.670582       154.3044 
 140   0.0000       5.670720       154.3081 
 141   0.0000       5.671643       154.3332 
 142   0.0000       5.671765       154.3366 
 143   0.0000       5.672179       154.3478 
 144   0.0000       5.672309       154.3514 
 145   0.0000       5.672777       154.3641 
 146   0.0000       5.673310       154.3786 
 147   0.0000       5.673608       154.3867 
 148   0.0000       5.673960       154.3963 
 149   0.0000       5.674025       154.3981 
 150   0.0000       5.674200       154.4028 
 151   0.0000       5.677603       154.4954 
 152   0.0000       5.679598       154.5497 
 153   0.0000       5.695062       154.9705 
 154   0.0000       5.695310       154.9773 
 155   0.0000       5.696598       155.0123 
 156   0.0000       5.697161       155.0276 
 157   0.0000       5.697715       155.0427 
 158   0.0000       5.697955       155.0493 
 159   0.0000       5.698092       155.0530 
 160   0.0000       5.701652       155.1498 
 161   0.0000       5.702765       155.1801 
 162   0.0000      33.506320       911.7533 
 163   0.0000      33.834913       920.6948 
 164   0.0000      33.849624       921.0951 
 165   0.0000     110.912095      3018.0715 
 166   0.0000     111.013529      3020.8317 
 167   0.0000     111.028742      3021.2457 

                    ********************************
                    * MULLIKEN POPULATION ANALYSIS *
                    ********************************

--------------------------------------------
MULLIKEN ATOMIC CHARGES AND SPIN POPULATIONS
--------------------------------------------
   0 Ag:   -0.136730    0.593717
   1 Ag:    0.068363    0.203141
   2 Ag:    0.068366    0.203142
Sum of atomic charges         :   -0.0000000
Sum of atomic spin populations:    1.0000000

-----------------------------------------------------
MULLIKEN REDUCED ORBITAL CHARGES AND SPIN POPULATIONS
-----------------------------------------------------
CHARGE
  0 Ags       :     3.064608  s :     3.064608
      pz      :     2.008670  p :     6.159681
      px      :     2.007147
      py      :     2.143864
      dz2     :     1.988950  d :     9.910953
      dxz     :     1.995945
      dyz     :     1.990340
      dx2y2   :     1.985792
      dxy     :     1.949926
      f0      :     0.000123  f :     0.001468
      f+1     :     0.000091
      f-1     :     0.000257
      f+2     :     0.000068
      f-2     :     0.000160
      f+3     :     0.000471
      f-3     :     0.000299
      g0      :     0.000002  g :     0.000020
      g+1     :     0.000001
      g-1     :     0.000002
      g+2     :     0.000001
      g-2     :     0.000003
      g+3     :     0.000002
      g-3     :     0.000000
      g+4     :     0.000004
      g-4     :     0.000005
  1 Ags       :     2.768384  s :     2.768384
      pz      :     2.010549  p :     6.219132
      px      :     2.064153
      py      :     2.144431
      dz2     :     1.991643  d :     9.942328
      dxz     :     1.994568
      dyz     :     1.996763
      dx2y2   :     1.975052
      dxy     :     1.984302
      f0      :     0.000148  f :     0.001773
      f+1     :     0.000253
      f-1     :     0.000151
      f+2     :     0.000174
      f-2     :     0.000138
      f+3     :     0.000554
      f-3     :     0.000355
      g0      :     0.000001  g :     0.000020
      g+1     :     0.000002
      g-1     :     0.000001
      g+2     :     0.000002
      g-2     :     0.000002
      g+3     :     0.000002
      g-3     :     0.000000
      g+4     :     0.000005
      g-4     :     0.000004
  2 Ags       :     2.768382  s :     2.768382
      pz      :     2.010549  p :     6.219131
      px      :     2.064152
      py      :     2.144431
      dz2     :     1.991643  d :     9.942328
      dxz     :     1.994568
      dyz     :     1.996763
      dx2y2   :     1.975052
      dxy     :     1.984302
      f0      :     0.000148  f :     0.001773
      f+1     :     0.000253
      f-1     :     0.000151
      f+2     :     0.000174
      f-2     :     0.000138
      f+3     :     0.000554
      f-3     :     0.000355
      g0      :     0.000001  g :     0.000020
      g+1     :     0.000002
      g-1     :     0.000001
      g+2     :     0.000002
      g-2     :     0.000002
      g+3     :     0.000002
      g-3     :     0.000000
      g+4     :     0.000005
      g-4     :     0.000004

SPIN
  0 Ags       :     0.536784  s :     0.536784
      pz      :     0.000325  p :     0.048498
      px      :     0.000434
      py      :     0.047739
      dz2     :     0.000845  d :     0.008445
      dxz     :     0.000148
      dyz     :     0.000456
      dx2y2   :     0.002656
      dxy     :     0.004340
      f0      :    -0.000001  f :    -0.000010
      f+1     :    -0.000001
      f-1     :    -0.000002
      f+2     :     0.000000
      f-2     :    -0.000001
      f+3     :    -0.000008
      f-3     :     0.000004
      g0      :     0.000000  g :     0.000000
      g+1     :     0.000000
      g-1     :     0.000000
      g+2     :     0.000000
      g-2     :     0.000000
      g+3     :     0.000000
      g-3     :    -0.000000
      g+4     :    -0.000000
      g-4     :     0.000000
  1 Ags       :     0.091400  s :     0.091400
      pz      :    -0.000057  p :     0.109084
      px      :     0.001620
      py      :     0.107520
      dz2     :     0.000423  d :     0.002641
      dxz     :    -0.000101
      dyz     :    -0.000303
      dx2y2   :     0.000720
      dxy     :     0.001901
      f0      :    -0.000001  f :     0.000016
      f+1     :    -0.000002
      f-1     :     0.000005
      f+2     :    -0.000001
      f-2     :    -0.000001
      f+3     :     0.000019
      f-3     :    -0.000004
      g0      :     0.000000  g :     0.000000
      g+1     :     0.000000
      g-1     :     0.000000
      g+2     :    -0.000000
      g-2     :     0.000000
      g+3     :    -0.000000
      g-3     :    -0.000000
      g+4     :    -0.000000
      g-4     :     0.000000
  2 Ags       :     0.091402  s :     0.091402
      pz      :    -0.000057  p :     0.109083
      px      :     0.001620
      py      :     0.107520
      dz2     :     0.000423  d :     0.002641
      dxz     :    -0.000101
      dyz     :    -0.000303
      dx2y2   :     0.000720
      dxy     :     0.001901
      f0      :    -0.000001  f :     0.000016
      f+1     :    -0.000002
      f-1     :     0.000005
      f+2     :    -0.000001
      f-2     :    -0.000001
      f+3     :     0.000019
      f-3     :    -0.000004
      g0      :     0.000000  g :     0.000000
      g+1     :     0.000000
      g-1     :     0.000000
      g+2     :    -0.000000
      g-2     :     0.000000
      g+3     :    -0.000000
      g-3     :    -0.000000
      g+4     :    -0.000000
      g-4     :     0.000000


                     *******************************
                     * LOEWDIN POPULATION ANALYSIS *
                     *******************************

-------------------------------------------
LOEWDIN ATOMIC CHARGES AND SPIN POPULATIONS
-------------------------------------------
   0 Ag:   -0.086790    0.472541
   1 Ag:    0.043395    0.263729
   2 Ag:    0.043395    0.263730

----------------------------------------------------
LOEWDIN REDUCED ORBITAL CHARGES AND SPIN POPULATIONS
----------------------------------------------------
CHARGE
  0 Ags       :     2.800576  s :     2.800576
      pz      :     2.011478  p :     6.343912
      px      :     2.020547
      py      :     2.311887
      dz2     :     2.000654  d :     9.940057
      dxz     :     1.995468
      dyz     :     1.987860
      dx2y2   :     1.991068
      dxy     :     1.965008
      f0      :     0.000172  f :     0.002219
      f+1     :     0.000141
      f-1     :     0.000380
      f+2     :     0.000090
      f-2     :     0.000242
      f+3     :     0.000787
      f-3     :     0.000406
      g0      :     0.000002  g :     0.000026
      g+1     :     0.000001
      g-1     :     0.000003
      g+2     :     0.000002
      g-2     :     0.000003
      g+3     :     0.000003
      g-3     :     0.000000
      g+4     :     0.000005
      g-4     :     0.000007
  1 Ags       :     2.617858  s :     2.617858
      pz      :     2.013397  p :     6.367549
      px      :     2.113142
      py      :     2.241010
      dz2     :     1.999856  d :     9.968529
      dxz     :     1.992680
      dyz     :     1.995622
      dx2y2   :     1.987639
      dxy     :     1.992732
      f0      :     0.000205  f :     0.002642
      f+1     :     0.000318
      f-1     :     0.000224
      f+2     :     0.000248
      f-2     :     0.000183
      f+3     :     0.000984
      f-3     :     0.000480
      g0      :     0.000002  g :     0.000027
      g+1     :     0.000002
      g-1     :     0.000001
      g+2     :     0.000003
      g-2     :     0.000002
      g+3     :     0.000003
      g-3     :     0.000001
      g+4     :     0.000007
      g-4     :     0.000006
  2 Ags       :     2.617859  s :     2.617859
      pz      :     2.013397  p :     6.367549
      px      :     2.113142
      py      :     2.241010
      dz2     :     1.999856  d :     9.968529
      dxz     :     1.992680
      dyz     :     1.995622
      dx2y2   :     1.987639
      dxy     :     1.992732
      f0      :     0.000205  f :     0.002642
      f+1     :     0.000318
      f-1     :     0.000224
      f+2     :     0.000248
      f-2     :     0.000183
      f+3     :     0.000984
      f-3     :     0.000480
      g0      :     0.000002  g :     0.000027
      g+1     :     0.000002
      g-1     :     0.000001
      g+2     :     0.000003
      g-2     :     0.000002
      g+3     :     0.000003
      g-3     :     0.000001
      g+4     :     0.000007
      g-4     :     0.000006

SPIN
  0 Ags       :     0.324627  s :     0.324627
      pz      :     0.000327  p :     0.136029
      px      :    -0.000187
      py      :     0.135890
      dz2     :     0.002255  d :     0.011838
      dxz     :     0.000003
      dyz     :     0.000450
      dx2y2   :     0.005543
      dxy     :     0.003586
      f0      :    -0.000001  f :     0.000047
      f+1     :    -0.000000
      f-1     :     0.000047
      f+2     :     0.000001
      f-2     :    -0.000001
      f+3     :     0.000000
      f-3     :     0.000001
      g0      :     0.000000  g :     0.000000
      g+1     :     0.000000
      g-1     :     0.000000
      g+2     :     0.000000
      g-2     :     0.000000
      g+3     :    -0.000000
      g-3     :     0.000000
      g+4     :     0.000000
      g-4     :     0.000000
  1 Ags       :     0.063838  s :     0.063838
      pz      :    -0.000061  p :     0.187863
      px      :     0.001741
      py      :     0.186183
      dz2     :     0.001470  d :     0.011884
      dxz     :    -0.000126
      dyz     :    -0.000202
      dx2y2   :     0.004726
      dxy     :     0.006014
      f0      :    -0.000000  f :     0.000144
      f+1     :     0.000000
      f-1     :     0.000033
      f+2     :    -0.000000
      f-2     :    -0.000001
      f+3     :     0.000115
      f-3     :    -0.000003
      g0      :     0.000000  g :     0.000001
      g+1     :     0.000000
      g-1     :     0.000000
      g+2     :     0.000000
      g-2     :     0.000000
      g+3     :    -0.000000
      g-3     :    -0.000000
      g+4     :     0.000000
      g-4     :     0.000000
  2 Ags       :     0.063839  s :     0.063839
      pz      :    -0.000061  p :     0.187863
      px      :     0.001741
      py      :     0.186183
      dz2     :     0.001470  d :     0.011884
      dxz     :    -0.000126
      dyz     :    -0.000202
      dx2y2   :     0.004726
      dxy     :     0.006014
      f0      :    -0.000000  f :     0.000144
      f+1     :     0.000000
      f-1     :     0.000033
      f+2     :    -0.000000
      f-2     :    -0.000001
      f+3     :     0.000115
      f-3     :    -0.000003
      g0      :     0.000000  g :     0.000001
      g+1     :     0.000000
      g-1     :     0.000000
      g+2     :     0.000000
      g-2     :     0.000000
      g+3     :    -0.000000
      g-3     :    -0.000000
      g+4     :     0.000000
      g-4     :     0.000000


                      *****************************
                      * MAYER POPULATION ANALYSIS *
                      *****************************

  NA   - Mulliken gross atomic population
  ZA   - Total nuclear charge
  QA   - Mulliken gross atomic charge
  VA   - Mayer's total valence
  BVA  - Mayer's bonded valence
  FA   - Mayer's free valence

  ATOM       NA         ZA         QA         VA         BVA        FA
  0 Ag    19.1367    19.0000    -0.1367     1.3716     0.9659     0.4057
  1 Ag    18.9316    19.0000     0.0684     1.3133     1.2322     0.0811
  2 Ag    18.9316    19.0000     0.0684     1.3133     1.2322     0.0811

  Mayer bond orders larger than 0.100000
B(  0-Ag,  1-Ag) :   0.4830 B(  0-Ag,  2-Ag) :   0.4830 B(  1-Ag,  2-Ag) :   0.7492 


-------
TIMINGS
-------

Total SCF time: 0 days 0 hours 0 min 12 sec 

Total time                  ....      12.020 sec
Sum of individual times     ....      11.734 sec  ( 97.6%)

Fock matrix formation       ....       9.839 sec  ( 81.9%)
  XC integration            ....       0.760 sec  (  7.7% of F)
    Basis function eval.    ....       0.072 sec  (  9.5% of XC)
    Density eval.           ....       0.081 sec  ( 10.7% of XC)
    XC-Functional eval.     ....       0.037 sec  (  4.9% of XC)
    XC-Potential eval.      ....       0.144 sec  ( 18.9% of XC)
Diagonalization             ....       0.130 sec  (  1.1%)
Density matrix formation    ....       0.022 sec  (  0.2%)
Population analysis         ....       0.010 sec  (  0.1%)
Initial guess               ....       1.261 sec  ( 10.5%)
Orbital Transformation      ....       0.000 sec  (  0.0%)
Orbital Orthonormalization  ....       0.000 sec  (  0.0%)
DIIS solution               ....       0.045 sec  (  0.4%)
Grid generation             ....       0.427 sec  (  3.6%)

-------------------------   --------------------
FINAL SINGLE POINT ENERGY      -440.892276081471
-------------------------   --------------------


----------------------------------------------------------------------------
                           ORCA NUMERICAL GRADIENT
                              (24-process run)
----------------------------------------------------------------------------

I state                        ... 1
J state                        ... 0
Number of atoms                ... 3
Derivative's order of accuracy ... 2
Central differences            ... used
Number of displacements        ... 18
Numerical increment            ... 5.000e-03 bohr
Translation invariance         ... used

The output will be reduced. Please look at the following files:
SCF program output             ... >Ag03N0_D3H.lastscf
Integral program output        ... >Ag03N0_D3H.lastint
Gradient program output        ... >Ag03N0_D3H.lastgrad


     Note:   There are more processes than displacements to do
     ===>:   Reducing number of processes to   6

             <<<Displacing   2/coordinate 3 (+)>>>
             <<<Displacing   3/coordinate 2 (+)>>>
             <<<Displacing   2/coordinate 2 (+)>>>
             <<<Displacing   2/coordinate 1 (+)>>>
             <<<Displacing   3/coordinate 3 (+)>>>
             <<<Displacing   3/coordinate 1 (+)>>>
             <<<Displacing   3/coordinate 3 (-)>>>
             <<<Displacing   2/coordinate 3 (-)>>>
             <<<Displacing   2/coordinate 1 (-)>>>
             <<<Displacing   3/coordinate 1 (-)>>>
             <<<Displacing   3/coordinate 2 (-)>>>
             <<<Displacing   2/coordinate 2 (-)>>>

ORCA finished by error termination in SCF
Calling Command: /sw/apps/orca/orca_4_2_0_linux_x86-64_openmpi314/orca_scf Ag03N0_D3H.proc1.gbw b >Ag03N0_D3H.proc1.lastscf
Check for SCF-logfiles
ORCA_NUMFREQ: ORCA finished with an error in the energy calculation
              Please check Ag03N0_D3H.lastint.dpl4 for details
              Please check Ag03N0_D3H.lastscf.dpl4 for details

ORCA finished by error termination in SCF
Calling Command: /sw/apps/orca/orca_4_2_0_linux_x86-64_openmpi314/orca_scf Ag03N0_D3H.proc4.gbw b >Ag03N0_D3H.proc4.lastscf
Check for SCF-logfiles
ORCA_NUMFREQ: ORCA finished with an error in the energy calculation
              Please check Ag03N0_D3H.lastint.dpl7 for details
              Please check Ag03N0_D3H.lastscf.dpl7 for details

GRAD(  4) is missing. ! - Please check !
GRAD(  7) is missing. ! - Please check !

############################################################################

WARNING: It seems that the Numerical Gradient ISN'T COMPLETE!
         Please check your results VERY carefully!
         For possible error information check files Ag03N0_D3H.last*.dpl*

############################################################################



------------------------------
CARTESIAN GRADIENT (NUMERICAL)
-------------------------------
   1   Ag  :   -0.000000028   -0.000000000   -0.000000004
   2   Ag  :    0.002435336    0.000000000    0.000000004
   3   Ag  :   -0.002435308    0.000000000    0.000000001

Norm of the cartesian gradient     ...    0.003444065
RMS gradient                       ...    0.001148022
MAX gradient                       ...    0.002435336

-------
TIMINGS
-------

Total numerical gradient time      ...      958.339 sec


----------------------------------------------------------------------------
                           ORCA NUMERICAL FREQUENCIES
                              (24-process run)
----------------------------------------------------------------------------

Number of atoms                ... 3
Central differences            ... used
Number of displacements        ... 18
Numerical increment            ... 5.000e-03 bohr
IR-spectrum generation         ... on
Raman-spectrum generation      ... off
Surface Crossing Hessian       ... off

 WARNING: There are more processes than displacements to do
  ====> : Reducing number of processes to   9

The output will be reduced. Please look at the following files:
SCF program output             ... >Ag03N0_D3H.lastscf
Integral program output        ... >Ag03N0_D3H.lastint
Gradient program output        ... >Ag03N0_D3H.lastgrad
Dipole moment program output   ... >Ag03N0_D3H.lastmom
AutoCI program output          ... >Ag03N0_D3H.lastautoci


         <<< Energy and Gradient at the input geometry >>>

ORCA finished by error termination in SCF
Calling Command: /sw/apps/orca/orca_4_2_0_linux_x86-64_openmpi314/orca_scf Ag03N0_D3H.proc4.gbw b >Ag03N0_D3H.proc4.lastscf
Check for SCF-logfiles
ORCA_NUMFREQ: ORCA finished with an error in the energy calculation
              Please check Ag03N0_D3H.lastint.dpl7 for details
              Please check Ag03N0_D3H.lastscf.dpl7 for details

ORCA finished by error termination in SCF
Calling Command: /sw/apps/orca/orca_4_2_0_linux_x86-64_openmpi314/orca_scf Ag03N0_D3H.proc1.gbw b >Ag03N0_D3H.proc1.lastscf
Check for SCF-logfiles
ORCA_NUMFREQ: ORCA finished with an error in the energy calculation
              Please check Ag03N0_D3H.lastint.dpl4 for details
              Please check Ag03N0_D3H.lastscf.dpl4 for details

GRAD(  4) is missing. ! - Please check !
GRAD(  7) is missing. ! - Please check !

############################################################################

WARNING: It seems that the Numerical Gradient ISN'T COMPLETE!
         Please check your results VERY carefully!
         For possible error information check files Ag03N0_D3H.last*.dpl*

############################################################################



        <<< Energy and Gradient at displaced geometries >>>
             <<<Displacing   3/coordinate 3 (+)>>>
             <<<Displacing   3/coordinate 1 (+)>>>
             <<<Displacing   1/coordinate 1 (+)>>>
             <<<Displacing   3/coordinate 2 (+)>>>
             <<<Displacing   1/coordinate 2 (+)>>>
             <<<Displacing   2/coordinate 3 (+)>>>
             <<<Displacing   2/coordinate 2 (+)>>>
             <<<Displacing   1/coordinate 3 (+)>>>
             <<<Displacing   2/coordinate 1 (+)>>>

ORCA finished by error termination in SCF
Calling Command: /sw/apps/orca/orca_4_2_0_linux_x86-64_openmpi314/orca_scf Ag03N0_D3H.proc0.gbw b >Ag03N0_D3H.proc0.lastscf
Check for SCF-logfiles
ORCA_NUMFREQ: ORCA finished with an error in the energy calculation
              Please check Ag03N0_D3H.lastint.dpl0 for details
              Please check Ag03N0_D3H.lastscf.dpl0 for details

ORCA finished by error termination in SCF
Calling Command: /sw/apps/orca/orca_4_2_0_linux_x86-64_openmpi314/orca_scf Ag03N0_D3H.proc3.proc0.gbw b >Ag03N0_D3H.proc3.proc0.lastscf
Check for SCF-logfiles
ORCA_NUMFREQ: ORCA finished with an error in the energy calculation
              Please check Ag03N0_D3H.proc3.lastint.dpl3 for details
              Please check Ag03N0_D3H.proc3.lastscf.dpl3 for details

ORCA finished by error termination in SCF
Calling Command: /sw/apps/orca/orca_4_2_0_linux_x86-64_openmpi314/orca_scf Ag03N0_D3H.proc6.proc0.gbw b >Ag03N0_D3H.proc6.proc0.lastscf
Check for SCF-logfiles
ORCA_NUMFREQ: ORCA finished with an error in the energy calculation
              Please check Ag03N0_D3H.proc6.lastint.dpl3 for details
              Please check Ag03N0_D3H.proc6.lastscf.dpl3 for details

ORCA finished by error termination in SCF
Calling Command: /sw/apps/orca/orca_4_2_0_linux_x86-64_openmpi314/orca_scf Ag03N0_D3H.proc7.proc0.gbw b >Ag03N0_D3H.proc7.proc0.lastscf
Check for SCF-logfiles
ORCA_NUMFREQ: ORCA finished with an error in the energy calculation
              Please check Ag03N0_D3H.proc7.lastint.dpl3 for details
              Please check Ag03N0_D3H.proc7.lastscf.dpl3 for details

ORCA finished by error termination in SCF
Calling Command: /sw/apps/orca/orca_4_2_0_linux_x86-64_openmpi314/orca_scf Ag03N0_D3H.proc4.proc0.gbw b >Ag03N0_D3H.proc4.proc0.lastscf
Check for SCF-logfiles
ORCA_NUMFREQ: ORCA finished with an error in the energy calculation
              Please check Ag03N0_D3H.proc4.lastint.dpl3 for details
              Please check Ag03N0_D3H.proc4.lastscf.dpl3 for details

ORCA finished by error termination in SCF
Calling Command: /sw/apps/orca/orca_4_2_0_linux_x86-64_openmpi314/orca_scf Ag03N0_D3H.proc1.proc0.gbw b >Ag03N0_D3H.proc1.proc0.lastscf
Check for SCF-logfiles
ORCA_NUMFREQ: ORCA finished with an error in the energy calculation
              Please check Ag03N0_D3H.proc1.lastint.dpl4 for details
              Please check Ag03N0_D3H.proc1.lastscf.dpl4 for details

ORCA finished by error termination in SCF
Calling Command: /sw/apps/orca/orca_4_2_0_linux_x86-64_openmpi314/orca_scf Ag03N0_D3H.proc5.proc0.gbw b >Ag03N0_D3H.proc5.proc0.lastscf
Check for SCF-logfiles
ORCA_NUMFREQ: ORCA finished with an error in the energy calculation
              Please check Ag03N0_D3H.proc5.lastint.dpl4 for details
              Please check Ag03N0_D3H.proc5.lastscf.dpl4 for details

ORCA finished by error termination in SCF
Calling Command: /sw/apps/orca/orca_4_2_0_linux_x86-64_openmpi314/orca_scf Ag03N0_D3H.proc8.proc0.gbw b >Ag03N0_D3H.proc8.proc0.lastscf
Check for SCF-logfiles
ORCA_NUMFREQ: ORCA finished with an error in the energy calculation
              Please check Ag03N0_D3H.proc8.lastint.dpl4 for details
              Please check Ag03N0_D3H.proc8.lastscf.dpl4 for details

ORCA finished by error termination in SCF
Calling Command: /sw/apps/orca/orca_4_2_0_linux_x86-64_openmpi314/orca_scf Ag03N0_D3H.proc2.proc0.gbw b >Ag03N0_D3H.proc2.proc0.lastscf
Check for SCF-logfiles
ORCA_NUMFREQ: ORCA finished with an error in the energy calculation
              Please check Ag03N0_D3H.proc2.lastint.dpl4 for details
              Please check Ag03N0_D3H.proc2.lastscf.dpl4 for details

ORCA finished by error termination in SCF
Calling Command: /sw/apps/orca/orca_4_2_0_linux_x86-64_openmpi314/orca_scf Ag03N0_D3H.proc7.proc0.gbw b >Ag03N0_D3H.proc7.proc0.lastscf
Check for SCF-logfiles
ORCA_NUMFREQ: ORCA finished with an error in the energy calculation
              Please check Ag03N0_D3H.proc7.lastint.dpl4 for details
              Please check Ag03N0_D3H.proc7.lastscf.dpl4 for details

ORCA finished by error termination in SCF
Calling Command: /sw/apps/orca/orca_4_2_0_linux_x86-64_openmpi314/orca_scf Ag03N0_D3H.proc3.proc0.gbw b >Ag03N0_D3H.proc3.proc0.lastscf
Check for SCF-logfiles
ORCA_NUMFREQ: ORCA finished with an error in the energy calculation
              Please check Ag03N0_D3H.proc3.lastint.dpl6 for details
              Please check Ag03N0_D3H.proc3.lastscf.dpl6 for details

ORCA finished by error termination in SCF
Calling Command: /sw/apps/orca/orca_4_2_0_linux_x86-64_openmpi314/orca_scf Ag03N0_D3H.proc1.proc0.gbw b >Ag03N0_D3H.proc1.proc0.lastscf
Check for SCF-logfiles
ORCA_NUMFREQ: ORCA finished with an error in the energy calculation
              Please check Ag03N0_D3H.proc1.lastint.dpl7 for details
              Please check Ag03N0_D3H.proc1.lastscf.dpl7 for details

GRAD(  3) is missing. ! - Please check !
GRAD(  6) is missing. ! - Please check !

############################################################################

WARNING: It seems that the Numerical Gradient ISN'T COMPLETE!
         Please check your results VERY carefully!
         For possible error information check files Ag03N0_D3H.proc3.last*.dpl*

############################################################################


             <<<Displacing   2/coordinate 1 (-)>>>

GRAD(  4) is missing. ! - Please check !
GRAD(  7) is missing. ! - Please check !

############################################################################

WARNING: It seems that the Numerical Gradient ISN'T COMPLETE!
         Please check your results VERY carefully!
         For possible error information check files Ag03N0_D3H.proc1.last*.dpl*

############################################################################


             <<<Displacing   1/coordinate 2 (-)>>>

ORCA finished by error termination in SCF
Calling Command: /sw/apps/orca/orca_4_2_0_linux_x86-64_openmpi314/orca_scf Ag03N0_D3H.proc4.proc0.gbw b >Ag03N0_D3H.proc4.proc0.lastscf
Check for SCF-logfiles
ORCA_NUMFREQ: ORCA finished with an error in the energy calculation
              Please check Ag03N0_D3H.proc4.lastint.dpl6 for details
              Please check Ag03N0_D3H.proc4.lastscf.dpl6 for details

ORCA finished by error termination in SCF
Calling Command: /sw/apps/orca/orca_4_2_0_linux_x86-64_openmpi314/orca_scf Ag03N0_D3H.proc5.proc0.gbw b >Ag03N0_D3H.proc5.proc0.lastscf
Check for SCF-logfiles
ORCA_NUMFREQ: ORCA finished with an error in the energy calculation
              Please check Ag03N0_D3H.proc5.lastint.dpl7 for details
              Please check Ag03N0_D3H.proc5.lastscf.dpl7 for details

ORCA finished by error termination in SCF
Calling Command: /sw/apps/orca/orca_4_2_0_linux_x86-64_openmpi314/orca_scf Ag03N0_D3H.proc8.proc0.gbw b >Ag03N0_D3H.proc8.proc0.lastscf
Check for SCF-logfiles
ORCA_NUMFREQ: ORCA finished with an error in the energy calculation
              Please check Ag03N0_D3H.proc8.lastint.dpl7 for details
              Please check Ag03N0_D3H.proc8.lastscf.dpl7 for details

ORCA finished by error termination in SCF
Calling Command: /sw/apps/orca/orca_4_2_0_linux_x86-64_openmpi314/orca_scf Ag03N0_D3H.proc2.proc0.gbw b >Ag03N0_D3H.proc2.proc0.lastscf
Check for SCF-logfiles
ORCA_NUMFREQ: ORCA finished with an error in the energy calculation
              Please check Ag03N0_D3H.proc2.lastint.dpl7 for details
              Please check Ag03N0_D3H.proc2.lastscf.dpl7 for details

GRAD(  4) is missing. ! - Please check !
GRAD(  7) is missing. ! - Please check !

############################################################################

WARNING: It seems that the Numerical Gradient ISN'T COMPLETE!
         Please check your results VERY carefully!
         For possible error information check files Ag03N0_D3H.proc5.last*.dpl*

############################################################################


             <<<Displacing   2/coordinate 3 (-)>>>

GRAD(  4) is missing. ! - Please check !
GRAD(  7) is missing. ! - Please check !

############################################################################

WARNING: It seems that the Numerical Gradient ISN'T COMPLETE!
         Please check your results VERY carefully!
         For possible error information check files Ag03N0_D3H.proc8.last*.dpl*

############################################################################


             <<<Displacing   3/coordinate 3 (-)>>>

GRAD(  4) is missing. ! - Please check !
GRAD(  7) is missing. ! - Please check !

############################################################################

WARNING: It seems that the Numerical Gradient ISN'T COMPLETE!
         Please check your results VERY carefully!
         For possible error information check files Ag03N0_D3H.proc2.last*.dpl*

############################################################################


             <<<Displacing   1/coordinate 3 (-)>>>

ORCA finished by error termination in SCF
Calling Command: /sw/apps/orca/orca_4_2_0_linux_x86-64_openmpi314/orca_scf Ag03N0_D3H.proc7.proc0.gbw b >Ag03N0_D3H.proc7.proc0.lastscf
Check for SCF-logfiles
ORCA_NUMFREQ: ORCA finished with an error in the energy calculation
              Please check Ag03N0_D3H.proc7.lastint.dpl6 for details
              Please check Ag03N0_D3H.proc7.lastscf.dpl6 for details

ORCA finished by error termination in SCF
Calling Command: /sw/apps/orca/orca_4_2_0_linux_x86-64_openmpi314/orca_scf Ag03N0_D3H.proc4.proc0.gbw b >Ag03N0_D3H.proc4.proc0.lastscf
Check for SCF-logfiles
ORCA_NUMFREQ: ORCA finished with an error in the energy calculation
              Please check Ag03N0_D3H.proc4.lastint.dpl7 for details
              Please check Ag03N0_D3H.proc4.lastscf.dpl7 for details

ORCA finished by error termination in SCF
Calling Command: /sw/apps/orca/orca_4_2_0_linux_x86-64_openmpi314/orca_scf Ag03N0_D3H.proc6.proc0.gbw b >Ag03N0_D3H.proc6.proc0.lastscf
Check for SCF-logfiles
ORCA_NUMFREQ: ORCA finished with an error in the energy calculation
              Please check Ag03N0_D3H.proc6.lastint.dpl7 for details
              Please check Ag03N0_D3H.proc6.lastscf.dpl7 for details

GRAD(  3) is missing. ! - Please check !
GRAD(  7) is missing. ! - Please check !

############################################################################

WARNING: It seems that the Numerical Gradient ISN'T COMPLETE!
         Please check your results VERY carefully!
         For possible error information check files Ag03N0_D3H.proc6.last*.dpl*

############################################################################


             <<<Displacing   3/coordinate 1 (-)>>>

GRAD(  3) is missing. ! - Please check !
GRAD(  4) is missing. ! - Please check !
GRAD(  6) is missing. ! - Please check !

############################################################################

WARNING: It seems that the Numerical Gradient ISN'T COMPLETE!
         Please check your results VERY carefully!
         For possible error information check files Ag03N0_D3H.proc7.last*.dpl*

############################################################################


             <<<Displacing   3/coordinate 2 (-)>>>

GRAD(  3) is missing. ! - Please check !
GRAD(  6) is missing. ! - Please check !
GRAD(  7) is missing. ! - Please check !

############################################################################

WARNING: It seems that the Numerical Gradient ISN'T COMPLETE!
         Please check your results VERY carefully!
         For possible error information check files Ag03N0_D3H.proc4.last*.dpl*

############################################################################


             <<<Displacing   2/coordinate 2 (-)>>>

ORCA finished by error termination in SCF
Calling Command: /sw/apps/orca/orca_4_2_0_linux_x86-64_openmpi314/orca_scf Ag03N0_D3H.proc8.proc0.gbw b >Ag03N0_D3H.proc8.proc0.lastscf
Check for SCF-logfiles
ORCA_NUMFREQ: ORCA finished with an error in the energy calculation
              Please check Ag03N0_D3H.proc8.lastint.dpl4 for details
              Please check Ag03N0_D3H.proc8.lastscf.dpl4 for details

ORCA finished by error termination in SCF
Calling Command: /sw/apps/orca/orca_4_2_0_linux_x86-64_openmpi314/orca_scf Ag03N0_D3H.proc5.proc0.gbw b >Ag03N0_D3H.proc5.proc0.lastscf
Check for SCF-logfiles
ORCA_NUMFREQ: ORCA finished with an error in the energy calculation
              Please check Ag03N0_D3H.proc5.lastint.dpl4 for details
              Please check Ag03N0_D3H.proc5.lastscf.dpl4 for details

ORCA finished by error termination in SCF
Calling Command: /sw/apps/orca/orca_4_2_0_linux_x86-64_openmpi314/orca_scf Ag03N0_D3H.proc2.proc0.gbw b >Ag03N0_D3H.proc2.proc0.lastscf
Check for SCF-logfiles
ORCA_NUMFREQ: ORCA finished with an error in the energy calculation
              Please check Ag03N0_D3H.proc2.lastint.dpl4 for details
              Please check Ag03N0_D3H.proc2.lastscf.dpl4 for details

ORCA finished by error termination in SCF
Calling Command: /sw/apps/orca/orca_4_2_0_linux_x86-64_openmpi314/orca_scf Ag03N0_D3H.proc3.proc0.gbw b >Ag03N0_D3H.proc3.proc0.lastscf
Check for SCF-logfiles
ORCA_NUMFREQ: ORCA finished with an error in the energy calculation
              Please check Ag03N0_D3H.proc3.lastint.dpl4 for details
              Please check Ag03N0_D3H.proc3.lastscf.dpl4 for details

ORCA finished by error termination in SCF
Calling Command: /sw/apps/orca/orca_4_2_0_linux_x86-64_openmpi314/orca_scf Ag03N0_D3H.proc7.gbw b >Ag03N0_D3H.proc7.lastscf
Check for SCF-logfiles
ORCA_NUMFREQ: ORCA finished with an error in the energy calculation
              Please check Ag03N0_D3H.lastint.dpl7 for details
              Please check Ag03N0_D3H.lastscf.dpl7 for details

ORCA finished by error termination in SCF
Calling Command: /sw/apps/orca/orca_4_2_0_linux_x86-64_openmpi314/orca_scf Ag03N0_D3H.proc6.proc0.gbw b >Ag03N0_D3H.proc6.proc0.lastscf
Check for SCF-logfiles
ORCA_NUMFREQ: ORCA finished with an error in the energy calculation
              Please check Ag03N0_D3H.proc6.lastint.dpl3 for details
              Please check Ag03N0_D3H.proc6.lastscf.dpl3 for details

ORCA finished by error termination in SCF
Calling Command: /sw/apps/orca/orca_4_2_0_linux_x86-64_openmpi314/orca_scf Ag03N0_D3H.proc4.gbw b >Ag03N0_D3H.proc4.lastscf
Check for SCF-logfiles
ORCA_NUMFREQ: ORCA finished with an error in the energy calculation
              Please check Ag03N0_D3H.lastint.dpl4 for details
              Please check Ag03N0_D3H.lastscf.dpl4 for details

ORCA finished by error termination in SCF
Calling Command: /sw/apps/orca/orca_4_2_0_linux_x86-64_openmpi314/orca_scf Ag03N0_D3H.proc3.proc0.gbw b >Ag03N0_D3H.proc3.proc0.lastscf
Check for SCF-logfiles
ORCA_NUMFREQ: ORCA finished with an error in the energy calculation
              Please check Ag03N0_D3H.proc3.lastint.dpl6 for details
              Please check Ag03N0_D3H.proc3.lastscf.dpl6 for details

ORCA finished by error termination in SCF
Calling Command: /sw/apps/orca/orca_4_2_0_linux_x86-64_openmpi314/orca_scf Ag03N0_D3H.proc8.proc0.gbw b >Ag03N0_D3H.proc8.proc0.lastscf
Check for SCF-logfiles
ORCA_NUMFREQ: ORCA finished with an error in the energy calculation
              Please check Ag03N0_D3H.proc8.lastint.dpl7 for details
              Please check Ag03N0_D3H.proc8.lastscf.dpl7 for details

ORCA finished by error termination in SCF
Calling Command: /sw/apps/orca/orca_4_2_0_linux_x86-64_openmpi314/orca_scf Ag03N0_D3H.proc5.proc0.gbw b >Ag03N0_D3H.proc5.proc0.lastscf
Check for SCF-logfiles
ORCA_NUMFREQ: ORCA finished with an error in the energy calculation
              Please check Ag03N0_D3H.proc5.lastint.dpl7 for details
              Please check Ag03N0_D3H.proc5.lastscf.dpl7 for details

ORCA finished by error termination in SCF
Calling Command: /sw/apps/orca/orca_4_2_0_linux_x86-64_openmpi314/orca_scf Ag03N0_D3H.proc2.proc0.gbw b >Ag03N0_D3H.proc2.proc0.lastscf
Check for SCF-logfiles
ORCA_NUMFREQ: ORCA finished with an error in the energy calculation
              Please check Ag03N0_D3H.proc2.lastint.dpl7 for details
              Please check Ag03N0_D3H.proc2.lastscf.dpl7 for details

GRAD(  4) is missing. ! - Please check !
GRAD(  7) is missing. ! - Please check !

############################################################################

WARNING: It seems that the Numerical Gradient ISN'T COMPLETE!
         Please check your results VERY carefully!
         For possible error information check files Ag03N0_D3H.proc8.last*.dpl*

############################################################################



GRAD(  4) is missing. ! - Please check !
GRAD(  7) is missing. ! - Please check !

############################################################################

WARNING: It seems that the Numerical Gradient ISN'T COMPLETE!
         Please check your results VERY carefully!
         For possible error information check files Ag03N0_D3H.proc5.last*.dpl*

############################################################################



GRAD(  4) is missing. ! - Please check !
GRAD(  7) is missing. ! - Please check !

############################################################################

WARNING: It seems that the Numerical Gradient ISN'T COMPLETE!
         Please check your results VERY carefully!
         For possible error information check files Ag03N0_D3H.proc2.last*.dpl*

############################################################################



ORCA finished by error termination in SCF
Calling Command: /sw/apps/orca/orca_4_2_0_linux_x86-64_openmpi314/orca_scf Ag03N0_D3H.proc6.proc0.gbw b >Ag03N0_D3H.proc6.proc0.lastscf
Check for SCF-logfiles
ORCA_NUMFREQ: ORCA finished with an error in the energy calculation
              Please check Ag03N0_D3H.proc6.lastint.dpl6 for details
              Please check Ag03N0_D3H.proc6.lastscf.dpl6 for details

GRAD(  4) is missing. ! - Please check !
GRAD(  6) is missing. ! - Please check !

############################################################################

WARNING: It seems that the Numerical Gradient ISN'T COMPLETE!
         Please check your results VERY carefully!
[...]
      f+3     :     0.000006
      f-3     :     0.000005
      g0      :     0.000000  g :    -0.000000
      g+1     :     0.000000
      g-1     :     0.000000
      g+2     :    -0.000000
      g-2     :     0.000000
      g+3     :    -0.000000
      g-3     :    -0.000000
      g+4     :    -0.000000
      g-4     :     0.000000


                     *******************************
                     * LOEWDIN POPULATION ANALYSIS *
                     *******************************

-------------------------------------------
LOEWDIN ATOMIC CHARGES AND SPIN POPULATIONS
-------------------------------------------
   0 Ag:   -0.014570    0.397196
   1 Ag:    0.027805    0.208252
   2 Ag:   -0.013236    0.394552

----------------------------------------------------
LOEWDIN REDUCED ORBITAL CHARGES AND SPIN POPULATIONS
----------------------------------------------------
CHARGE
  0 Ags       :     2.763553  s :     2.763553
      pz      :     2.009314  p :     6.287301
      px      :     2.053483
      py      :     2.224504
      dz2     :     2.000396  d :     9.962148
      dxz     :     1.997300
      dyz     :     1.991273
      dx2y2   :     1.993644
      dxy     :     1.979535
      f0      :     0.000119  f :     0.001551
      f+1     :     0.000084
      f-1     :     0.000280
      f+2     :     0.000097
      f-2     :     0.000144
      f+3     :     0.000520
      f-3     :     0.000307
      g0      :     0.000001  g :     0.000017
      g+1     :     0.000001
      g-1     :     0.000002
      g+2     :     0.000001
      g-2     :     0.000002
      g+3     :     0.000002
      g-3     :     0.000000
      g+4     :     0.000003
      g-4     :     0.000005
  1 Ags       :     2.603845  s :     2.603845
      pz      :     2.014451  p :     6.391194
      px      :     2.156626
      py      :     2.220117
      dz2     :     1.999421  d :     9.974263
      dxz     :     1.993385
      dyz     :     1.994908
      dx2y2   :     1.994992
      dxy     :     1.991556
      f0      :     0.000229  f :     0.002864
      f+1     :     0.000323
      f-1     :     0.000255
      f+2     :     0.000299
      f-2     :     0.000178
      f+3     :     0.001011
      f-3     :     0.000569
      g0      :     0.000002  g :     0.000029
      g+1     :     0.000002
      g-1     :     0.000002
      g+2     :     0.000004
      g-2     :     0.000002
      g+3     :     0.000003
      g-3     :     0.000001
      g+4     :     0.000007
      g-4     :     0.000006
  2 Ags       :     2.762094  s :     2.762094
      pz      :     2.009351  p :     6.287316
      px      :     2.135207
      py      :     2.142758
      dz2     :     2.000389  d :     9.962245
      dxz     :     1.991391
      dyz     :     1.997183
      dx2y2   :     1.981354
      dxy     :     1.991928
      f0      :     0.000120  f :     0.001564
      f+1     :     0.000284
      f-1     :     0.000082
      f+2     :     0.000185
      f-2     :     0.000058
      f+3     :     0.000524
      f-3     :     0.000310
      g0      :     0.000001  g :     0.000017
      g+1     :     0.000002
      g-1     :     0.000000
      g+2     :     0.000002
      g-2     :     0.000001
      g+3     :     0.000002
      g-3     :     0.000000
      g+4     :     0.000004
      g-4     :     0.000004

SPIN
  0 Ags       :     0.294912  s :     0.294912
      pz      :     0.000268  p :     0.094491
      px      :     0.037273
      py      :     0.056950
      dz2     :     0.001399  d :     0.007762
      dxz     :    -0.000034
      dyz     :     0.000170
      dx2y2   :     0.002566
      dxy     :     0.003660
      f0      :     0.000000  f :     0.000031
      f+1     :     0.000000
      f-1     :     0.000020
      f+2     :     0.000001
      f-2     :     0.000001
      f+3     :     0.000005
      f-3     :     0.000004
      g0      :     0.000000  g :     0.000000
      g+1     :     0.000000
      g-1     :     0.000000
      g+2     :     0.000000
      g-2     :    -0.000000
      g+3     :    -0.000000
      g-3     :    -0.000000
      g+4     :     0.000000
      g-4     :    -0.000000
  1 Ags       :    -0.045795  s :    -0.045795
      pz      :    -0.000233  p :     0.235496
      px      :     0.063196
      py      :     0.172533
      dz2     :     0.001492  d :     0.018301
      dxz     :    -0.000247
      dyz     :    -0.000329
      dx2y2   :     0.013816
      dxy     :     0.003570
      f0      :     0.000001  f :     0.000248
      f+1     :     0.000018
      f-1     :     0.000031
      f+2     :     0.000001
      f-2     :     0.000001
      f+3     :     0.000192
      f-3     :     0.000005
      g0      :     0.000000  g :     0.000001
      g+1     :     0.000000
      g-1     :     0.000000
      g+2     :     0.000000
      g-2     :     0.000000
      g+3     :     0.000000
      g-3     :    -0.000000
      g+4     :     0.000000
      g-4     :     0.000000
  2 Ags       :     0.291957  s :     0.291957
      pz      :     0.000267  p :     0.094801
      px      :     0.004215
      py      :     0.090319
      dz2     :     0.001398  d :     0.007763
      dxz     :     0.000083
      dyz     :     0.000049
      dx2y2   :     0.000218
      dxy     :     0.006016
      f0      :     0.000000  f :     0.000031
      f+1     :     0.000005
      f-1     :     0.000015
      f+2     :     0.000000
      f-2     :     0.000001
      f+3     :     0.000006
      f-3     :     0.000003
      g0      :     0.000000  g :     0.000000
      g+1     :     0.000000
      g-1     :     0.000000
      g+2     :    -0.000000
      g-2     :     0.000000
      g+3     :    -0.000000
      g-3     :    -0.000000
      g+4     :    -0.000000
      g-4     :     0.000000


                      *****************************
                      * MAYER POPULATION ANALYSIS *
                      *****************************

  NA   - Mulliken gross atomic population
  ZA   - Total nuclear charge
  QA   - Mulliken gross atomic charge
  VA   - Mayer's total valence
  BVA  - Mayer's bonded valence
  FA   - Mayer's free valence

  ATOM       NA         ZA         QA         VA         BVA        FA
  0 Ag    19.0595    19.0000    -0.0595     1.2725     0.9869     0.2856
  1 Ag    18.8827    19.0000     0.1173     1.3034     1.2661     0.0373
  2 Ag    19.0578    19.0000    -0.0578     1.2721     0.9907     0.2814

  Mayer bond orders larger than 0.100000
B(  0-Ag,  1-Ag) :   0.6312 B(  0-Ag,  2-Ag) :   0.3557 B(  1-Ag,  2-Ag) :   0.6349 


-------
TIMINGS
-------

Total SCF time: 0 days 0 hours 0 min 3 sec 

Total time                  ....       3.951 sec
Sum of individual times     ....       3.647 sec  ( 92.3%)

Fock matrix formation       ....       3.184 sec  ( 80.6%)
  XC integration            ....       0.198 sec  (  6.2% of F)
    Basis function eval.    ....       0.025 sec  ( 12.8% of XC)
    Density eval.           ....       0.029 sec  ( 14.6% of XC)
    XC-Functional eval.     ....       0.013 sec  (  6.7% of XC)
    XC-Potential eval.      ....       0.043 sec  ( 21.7% of XC)
Diagonalization             ....       0.048 sec  (  1.2%)
Density matrix formation    ....       0.009 sec  (  0.2%)
Population analysis         ....       0.010 sec  (  0.3%)
Initial guess               ....       0.020 sec  (  0.5%)
Orbital Transformation      ....       0.000 sec  (  0.0%)
Orbital Orthonormalization  ....       0.013 sec  (  0.3%)
DIIS solution               ....       0.014 sec  (  0.3%)
Grid generation             ....       0.363 sec  (  9.2%)

-------------------------   --------------------
FINAL SINGLE POINT ENERGY      -440.895992922380
-------------------------   --------------------

                                *** OPTIMIZATION RUN DONE ***

                            ***************************************
                            *     ORCA property calculations      *
                            ***************************************

                                    ---------------------
                                    Active property flags
                                    ---------------------
   (+) Dipole Moment


------------------------------------------------------------------------------
                       ORCA ELECTRIC PROPERTIES CALCULATION
------------------------------------------------------------------------------

Dipole Moment Calculation                       ... on
Quadrupole Moment Calculation                   ... off
Polarizability Calculation                      ... off
GBWName                                         ... Ag03N0_D3H.gbw
Electron density file                           ... Ag03N0_D3H.scfp
The origin for moment calculation is the CENTER OF MASS  = (-0.000000, -0.000001  0.000000)

-------------
DIPOLE MOMENT
-------------
                                X             Y             Z
Electronic contribution:      0.20400      -0.12330      -0.00000
Nuclear contribution   :     -0.00000       0.00000       0.00000
                        -----------------------------------------
Total Dipole Moment    :      0.20400      -0.12330      -0.00000
                        -----------------------------------------
Magnitude (a.u.)       :      0.23836
Magnitude (Debye)      :      0.60587



--------------------
Rotational spectrum 
--------------------
 
Rotational constants in cm-1:     0.049748     0.034708     0.020445 
Rotational constants in MHz :  1491.421603  1040.528476   612.913604 

 Dipole components along the rotational axes: 
x,y,z [a.u.] :     0.005525    -0.238300    -0.000000 
x,y,z [Debye]:     0.014043    -0.605711    -0.000000 

 

----------------------------------------------------------------------------
                           ORCA NUMERICAL FREQUENCIES
                              (24-process run)
----------------------------------------------------------------------------

Number of atoms                ... 3
Central differences            ... used
Number of displacements        ... 18
Numerical increment            ... 5.000e-03 bohr
IR-spectrum generation         ... on
Raman-spectrum generation      ... off
Surface Crossing Hessian       ... off

 WARNING: There are more processes than displacements to do
  ====> : Reducing number of processes to   9

The output will be reduced. Please look at the following files:
SCF program output             ... >Ag03N0_D3H.lastscf
Integral program output        ... >Ag03N0_D3H.lastint
Gradient program output        ... >Ag03N0_D3H.lastgrad
Dipole moment program output   ... >Ag03N0_D3H.lastmom
AutoCI program output          ... >Ag03N0_D3H.lastautoci


         <<< Energy and Gradient at the input geometry >>>

        <<< Energy and Gradient at displaced geometries >>>
             <<<Displacing   1/coordinate 2 (+)>>>
             <<<Displacing   3/coordinate 1 (+)>>>
             <<<Displacing   2/coordinate 1 (+)>>>
             <<<Displacing   2/coordinate 2 (+)>>>
             <<<Displacing   1/coordinate 1 (+)>>>
             <<<Displacing   3/coordinate 3 (+)>>>
             <<<Displacing   2/coordinate 3 (+)>>>
             <<<Displacing   1/coordinate 3 (+)>>>
             <<<Displacing   3/coordinate 2 (+)>>>
             <<<Displacing   1/coordinate 3 (-)>>>
             <<<Displacing   2/coordinate 3 (-)>>>
             <<<Displacing   3/coordinate 3 (-)>>>
             <<<Displacing   3/coordinate 2 (-)>>>
             <<<Displacing   2/coordinate 1 (-)>>>
             <<<Displacing   2/coordinate 2 (-)>>>
             <<<Displacing   1/coordinate 1 (-)>>>
             <<<Displacing   3/coordinate 1 (-)>>>
             <<<Displacing   1/coordinate 2 (-)>>>

-----------------------
VIBRATIONAL FREQUENCIES
-----------------------

Scaling factor for frequencies =  1.000000000 (already applied!)

   0:         0.00 cm**-1
   1:         0.00 cm**-1
   2:         0.00 cm**-1
   3:         0.00 cm**-1
   4:         0.00 cm**-1
   5:         0.00 cm**-1
   6:        61.79 cm**-1
   7:       101.75 cm**-1
   8:       174.16 cm**-1


------------
NORMAL MODES
------------

These modes are the cartesian displacements weighted by the diagonal matrix
M(i,i)=1/sqrt(m[i]) where m[i] is the mass of the displaced atom
Thus, these vectors are normalized but *not* orthogonal

                  0          1          2          3          4          5    
      0       0.000000   0.000000   0.000000   0.000000   0.000000   0.000000
      1       0.000000   0.000000   0.000000   0.000000   0.000000   0.000000
      2       0.000000   0.000000   0.000000   0.000000   0.000000   0.000000
      3       0.000000   0.000000   0.000000   0.000000   0.000000   0.000000
      4       0.000000   0.000000   0.000000   0.000000   0.000000   0.000000
      5       0.000000   0.000000   0.000000   0.000000   0.000000   0.000000
      6       0.000000   0.000000   0.000000   0.000000   0.000000   0.000000
      7       0.000000   0.000000   0.000000   0.000000   0.000000   0.000000
      8       0.000000   0.000000   0.000000   0.000000   0.000000   0.000000
                   6          7          8    
      0       0.475302  -0.225509  -0.169103
      1       0.455427   0.506064   0.448565
      2       0.000000   0.000000   0.000000
      3      -0.296216  -0.321702   0.637992
      4       0.186504  -0.537693  -0.370396
      5       0.000000   0.000000   0.000000
      6      -0.179086   0.547210  -0.468889
      7      -0.641931   0.031629  -0.078168
      8       0.000000   0.000000   0.000000


-----------
IR SPECTRUM  
-----------

 Mode    freq (cm**-1)   T**2         TX         TY         TZ
-------------------------------------------------------------------
   6:        61.79    1.266614  ( -0.948040   0.606493   0.000001)
   7:       101.75   19.468536  ( -2.227665  -3.808680   0.000009)
   8:       174.16    0.997020  (  0.851123  -0.522120  -0.000010)

The first frequency considered to be a vibration is 6
The total number of vibrations considered is 3


--------------------------
THERMOCHEMISTRY AT 298.15K
--------------------------

Temperature         ... 298.15 K
Pressure            ... 1.00 atm
Total Mass          ... 323.61 AMU

Throughout the following assumptions are being made:
  (1) The electronic state is orbitally nondegenerate
      but the spin degeneracy is treated
  (2) There are no thermally accessible electronically excited states
  (3) Hindered rotations indicated by low frequency modes are not
      treated as such but are treated as vibrations and this may
      cause some error
  (4) All equations used are the standard statistical mechanics
      equations for an ideal gas
  (5) All vibrations are strictly harmonic

freq.      61.79  E(vib)   ...       0.51 
freq.     101.75  E(vib)   ...       0.46 
freq.     174.16  E(vib)   ...       0.38 

------------
INNER ENERGY
------------

The inner energy is: U= E(el) + E(ZPE) + E(vib) + E(rot) + E(trans)
    E(el)   - is the total energy from the electronic structure calculation
              = E(kin-el) + E(nuc-el) + E(el-el) + E(nuc-nuc)
    E(ZPE)  - the the zero temperature vibrational energy from the frequency calculation
    E(vib)  - the the finite temperature correction to E(ZPE) due to population
              of excited vibrational states
    E(rot)  - is the rotational thermal energy
    E(trans)- is the translational thermal energy

Summary of contributions to the inner energy U:
Electronic energy                ...   -440.89599292 Eh
Zero point energy                ...      0.00076933 Eh       0.48 kcal/mol
Thermal vibrational correction   ...      0.00214410 Eh       1.35 kcal/mol
Thermal rotational correction    ...      0.00141627 Eh       0.89 kcal/mol
Thermal translational correction ...      0.00141627 Eh       0.89 kcal/mol
-----------------------------------------------------------------------
Total thermal energy                   -440.89024694 Eh


Summary of corrections to the electronic energy:
(perhaps to be used in another calculation)
Total thermal correction                  0.00497664 Eh       3.12 kcal/mol
Non-thermal (ZPE) correction              0.00076933 Eh       0.48 kcal/mol
-----------------------------------------------------------------------
Total correction                          0.00574598 Eh       3.61 kcal/mol


--------
ENTHALPY
--------

The enthalpy is H = U + kB*T
                kB is Boltzmann's constant
Total free energy                 ...   -440.89024694 Eh 
Thermal Enthalpy correction       ...      0.00094421 Eh       0.59 kcal/mol
-----------------------------------------------------------------------
Total Enthalpy                    ...   -440.88930273 Eh


Note: Rotational entropy computed according to Herzberg 
Infrared and Raman Spectra, Chapter V,1, Van Nostrand Reinhold, 1945 
Point Group:  Cs, Symmetry Number:   1  
Rotational constants in cm-1:     0.049748     0.034708     0.020445 

Vibrational entropy computed according to the QRRHO of S. Grimme
Chem.Eur.J. 2012 18 9955


-------
ENTROPY
-------

The entropy contributions are T*S = T*(S(el)+S(vib)+S(rot)+S(trans))
     S(el)   - electronic entropy
     S(vib)  - vibrational entropy
     S(rot)  - rotational entropy
     S(trans)- translational entropy
The entropies will be listed as mutliplied by the temperature to get
units of energy

Electronic entropy                ...      0.00065446 Eh      0.41 kcal/mol
Vibrational entropy               ...      0.00427152 Eh      2.68 kcal/mol
Rotational entropy                ...      0.01435049 Eh      9.01 kcal/mol
Translational entropy             ...      0.02053447 Eh     12.89 kcal/mol
-----------------------------------------------------------------------
Final entropy term                ...      0.03981093 Eh     24.98 kcal/mol

In case the symmetry of your molecule has not been determined correctly
or in case you have a reason to use a different symmetry number we print 
out the resulting rotational entropy values for sn=1,12 :
 --------------------------------------------------------
|  sn= 1 | S(rot)=       0.01435049 Eh      9.01 kcal/mol|
|  sn= 2 | S(rot)=       0.01369603 Eh      8.59 kcal/mol|
|  sn= 3 | S(rot)=       0.01331320 Eh      8.35 kcal/mol|
|  sn= 4 | S(rot)=       0.01304157 Eh      8.18 kcal/mol|
|  sn= 5 | S(rot)=       0.01283089 Eh      8.05 kcal/mol|
|  sn= 6 | S(rot)=       0.01265874 Eh      7.94 kcal/mol|
|  sn= 7 | S(rot)=       0.01251320 Eh      7.85 kcal/mol|
|  sn= 8 | S(rot)=       0.01238712 Eh      7.77 kcal/mol|
|  sn= 9 | S(rot)=       0.01227591 Eh      7.70 kcal/mol|
|  sn=10 | S(rot)=       0.01217643 Eh      7.64 kcal/mol|
|  sn=11 | S(rot)=       0.01208644 Eh      7.58 kcal/mol|
|  sn=12 | S(rot)=       0.01200429 Eh      7.53 kcal/mol|
 --------------------------------------------------------


-------------------
GIBBS FREE ENERGY
-------------------

The Gibbs free energy is G = H - T*S

Total enthalpy                    ...   -440.88930273 Eh 
Total entropy correction          ...     -0.03981093 Eh    -24.98 kcal/mol
-----------------------------------------------------------------------
Final Gibbs free energy         ...   -440.92911367 Eh

For completeness - the Gibbs free energy minus the electronic energy
G-E(el)                           ...     -0.03312075 Eh    -20.78 kcal/mol


Total Time for Numerical Frequencies  :      2015.109 sec

Timings for individual modules:

Sum of individual times         ...     8060.123 sec (= 134.335 min)
GTO integral calculation        ...       30.202 sec (=   0.503 min)   0.4 %
SCF iterations                  ...      170.529 sec (=   2.842 min)   2.1 %
SCF Gradient evaluation         ...     7858.186 sec (= 130.970 min)  97.5 %
Geometry relaxation             ...        1.206 sec (=   0.020 min)   0.0 %
                             ****ORCA TERMINATED NORMALLY****
TOTAL RUN TIME: 0 days 5 hours 49 minutes 34 seconds 253 msec
