
                                 *****************
                                 * O   R   C   A *
                                 *****************

           --- An Ab Initio, DFT and Semiempirical electronic structure package ---

                  #######################################################
                  #                        -***-                        #
                  #          Department of theory and spectroscopy      #
                  #               Directorship: Frank Neese             #
                  #        Max Planck Institute fuer Kohlenforschung    #
                  #                Kaiser Wilhelm Platz 1               #
                  #                 D-45470 Muelheim/Ruhr               #
                  #                      Germany                        #
                  #                                                     #
                  #                  All rights reserved                #
                  #                        -***-                        #
                  #######################################################


                         Program Version 4.2.0 -  RELEASE  -


 With contributions from (in alphabetic order):
   Daniel Aravena         : Magnetic Suceptibility
   Michael Atanasov       : Ab Initio Ligand Field Theory (pilot matlab implementation)
   Alexander A. Auer      : GIAO ZORA, VPT2
   Ute Becker             : Parallelization
   Giovanni Bistoni       : ED, misc. LED, open-shell LED, HFLED
   Martin Brehm           : Molecular dynamics
   Dmytro Bykov           : SCF Hessian
   Vijay G. Chilkuri      : MRCI spin determinant printing, contributions to CSF-ICE
   Dipayan Datta          : RHF DLPNO-CCSD density
   Achintya Kumar Dutta   : EOM-CC, STEOM-CC
   Dmitry Ganyushin       : Spin-Orbit,Spin-Spin,Magnetic field MRCI
   Miquel Garcia          : C-PCM Hessian, Gaussian charge scheme
   Yang Guo               : DLPNO-NEVPT2, CIM, IAO-localization
   Andreas Hansen         : Spin unrestricted coupled pair/coupled cluster methods
   Benjamin Helmich-Paris : CASSCF linear response (MC-RPA)
   Lee Huntington         : MR-EOM, pCC
   Robert Izsak           : Overlap fitted RIJCOSX, COSX-SCS-MP3, EOM
   Christian Kollmar      : KDIIS, OOCD, Brueckner-CCSD(T), CCSD density
   Simone Kossmann        : Meta GGA functionals, TD-DFT gradient, OOMP2, MP2 Hessian
   Martin Krupicka        : AUTO-CI
   Lucas Lang             : DCDCAS
   Dagmar Lenk            : GEPOL surface, SMD
   Dimitrios Liakos       : Extrapolation schemes; Compound Job, initial MDCI parallelization
   Dimitrios Manganas     : Further ROCIS development; embedding schemes
   Dimitrios Pantazis     : SARC Basis sets
   Taras Petrenko         : DFT Hessian,TD-DFT gradient, ASA, ECA, R-Raman, ABS, FL, XAS/XES, NRVS
   Peter Pinski           : DLPNO-MP2, DLPNO-MP2 Gradient
   Christoph Reimann      : Effective Core Potentials
   Marius Retegan         : Local ZFS, SOC
   Christoph Riplinger    : Optimizer, TS searches, QM/MM, DLPNO-CCSD(T), (RO)-DLPNO pert. Triples
   Tobias Risthaus        : Range-separated hybrids, TD-DFT gradient, RPA, STAB
   Michael Roemelt        : Original ROCIS implementation
   Masaaki Saitow         : Open-shell DLPNO-CCSD energy and density
   Barbara Sandhoefer     : DKH picture change effects
   Avijit Sen             : IP-ROCIS
   Kantharuban Sivalingam : CASSCF convergence, NEVPT2, FIC-MRCI
   Bernardo de Souza      : ESD, SOC TD-DFT
   Georgi Stoychev        : AutoAux, RI-MP2 NMR
   Willem Van den Heuvel  : Paramagnetic NMR
   Boris Wezisla          : Elementary symmetry handling
   Frank Wennmohs         : Technical directorship


 We gratefully acknowledge several colleagues who have allowed us to
 interface, adapt or use parts of their codes:
   Stefan Grimme, W. Hujo, H. Kruse,             : VdW corrections, initial TS optimization,
                  C. Bannwarth                     DFT functionals, gCP, sTDA/sTD-DF
   Ed Valeev, F. Pavosevic, A. Kumar             : LibInt (2-el integral package), F12 methods
   Garnet Chan, S. Sharma, J. Yang, R. Olivares  : DMRG
   Ulf Ekstrom                                   : XCFun DFT Library
   Mihaly Kallay                                 : mrcc  (arbitrary order and MRCC methods)
   Andreas Klamt, Michael Diedenhofen            : otool_cosmo (COSMO solvation model)
   Jiri Pittner, Ondrej Demel                    : Mk-CCSD
   Frank Weinhold                                : gennbo (NPA and NBO analysis)
   Christopher J. Cramer and Donald G. Truhlar   : smd solvation model
   Lars Goerigk                                  : TD-DFT with DH, B97 family of functionals
   V. Asgeirsson, H. Jonsson                     : NEB implementation
   FAccTs GmbH                                   : IRC, NEB, NEB-TS, Multilevel, MM, QM/MM, CI optimization
   S Lehtola, MJT Oliveira, MAL Marques          : LibXC Library


 Your calculation uses the libint2 library for the computation of 2-el integrals
 For citations please refer to: http://libint.valeyev.net

 Your ORCA version has been built with support for libXC version: 4.2.3
 For citations please refer to: https://tddft.org/programs/libxc/

 This ORCA versions uses:
   CBLAS   interface :  Fast vector & matrix operations
   LAPACKE interface :  Fast linear algebra routines
   SCALAPACK package :  Parallel linear algebra routines


Your calculation utilizes the DFT-NL dispersion correction.
Cite in your paper:
Vydrov, O. A.; Van Voorhis, T. J. Chem. Phys. 2010, 133, 244103
Hujo, W.; Grimme, S. J. Chem. Theory Comput. 2011, 7, 3866 
   

----- Orbital basis set information -----
Your calculation utilizes the basis: def2-TZVPPD
   F. Weigend and R. Ahlrichs, Phys. Chem. Chem. Phys. 7, 3297 (2005).
   D. Rappoport and F. Furche, J. Chem. Phys. 133 134105 (2010).

----- AuxJK basis set information -----
Your calculation utilizes the auxiliary basis: def2/JK
   H-Ba, Hf-Rn: F. Weigend, J. Comput. Chem. 29, 167 (2008).

cite the ECPs for Au [Def2-ECP] as follows:
Ce-Yb(ecp-28): M. Dolg, H. Stoll, H.Preuss, J. Chem. Phys., 1989, 90, 1730-1734.
Y-Cd(ecp-28), Hf-Hg(ecp-46): D. Andrae,U. Haeussermann, M. Dolg, H. Stoll, H. Preuss, Theor. Chim. Acta, 1990, 77, 123-141.
In-Sb(ecp-28), Tl-Bi(ecp-46): B. Metz, H. Stoll, M. Dolg, J. Chem. Phys., 2000, 113, 2563-2569.
Te-Xe(ecp-28), Po-Rn(ecp-46): K. A. Peterson, D. Figgen, E. Goll, H. Stoll, M. Dolg, J. Chem. Phys., 2003, 119, 11113-11123.
Rb(ecp-28), Cs(ecp-46): T. Leininger, A. Nicklass, W. Kuechle, H. Stoll, M. Dolg, A. Bergner, Chem. Phys. Lett., 1996, 255, 274-280.
Sr(ecp-28), Ba(ecp-46): M. Kaupp, P. V. Schleyer, H. Stoll and H. Preuss, J. Chem. Phys., 1991, 94, 1360-1366.
La(ecp-46): M. Dolg, H. Stoll, A. Savin, H. Preuss, Theor. Chim. Acta, 1989, 75, 173-194.
Lu(ecp-28): X. Cao, M. Dolg, J. Chem. Phys., 2001, 115, 7348-7355.

ECP parameters for Au [Def2-ECP] have been obtained from:
TURBOMOLE (7.0.2)

================================================================================
                                        WARNINGS
                       Please study these warnings very carefully!
================================================================================


WARNING: Geometry Optimization
  ===> : Switching off AutoStart
         For restart on a previous wavefunction, please use MOREAD

INFO   : the flag for use of LIBINT has been found!

================================================================================
                                       INPUT FILE
================================================================================
NAME = Au01N0_F.in
|  1> #
|  2> # Au01N0_F wB97X-V/Def2-TZVPPD
|  3> #
|  4> ! wb97x-v def2-tzvppd def2/jk grid4 nofinalgrid opt xyzfile numfreq numgrad
|  5> 
|  6> *xyz 0 1
|  7> Au       0.000000    0.000000    0.196853 
|  8> F        0.000000    0.000000   -1.727931 
|  9> *
| 10> 
| 11> %maxcore 5000
| 12> 
| 13> %pal
| 14> nprocs = 24
| 15> end
| 16> 
| 17> 
| 18>                          ****END OF INPUT****
================================================================================

                       *****************************
                       * Geometry Optimization Run *
                       *****************************

Geometry optimization settings:
Update method            Update   .... BFGS
Choice of coordinates    CoordSys .... Z-matrix Internals
Initial Hessian          InHess   .... Almoef's Model

Convergence Tolerances:
Energy Change            TolE     ....  5.0000e-06 Eh
Max. Gradient            TolMAXG  ....  3.0000e-04 Eh/bohr
RMS Gradient             TolRMSG  ....  1.0000e-04 Eh/bohr
Max. Displacement        TolMAXD  ....  4.0000e-03 bohr
RMS Displacement         TolRMSD  ....  2.0000e-03 bohr
Strict Convergence                ....  False
------------------------------------------------------------------------------
                        ORCA OPTIMIZATION COORDINATE SETUP
------------------------------------------------------------------------------

The optimization will be done in new redundant internal coordinates
Making redundant internal coordinates   ...  (new redundants) done
Evaluating the initial hessian          ...  (Almloef) done
Evaluating the coordinates              ...  done
Calculating the B-matrix                .... done
Calculating the G-matrix                .... done
Diagonalizing the G-matrix              .... done
The first mode is                       ....    0
The number of degrees of freedom        ....    1

    -----------------------------------------------------------------
                    Redundant Internal Coordinates


    -----------------------------------------------------------------
         Definition                    Initial Value    Approx d2E/dq
    -----------------------------------------------------------------
      1. B(F   1,Au  0)                  1.9248         0.101471   
    -----------------------------------------------------------------

Number of atoms                         .... 2
Number of degrees of freedom            .... 1

         *************************************************************
         *                GEOMETRY OPTIMIZATION CYCLE   1            *
         *************************************************************
---------------------------------
CARTESIAN COORDINATES (ANGSTROEM)
---------------------------------
  Au     0.000000    0.000000    0.196853
  F      0.000000    0.000000   -1.727931

----------------------------
CARTESIAN COORDINATES (A.U.)
----------------------------
  NO LB      ZA    FRAG     MASS         X           Y           Z
   0 Au   19.0000*   0   196.966    0.000000    0.000000    0.371998
   1 F     9.0000    0    18.998    0.000000    0.000000   -3.265316
* core charge reduced due to ECP

--------------------------------
INTERNAL COORDINATES (ANGSTROEM)
--------------------------------
 Au     0   0   0     0.000000000000     0.00000000     0.00000000
 F      1   0   0     1.924784000000     0.00000000     0.00000000

---------------------------
INTERNAL COORDINATES (A.U.)
---------------------------
 Au     0   0   0     0.000000000000     0.00000000     0.00000000
 F      1   0   0     3.637314626953     0.00000000     0.00000000

---------------------
BASIS SET INFORMATION
---------------------
There are 2 groups of distinct atoms

 Group   1 Type Au  : 8s8p6d2f1g contracted to 6s5p3d2f1g pattern {311111/41111/411/11/1}
 Group   2 Type F   : 12s7p3d1f contracted to 6s4p3d1f pattern {621111/4111/111/1}

Atom   0Au   basis set group =>   1
Atom   1F    basis set group =>   2
----------------------------------
AUXILIARY/JK BASIS SET INFORMATION
----------------------------------
There are 2 groups of distinct atoms

 Group   1 Type Au  : 13s12p11d9f5g3h2i contracted to 13s11p10d8f4g3h2i pattern {1111111111111/21111111111/2111111111/21111111/2111/111/11}
 Group   2 Type F   : 14s10p6d2f1g contracted to 10s8p4d2f1g pattern {5111111111/31111111/3111/11/1}

Atom   0Au   basis set group =>   1
Atom   1F    basis set group =>   2
-------------------------
ECP PARAMETER INFORMATION
-------------------------

 Group 1, Type Au ECP Def2-ECP (replacing 60 core electrons, lmax=3)

Atom   0Au   ECP group =>   1



           ************************************************************
           *        Program running with 24 parallel MPI-processes    *
           *              working on a common directory               *
           ************************************************************
------------------------------------------------------------------------------
                           ORCA GTO INTEGRAL CALCULATION
------------------------------------------------------------------------------

                         BASIS SET STATISTICS AND STARTUP INFO

 # of primitive gaussian shells          ...   48
 # of primitive gaussian functions       ...  140
 # of contracted shells                  ...   31
 # of contracted basis functions         ...   99
 Highest angular momentum                ...    4
 Maximum contraction depth               ...    6
 Integral package used                   ... LIBINT
 Integral threshhold            Thresh   ...  2.500e-11
 Primitive cut-off              TCut     ...  2.500e-12


------------------------------ INTEGRAL EVALUATION ----------------------------


 * One electron integrals 

   ECP integrals                         ... done
 Pre-screening matrix                    ... done
 Shell pair data                         ... done (   0.000 sec)



           ************************************************************
           *        Program running with 24 parallel MPI-processes    *
           *              working on a common directory               *
           ************************************************************
-------------------------------------------------------------------------------
                                 ORCA SCF
-------------------------------------------------------------------------------

------------
SCF SETTINGS
------------
Hamiltonian:
 Density Functional     Method          .... DFT(GTOs)
 Exchange Functional    Exchange        .... WB97X-V
 Correlation Functional Correlation     .... WB97X-V
 Gradients option       PostSCFGGA      .... off
 Hybrid DFT is turned on
   Fraction HF Exchange ScalHFX         ....  0.167000
   Scaling of DF-GGA-X  ScalDFX         ....  0.000000
   Scaling of DF-GGA-C  ScalDFC         ....  1.000000
   Scaling of DF-LDA-C  ScalLDAC        ....  1.000000
   Perturbative correction              ....  0.000000
   Density functional embedding theory  .... OFF
 Long-range corrected/Screened/Range-Separated Hybrid DFT is turned on
   Amount of maximum screened exact exchange              ....  0.833000
   Range separation parameter mu (erf(mu*r12)/r12)        ....  0.300000
   NL short-range parameter             ....  6.000000
   NL long-range parameter              ....  0.010000


General Settings:
 Integral files         IntName         .... Au01N0_F
 Hartree-Fock type      HFTyp           .... RHF
 Total Charge           Charge          ....    0
 Multiplicity           Mult            ....    1
 Number of Electrons    NEL             ....   28
 Basis Dimension        Dim             ....   99
 Nuclear Repulsion      ENuc            ....     47.0127051240 Eh

Convergence Acceleration:
 DIIS                   CNVDIIS         .... on
   Start iteration      DIISMaxIt       ....    12
   Startup error        DIISStart       ....  0.200000
   # of expansion vecs  DIISMaxEq       ....     5
   Bias factor          DIISBfac        ....   1.050
   Max. coefficient     DIISMaxC        ....  10.000
 Newton-Raphson         CNVNR           .... off
 SOSCF                  CNVSOSCF        .... off
 Level Shifting         CNVShift        .... on
   Level shift para.    LevelShift      ....    0.2500
   Turn off err/grad.   ShiftErr        ....    0.0010
 Zerner damping         CNVZerner       .... off
 Static damping         CNVDamp         .... on
   Fraction old density DampFac         ....    0.7000
   Max. Damping (<1)    DampMax         ....    0.9800
   Min. Damping (>=0)   DampMin         ....    0.0000
   Turn off err/grad.   DampErr         ....    0.1000
 Fernandez-Rico         CNVRico         .... off

SCF Procedure:
 Maximum # iterations   MaxIter         ....   125
 SCF integral mode      SCFMode         .... Direct
   Integral package                     .... LIBINT
 Reset frequency        DirectResetFreq ....    20
 Integral Threshold     Thresh          ....  2.500e-11 Eh
 Primitive CutOff       TCut            ....  2.500e-12 Eh

Convergence Tolerance:
 Convergence Check Mode ConvCheckMode   .... Total+1el-Energy
 Convergence forced     ConvForced      .... 0
 Energy Change          TolE            ....  1.000e-08 Eh
 1-El. energy change                    ....  1.000e-05 Eh
 DIIS Error             TolErr          ....  5.000e-07


Diagonalization of the overlap matrix:
Smallest eigenvalue                        ... 3.091e-03
Time for diagonalization                   ...    0.003 sec
Threshold for overlap eigenvalues          ... 1.000e-08
Number of eigenvalues below threshold      ... 0
Time for construction of square roots      ...    0.002 sec
Total time needed                          ...    0.005 sec

-------------------
DFT GRID GENERATION
-------------------

General Integration Accuracy     IntAcc      ...  4.670
Radial Grid Type                 RadialGrid  ... Gauss-Chebyshev
Angular Grid (max. acc.)         AngularGrid ... Lebedev-302
Angular grid pruning method      GridPruning ... 3 (G Style)
Weight generation scheme         WeightScheme... Becke
Basis function cutoff            BFCut       ...    1.0000e-11
Integration weight cutoff        WCut        ...    1.0000e-14
Grids for H and He will be reduced by one unit

# of grid points (after initial pruning)     ...  17924 (   0.0 sec)
# of grid points (after weights+screening)   ...  17875 (   0.0 sec)
nearest neighbour list constructed           ...    0.0 sec
Grid point re-assignment to atoms done       ...    0.0 sec
Grid point division into batches done        ...    0.1 sec
Reduced shell lists constructed in    0.1 sec

Total number of grid points                  ...    17875
Total number of batches                      ...      280
Average number of points per batch           ...       63
Average number of grid points per atom       ...     8938
Average number of shells per batch           ...     2.92 ( 9.43%)
Average number of basis functions per batch  ...     7.08 ( 7.15%)
Average number of large shells per batch     ...     1.31 (44.74%)
Average number of large basis fcns per batch ...     3.46 (48.91%)
Maximum spatial batch extension              ...  37.74, 41.49, 24.29 au
Average spatial batch extension              ...   1.13,  1.18,  0.84 au

Time for grid setup =    0.180 sec

------------------------------
INITIAL GUESS: MODEL POTENTIAL
------------------------------
Loading Hartree-Fock densities                     ... done
  calling /sw/apps/orca/orca_4_2_0_linux_x86-64_openmpi314/orca Au01N0_F_atom79.inp > Au01N0_F_atom79.out in order to generate an atomic fitting density for atom 0 (Au with ECP) on-the-fly... 
    atom 0 (Au), assumed electronic state with S=2: 1s2 2s2 2p6 3s2 3p6 4s2 3d10 4p6 5s2 4d10 5p6 6s1 4f14 5d10           ... done
Calculating cut-offs                               ... done
Setting up the integral package                    ... done
Initializing the effective Hamiltonian             ... done
Starting the Coulomb interaction                   ... done (   0.0 sec)
Reading the grid                                   ... done
Mapping shells                                     ... done
Starting the XC term evaluation                    ... done (   0.0 sec)
  promolecular density results
     # of electrons  =     88.003404550
     EX              =   -299.885903412
     EC              =     -6.664165036
     EX+EC           =   -306.550068449
Transforming the Hamiltonian                       ... done (   0.0 sec)
Diagonalizing the Hamiltonian                      ... done (   0.0 sec)
Back transforming the eigenvectors                 ... done (   0.0 sec)
Now organizing SCF variables                       ... done
                      ------------------
                      INITIAL GUESS DONE (   1.2 sec)
                      ------------------
--------------
SCF ITERATIONS
--------------
ITER       Energy         Delta-E        Max-DP      RMS-DP      [F,P]     Damp
               ***  Starting incremental Fock matrix formation  ***
  0   -235.3301202530   0.000000000000 0.10813955  0.00318243  0.4546628 0.7000
  1   -235.4357463836  -0.105626130612 0.09535773  0.00262279  0.3348694 0.7000
  2   -235.4928033127  -0.057056929041 0.09366069  0.00200019  0.2445979 0.7000
                               ***Turning on DIIS***
  3   -235.5280896350  -0.035286322320 0.08280555  0.00156427  0.1762998 0.7000
  4   -235.5528807437  -0.024791108731 0.07557354  0.00138563  0.1255865 0.7000
  5   -235.5711115474  -0.018230803692 0.19383033  0.00389170  0.0873705 0.0000
  6   -235.6200691403  -0.048957592917 0.04790292  0.00086225  0.0243599 0.0000
  7   -235.6222506962  -0.002181555890 0.05346875  0.00099078  0.0165715 0.0000
  8   -235.6241117420  -0.001861045821 0.04550132  0.00084796  0.0143759 0.0000
  9   -235.6253148740  -0.001203131942 0.02890404  0.00057309  0.0080129 0.0000
 10   -235.6257845393  -0.000469665344 0.01158087  0.00025293  0.0044689 0.0000
 11   -235.6259124677  -0.000127928380 0.00669764  0.00015849  0.0024157 0.0000
 12   -235.6259535830  -0.000041115275 0.00320354  0.00007890  0.0010340 0.0000
 13   -235.6259637182  -0.000010135277 0.00201493  0.00005954  0.0004912 0.0000
 14   -235.6259661792  -0.000002460905 0.00019348  0.00000546  0.0000824 0.0000
 15   -235.6259662126  -0.000000033487 0.00014020  0.00000258  0.0000298 0.0000
 16   -235.6259662185  -0.000000005858 0.00003113  0.00000081  0.0000091 0.0000
 17   -235.6259662189  -0.000000000370 0.00003677  0.00000069  0.0000068 0.0000
                 **** Energy Check signals convergence ****

               *****************************************************
               *                     SUCCESS                       *
               *           SCF CONVERGED AFTER  18 CYCLES          *
               *****************************************************


Setting up the DFT-NL grid :

General Integration Accuracy     IntAcc      ...  4.340
Radial Grid Type                 RadialGrid  ... Gauss-Chebyshev
Angular Grid (max. acc.)         AngularGrid ... Lebedev-110
Angular grid pruning method      GridPruning ... 3 (G Style)
Weight generation scheme         WeightScheme... Becke
Basis function cutoff            BFCut       ...    1.0000e-11
Integration weight cutoff        WCut        ...    1.0000e-14
Grids for H and He will be reduced by one unit

# of grid points (after initial pruning)     ...   5270 (   0.0 sec)
# of grid points (after weights+screening)   ...   5240 (   0.0 sec)
nearest neighbour list constructed           ...    0.0 sec
Grid point re-assignment to atoms done       ...    0.0 sec
Grid point division into batches done        ...    0.0 sec
Reduced shell lists constructed in    0.0 sec

Total number of grid points                  ...     5240
Total number of batches                      ...       83
Average number of points per batch           ...       63
Average number of grid points per atom       ...     2620
Average number of shells per batch           ...     9.20 (29.68%)
Average number of basis functions per batch  ...    26.00 (26.26%)
Average number of large shells per batch     ...     6.40 (69.57%)
Average number of large basis fcns per batch ...    17.60 (67.69%)
Maximum spatial batch extension              ...  26.72, 49.51, 26.35 au
Average spatial batch extension              ...   1.15,  1.85,  1.27 au

Final grid set up in    0.0 sec

-------------------------------------------------------------------------------
                         DFT-NL dispersion correction                          
-------------------------------------------------------------------------------

SC Energy -235.625966219 
NL    Energy 0.110935182 
SC+NL Energy -235.515031037 
NL done in    0.0 sec
-------------------------------------------------------------------------------

----------------
TOTAL SCF ENERGY
----------------

Total Energy       :         -235.51503104 Eh           -6408.68981 eV

Components:
Nuclear Repulsion  :           47.01270512 Eh            1279.28074 eV
Electronic Energy  :         -282.52773616 Eh           -7687.97055 eV
One Electron Energy:         -472.28553120 Eh          -12851.54266 eV
Two Electron Energy:          189.75779504 Eh            5163.57211 eV

Virial components:
Potential Energy   :         -381.12254722 Eh          -10370.87175 eV
Kinetic Energy     :          145.60751618 Eh            3962.18195 eV
Virial Ratio       :            2.61746479


DFT components:
N(Alpha)           :       14.000001268122 electrons
N(Beta)            :       14.000001268122 electrons
N(Total)           :       28.000002536243 electrons
E(X)               :      -14.723526978663 Eh       
E(C)               :       -1.280483003589 Eh       
NL Energy, E(C,NL) :        0.110935181917 Eh       
E(XC)              :      -15.893074800335 Eh       
DFET-embed. en.    :        0.000000000000 Eh       

---------------
SCF CONVERGENCE
---------------

  Last Energy change         ...   -5.2879e-10  Tolerance :   1.0000e-08
  Last MAX-Density change    ...    7.2329e-06  Tolerance :   1.0000e-07
  Last RMS-Density change    ...    1.7940e-07  Tolerance :   5.0000e-09
  Last DIIS Error            ...    1.9173e-06  Tolerance :   5.0000e-07

             **** THE GBW FILE WAS UPDATED (Au01N0_F.gbw) ****
             **** DENSITY FILE WAS UPDATED (Au01N0_F.scfp) ****
             **** ENERGY FILE WAS UPDATED (Au01N0_F.en.tmp) ****
             **** THE GBW FILE WAS UPDATED (Au01N0_F.gbw) ****
             **** DENSITY FILE WAS UPDATED (Au01N0_F.scfp) ****
----------------
ORBITAL ENERGIES
----------------

  NO   OCC          E(Eh)            E(eV) 
   0   2.0000     -24.690922      -671.8742 
   1   2.0000      -4.296359      -116.9099 
   2   2.0000      -2.488331       -67.7109 
   3   2.0000      -2.472740       -67.2867 
   4   2.0000      -2.472740       -67.2867 
   5   2.0000      -1.214668       -33.0528 
   6   2.0000      -0.546946       -14.8832 
   7   2.0000      -0.507340       -13.8054 
   8   2.0000      -0.507340       -13.8054 
   9   2.0000      -0.441960       -12.0263 
  10   2.0000      -0.441959       -12.0263 
  11   2.0000      -0.409512       -11.1434 
  12   2.0000      -0.409512       -11.1434 
  13   2.0000      -0.394140       -10.7251 
  14   0.0000      -0.066944        -1.8216 
  15   0.0000       0.053626         1.4592 
  16   0.0000       0.053626         1.4592 
  17   0.0000       0.087803         2.3892 
  18   0.0000       0.145411         3.9568 
  19   0.0000       0.201342         5.4788 
  20   0.0000       0.201342         5.4788 
  21   0.0000       0.223384         6.0786 
  22   0.0000       0.255972         6.9653 
  23   0.0000       0.255972         6.9653 
  24   0.0000       0.307700         8.3729 
  25   0.0000       0.372616        10.1394 
  26   0.0000       0.372616        10.1394 
  27   0.0000       0.395381        10.7589 
  28   0.0000       0.437609        11.9080 
  29   0.0000       0.437609        11.9080 
  30   0.0000       0.497959        13.5502 
  31   0.0000       0.622497        16.9390 
  32   0.0000       0.622499        16.9390 
  33   0.0000       0.743986        20.2449 
  34   0.0000       0.744189        20.2504 
  35   0.0000       0.744189        20.2504 
  36   0.0000       0.878581        23.9074 
  37   0.0000       0.878581        23.9074 
  38   0.0000       1.056606        28.7517 
  39   0.0000       1.130555        30.7640 
  40   0.0000       1.130555        30.7640 
  41   0.0000       1.161869        31.6161 
  42   0.0000       1.205605        32.8062 
  43   0.0000       1.205605        32.8062 
  44   0.0000       1.239898        33.7393 
  45   0.0000       1.239898        33.7394 
  46   0.0000       1.354745        36.8645 
  47   0.0000       1.396245        37.9937 
  48   0.0000       1.396245        37.9937 
  49   0.0000       1.464387        39.8480 
  50   0.0000       1.567043        42.6414 
  51   0.0000       1.567045        42.6414 
  52   0.0000       1.622430        44.1486 
  53   0.0000       1.622430        44.1486 
  54   0.0000       1.786870        48.6232 
  55   0.0000       2.314241        62.9737 
  56   0.0000       2.405127        65.4468 
  57   0.0000       2.405139        65.4472 
  58   0.0000       2.477620        67.4195 
  59   0.0000       2.477620        67.4195 
  60   0.0000       2.910720        79.2047 
  61   0.0000       3.486548        94.8738 
  62   0.0000       3.486548        94.8738 
  63   0.0000       3.625116        98.6444 
  64   0.0000       3.663158        99.6796 
  65   0.0000       3.663158        99.6796 
  66   0.0000       3.679379       100.1210 
  67   0.0000       3.679387       100.1212 
  68   0.0000       3.810624       103.6924 
  69   0.0000       3.810624       103.6924 
  70   0.0000       3.926336       106.8410 
  71   0.0000       4.127175       112.3062 
  72   0.0000       4.191750       114.0633 
  73   0.0000       4.191751       114.0633 
  74   0.0000       4.196751       114.1994 
  75   0.0000       4.196751       114.1994 
  76   0.0000       4.206528       114.4654 
  77   0.0000       4.206546       114.4659 
  78   0.0000       4.235395       115.2510 
  79   0.0000       4.235395       115.2510 
  80   0.0000       4.827668       131.3675 
  81   0.0000       7.035196       191.4374 
  82   0.0000       7.035423       191.4436 
  83   0.0000       7.046572       191.7470 
  84   0.0000       7.046572       191.7470 
  85   0.0000       7.120305       193.7533 
  86   0.0000       7.120305       193.7533 
  87   0.0000       7.251470       197.3225 
  88   0.0000       8.608011       234.2359 
  89   0.0000       8.608178       234.2404 
  90   0.0000       8.682129       236.2528 
  91   0.0000       8.682129       236.2528 
  92   0.0000       9.023793       245.5499 
  93   0.0000      27.403812       745.6956 
  94   0.0000      27.403812       745.6956 
  95   0.0000      30.431854       828.0929 
  96   0.0000      44.188381      1202.4270 
  97   0.0000      57.051453      1552.4490 
  98   0.0000     205.242862      5584.9422 

                    ********************************
                    * MULLIKEN POPULATION ANALYSIS *
                    ********************************

-----------------------
MULLIKEN ATOMIC CHARGES
-----------------------
   0 Au:    0.491753
   1 F :   -0.491753
Sum of atomic charges:   -0.0000000

--------------------------------
MULLIKEN REDUCED ORBITAL CHARGES
--------------------------------
  0 Aus       :     2.623089  s :     2.623089
      pz      :     2.059355  p :     6.104739
      px      :     2.022692
      py      :     2.022692
      dz2     :     1.766678  d :     9.756828
      dxz     :     1.995036
      dyz     :     1.995036
      dx2y2   :     2.000039
      dxy     :     2.000039
      f0      :     0.010963  f :     0.022978
      f+1     :     0.005856
      f-1     :     0.005856
      f+2     :     0.000151
      f-2     :     0.000151
      f+3     :     0.000000
      f-3     :     0.000000
      g0      :     0.000317  g :     0.000613
      g+1     :     0.000141
      g-1     :     0.000141
      g+2     :     0.000007
      g-2     :     0.000007
      g+3     :     0.000000
      g-3     :     0.000000
      g+4     :     0.000000
      g-4     :     0.000000
  1 F s       :     3.950420  s :     3.950420
      pz      :     1.586170  p :     5.537166
      px      :     1.975498
      py      :     1.975498
      dz2     :     0.002876  d :     0.003902
      dxz     :     0.000715
      dyz     :     0.000715
      dx2y2   :    -0.000202
      dxy     :    -0.000201
      f0      :     0.000132  f :     0.000265
      f+1     :     0.000062
      f-1     :     0.000062
      f+2     :     0.000005
      f-2     :     0.000005
      f+3     :     0.000000
      f-3     :     0.000000


                     *******************************
                     * LOEWDIN POPULATION ANALYSIS *
                     *******************************

----------------------
LOEWDIN ATOMIC CHARGES
----------------------
   0 Au:    0.625328
   1 F :   -0.625328

-------------------------------
LOEWDIN REDUCED ORBITAL CHARGES
-------------------------------
  0 Aus       :     2.401749  s :     2.401749
      pz      :     2.068479  p :     6.143168
      px      :     2.037345
      py      :     2.037345
      dz2     :     1.818863  d :     9.779808
      dxz     :     1.985389
      dyz     :     1.985389
      dx2y2   :     1.995084
      dxy     :     1.995083
      f0      :     0.023696  f :     0.048834
      f+1     :     0.012369
      f-1     :     0.012369
      f+2     :     0.000200
      f-2     :     0.000200
      f+3     :     0.000000
      f-3     :     0.000000
      g0      :     0.000618  g :     0.001114
      g+1     :     0.000243
      g-1     :     0.000243
      g+2     :     0.000005
      g-2     :     0.000005
      g+3     :     0.000000
      g-3     :     0.000000
      g+4     :     0.000000
      g-4     :     0.000000
  1 F s       :     3.864312  s :     3.864312
      pz      :     1.761659  p :     5.630011
      px      :     1.934176
      py      :     1.934176
      dz2     :     0.060354  d :     0.130427
      dxz     :     0.030336
      dyz     :     0.030336
      dx2y2   :     0.004701
      dxy     :     0.004701
      f0      :     0.000270  f :     0.000577
      f+1     :     0.000144
      f-1     :     0.000144
      f+2     :     0.000010
      f-2     :     0.000010
      f+3     :     0.000000
      f-3     :     0.000000


                      *****************************
                      * MAYER POPULATION ANALYSIS *
                      *****************************

  NA   - Mulliken gross atomic population
  ZA   - Total nuclear charge
  QA   - Mulliken gross atomic charge
  VA   - Mayer's total valence
  BVA  - Mayer's bonded valence
  FA   - Mayer's free valence

  ATOM       NA         ZA         QA         VA         BVA        FA
  0 Au    18.5082    19.0000     0.4918     0.8029     0.8029     0.0000
  1 F      9.4918     9.0000    -0.4918     0.8029     0.8029    -0.0000

  Mayer bond orders larger than 0.100000
B(  0-Au,  1-F ) :   0.8029 

-------
TIMINGS
-------

Total SCF time: 0 days 0 hours 0 min 5 sec 

Total time                  ....       5.776 sec
Sum of individual times     ....       5.580 sec  ( 96.6%)

Fock matrix formation       ....       4.322 sec  ( 74.8%)
  XC integration            ....       0.401 sec  (  9.3% of F)
    Basis function eval.    ....       0.029 sec  (  7.2% of XC)
    Density eval.           ....       0.017 sec  (  4.3% of XC)
    XC-Functional eval.     ....       0.020 sec  (  4.9% of XC)
    XC-Potential eval.      ....       0.027 sec  (  6.8% of XC)
Diagonalization             ....       0.026 sec  (  0.4%)
Density matrix formation    ....       0.005 sec  (  0.1%)
Population analysis         ....       0.003 sec  (  0.0%)
Initial guess               ....       1.012 sec  ( 17.5%)
Orbital Transformation      ....       0.000 sec  (  0.0%)
Orbital Orthonormalization  ....       0.000 sec  (  0.0%)
DIIS solution               ....       0.016 sec  (  0.3%)
Grid generation             ....       0.197 sec  (  3.4%)

-------------------------   --------------------
FINAL SINGLE POINT ENERGY      -235.515031037480
-------------------------   --------------------


----------------------------------------------------------------------------
                           ORCA NUMERICAL GRADIENT
                              (24-process run)
----------------------------------------------------------------------------

I state                        ... 1
J state                        ... 0
Number of atoms                ... 2
Derivative's order of accuracy ... 2
Central differences            ... used
Number of displacements        ... 12
Numerical increment            ... 5.000e-03 bohr
Translation invariance         ... used

The output will be reduced. Please look at the following files:
SCF program output             ... >Au01N0_F.lastscf
Integral program output        ... >Au01N0_F.lastint
Gradient program output        ... >Au01N0_F.lastgrad


     Note:   There are more processes than displacements to do
     ===>:   Reducing number of processes to   3

             <<<Displacing   2/coordinate 2 (+)>>>
             <<<Displacing   2/coordinate 1 (+)>>>
             <<<Displacing   2/coordinate 3 (+)>>>
             <<<Displacing   2/coordinate 2 (-)>>>
             <<<Displacing   2/coordinate 1 (-)>>>
             <<<Displacing   2/coordinate 3 (-)>>>

------------------------------
CARTESIAN GRADIENT (NUMERICAL)
-------------------------------
   1   Au  :    0.000000003   -0.000000000   -0.008332750
   2   F   :   -0.000000003    0.000000000    0.008332750

Norm of the cartesian gradient     ...    0.011784288
RMS gradient                       ...    0.004810915
MAX gradient                       ...    0.008332750

-------
TIMINGS
-------

Total numerical gradient time      ...       31.683 sec

------------------------------------------------------------------------------
                         ORCA GEOMETRY RELAXATION STEP
------------------------------------------------------------------------------

Reading the OPT-File                    .... done
Getting information on internals        .... done
Copying old internal coords+grads       .... done
Making the new internal coordinates     .... (new redundants).... done
Validating the new internal coordinates .... (new redundants).... done
Calculating the B-matrix                .... done
Calculating the G,G- and P matrices     .... done
Transforming gradient to internals      .... done
Projecting the internal gradient        .... done
Number of atoms                         ....   2
Number of internal coordinates          ....   1
Current Energy                          ....  -235.515031037 Eh
Current gradient norm                   ....     0.011784288 Eh/bohr
Maximum allowed component of the step   ....  0.300
Current trust radius                    ....  0.300
Evaluating the initial hessian          ....  (Almloef) done
Projecting the Hessian                  .... done
Forming the augmented Hessian           .... done
Diagonalizing the augmented Hessian     .... done
Last element of RFO vector              ....  0.996689434
Lowest eigenvalues of augmented Hessian:
 -0.000679728
Length of the computed step             ....  0.081573024
The final length of the internal step   ....  0.081573024
Converting the step to cartesian space:
 Initial RMS(Int)=    0.0815730240
Transforming coordinates:
 Iter   0:  RMS(Cart)=    0.0235481037 RMS(Int)=    0.0815730240
 Iter   1:  RMS(Cart)=    0.0000000000 RMS(Int)=    0.0000000000
done
Storing new coordinates                 .... done

                                .--------------------.
          ----------------------|Geometry convergence|-------------------------
          Item                value                   Tolerance       Converged
          ---------------------------------------------------------------------
          RMS gradient        0.0083327496            0.0001000000      NO
          MAX gradient        0.0083327496            0.0003000000      NO
          RMS step            0.0815730240            0.0020000000      NO
          MAX step            0.0815730240            0.0040000000      NO
          ........................................................
          Max(Bonds)      0.0432      Max(Angles)    0.00
          Max(Dihed)        0.00      Max(Improp)    0.00
          ---------------------------------------------------------------------

The optimization has not yet converged - more geometry cycles are needed


    ---------------------------------------------------------------------------
                         Redundant Internal Coordinates
                            (Angstroem and degrees)

        Definition                    Value    dE/dq     Step     New-Value
    ----------------------------------------------------------------------------
     1. B(F   1,Au  0)                1.9248 -0.008333  0.0432    1.9680   
    ----------------------------------------------------------------------------

         *************************************************************
         *                GEOMETRY OPTIMIZATION CYCLE   2            *
         *************************************************************
---------------------------------
CARTESIAN COORDINATES (ANGSTROEM)
---------------------------------
  Au     0.000000    0.000000    0.218436
  F      0.000000    0.000000   -1.749514

----------------------------
CARTESIAN COORDINATES (A.U.)
----------------------------
  NO LB      ZA    FRAG     MASS         X           Y           Z
   0 Au   19.0000*   0   196.966    0.000000    0.000000    0.412785
   1 F     9.0000    0    18.998    0.000000    0.000000   -3.306103
* core charge reduced due to ECP

--------------------------------
INTERNAL COORDINATES (ANGSTROEM)
--------------------------------
 Au     0   0   0     0.000000000000     0.00000000     0.00000000
 F      1   0   0     1.967950585095     0.00000000     0.00000000

---------------------------
INTERNAL COORDINATES (A.U.)
---------------------------
 Au     0   0   0     0.000000000000     0.00000000     0.00000000
 F      1   0   0     3.718887650920     0.00000000     0.00000000



           ************************************************************
           *        Program running with 24 parallel MPI-processes    *
           *              working on a common directory               *
           ************************************************************


           ************************************************************
           *        Program running with 24 parallel MPI-processes    *
           *              working on a common directory               *
           ************************************************************

Diagonalization of the overlap matrix:
Smallest eigenvalue                        ... 3.386e-03
Time for diagonalization                   ...    0.002 sec
Threshold for overlap eigenvalues          ... 1.000e-08
Number of eigenvalues below threshold      ... 0
Time for construction of square roots      ...    0.002 sec
Total time needed                          ...    0.004 sec

-------------------
DFT GRID GENERATION
-------------------

General Integration Accuracy     IntAcc      ...  4.670
Radial Grid Type                 RadialGrid  ... Gauss-Chebyshev
Angular Grid (max. acc.)         AngularGrid ... Lebedev-302
Angular grid pruning method      GridPruning ... 3 (G Style)
Weight generation scheme         WeightScheme... Becke
Basis function cutoff            BFCut       ...    1.0000e-11
Integration weight cutoff        WCut        ...    1.0000e-14
Grids for H and He will be reduced by one unit

# of grid points (after initial pruning)     ...  17924 (   0.0 sec)
# of grid points (after weights+screening)   ...  17875 (   0.0 sec)
nearest neighbour list constructed           ...    0.0 sec
Grid point re-assignment to atoms done       ...    0.0 sec
Grid point division into batches done        ...    0.1 sec
Reduced shell lists constructed in    0.1 sec

Total number of grid points                  ...    17875
Total number of batches                      ...      281
Average number of points per batch           ...       63
Average number of grid points per atom       ...     8938
Average number of shells per batch           ...     2.92 ( 9.43%)
Average number of basis functions per batch  ...     7.08 ( 7.15%)
Average number of large shells per batch     ...     1.31 (44.74%)
Average number of large basis fcns per batch ...     3.46 (48.91%)
Maximum spatial batch extension              ...  37.74, 41.49, 24.29 au
Average spatial batch extension              ...   1.13,  1.16,  0.84 au

Time for grid setup =    0.177 sec

--------------
SCF ITERATIONS
--------------
ITER       Energy         Delta-E        Max-DP      RMS-DP      [F,P]     Damp
               ***  Starting incremental Fock matrix formation  ***
  0   -235.6257389370   0.000000000000 0.00293147  0.00008087  0.0767820 0.7000
  1   -235.6258214286  -0.000082491591 0.00326448  0.00007682  0.0538758 0.7000
                               ***Turning on DIIS***
  2   -235.6258871784  -0.000065749773 0.01041123  0.00022129  0.0377734 0.0000
  3   -235.6260763391  -0.000189160722 0.00480594  0.00008978  0.0021908 0.0000
  4   -235.6260969637  -0.000020624649 0.00236054  0.00004832  0.0019523 0.0000
  5   -235.6261075270  -0.000010563284 0.00309983  0.00005908  0.0012523 0.0000
  6   -235.6261161000  -0.000008572972 0.00385204  0.00008021  0.0009288 0.0000
  7   -235.6261234479  -0.000007347961 0.00191778  0.00004133  0.0003417 0.0000
  8   -235.6261248701  -0.000001422166 0.00029715  0.00000744  0.0000960 0.0000
  9   -235.6261249391  -0.000000068951 0.00009544  0.00000217  0.0000338 0.0000
 10   -235.6261249449  -0.000000005863 0.00002428  0.00000073  0.0000164 0.0000
 11   -235.6261249457  -0.000000000751 0.00000702  0.00000021  0.0000092 0.0000
 12   -235.6261249459  -0.000000000275 0.00000198  0.00000007  0.0000053 0.0000
                 **** Energy Check signals convergence ****

               *****************************************************
               *                     SUCCESS                       *
               *           SCF CONVERGED AFTER  13 CYCLES          *
               *****************************************************


Setting up the DFT-NL grid :

General Integration Accuracy     IntAcc      ...  4.340
Radial Grid Type                 RadialGrid  ... Gauss-Chebyshev
Angular Grid (max. acc.)         AngularGrid ... Lebedev-110
Angular grid pruning method      GridPruning ... 3 (G Style)
Weight generation scheme         WeightScheme... Becke
Basis function cutoff            BFCut       ...    1.0000e-11
Integration weight cutoff        WCut        ...    1.0000e-14
Grids for H and He will be reduced by one unit

# of grid points (after initial pruning)     ...   5270 (   0.0 sec)
# of grid points (after weights+screening)   ...   5241 (   0.0 sec)
nearest neighbour list constructed           ...    0.0 sec
Grid point re-assignment to atoms done       ...    0.0 sec
Grid point division into batches done        ...    0.0 sec
Reduced shell lists constructed in    0.0 sec

Total number of grid points                  ...     5241
Total number of batches                      ...       83
Average number of points per batch           ...       63
Average number of grid points per atom       ...     2620
Average number of shells per batch           ...     9.20 (29.68%)
Average number of basis functions per batch  ...    26.00 (26.26%)
Average number of large shells per batch     ...     6.40 (69.57%)
Average number of large basis fcns per batch ...    17.60 (67.69%)
Maximum spatial batch extension              ...  26.72, 49.51, 26.35 au
Average spatial batch extension              ...   1.15,  1.85,  1.27 au

Final grid set up in    0.0 sec

-------------------------------------------------------------------------------
                         DFT-NL dispersion correction                          
-------------------------------------------------------------------------------

SC Energy -235.626124946 
NL    Energy 0.111084242 
SC+NL Energy -235.515040704 
NL done in    0.0 sec
-------------------------------------------------------------------------------
Total Energy       :         -235.51504070 Eh           -6408.69007 eV
  Last Energy change         ...    1.3097e-10  Tolerance :   1.0000e-08
  Last MAX-Density change    ...    2.1004e-06  Tolerance :   1.0000e-07
             **** THE GBW FILE WAS UPDATED (Au01N0_F.gbw) ****
             **** DENSITY FILE WAS UPDATED (Au01N0_F.scfp) ****
             **** ENERGY FILE WAS UPDATED (Au01N0_F.en.tmp) ****
             **** THE GBW FILE WAS UPDATED (Au01N0_F.gbw) ****
             **** DENSITY FILE WAS UPDATED (Au01N0_F.scfp) ****
Total SCF time: 0 days 0 hours 0 min 4 sec 

-------------------------   --------------------
FINAL SINGLE POINT ENERGY      -235.515040703929
-------------------------   --------------------


----------------------------------------------------------------------------
                           ORCA NUMERICAL GRADIENT
                              (24-process run)
----------------------------------------------------------------------------

I state                        ... 1
J state                        ... 0
Number of atoms                ... 2
Derivative's order of accuracy ... 2
Central differences            ... used
Number of displacements        ... 12
Numerical increment            ... 5.000e-03 bohr
Translation invariance         ... used

The output will be reduced. Please look at the following files:
SCF program output             ... >Au01N0_F.lastscf
Integral program output        ... >Au01N0_F.lastint
Gradient program output        ... >Au01N0_F.lastgrad


     Note:   There are more processes than displacements to do
     ===>:   Reducing number of processes to   3

             <<<Displacing   2/coordinate 3 (+)>>>
             <<<Displacing   2/coordinate 1 (+)>>>
             <<<Displacing   2/coordinate 2 (+)>>>
             <<<Displacing   2/coordinate 1 (-)>>>
             <<<Displacing   2/coordinate 2 (-)>>>
             <<<Displacing   2/coordinate 3 (-)>>>

------------------------------
CARTESIAN GRADIENT (NUMERICAL)
-------------------------------
   1   Au  :   -0.000000007   -0.000000003    0.007518988
   2   F   :    0.000000007    0.000000003   -0.007518988

Norm of the cartesian gradient     ...    0.010633454
RMS gradient                       ...    0.004341090
MAX gradient                       ...    0.007518988

-------
TIMINGS
-------

Total numerical gradient time      ...       30.924 sec

------------------------------------------------------------------------------
                         ORCA GEOMETRY RELAXATION STEP
------------------------------------------------------------------------------

Reading the OPT-File                    .... done
Getting information on internals        .... done
Copying old internal coords+grads       .... done
Making the new internal coordinates     .... (new redundants).... done
Validating the new internal coordinates .... (new redundants).... done
Calculating the B-matrix                .... done
Calculating the G,G- and P matrices     .... done
Transforming gradient to internals      .... done
Projecting the internal gradient        .... done
Number of atoms                         ....   2
Number of internal coordinates          ....   1
Current Energy                          ....  -235.515040704 Eh
Current gradient norm                   ....     0.010633454 Eh/bohr
Maximum allowed component of the step   ....  0.300
Current trust radius                    ....  0.300
Updating the Hessian (BFGS)             .... done
Forming the augmented Hessian           .... done
Diagonalizing the augmented Hessian     .... done
Last element of RFO vector              ....  0.999254505
Lowest eigenvalues of augmented Hessian:
 -0.000290496
Length of the computed step             ....  0.038634948
The final length of the internal step   ....  0.038634948
Converting the step to cartesian space:
 Initial RMS(Int)=    0.0386349479
Transforming coordinates:
 Iter   0:  RMS(Cart)=    0.0111529488 RMS(Int)=    0.0386349479
 Iter   1:  RMS(Cart)=    0.0000000000 RMS(Int)=    0.0000000000
done
Storing new coordinates                 .... done

                                .--------------------.
          ----------------------|Geometry convergence|-------------------------
          Item                value                   Tolerance       Converged
          ---------------------------------------------------------------------
          Energy change      -0.0000096664            0.0000050000      NO
          RMS gradient        0.0075189877            0.0001000000      NO
          MAX gradient        0.0075189877            0.0003000000      NO
          RMS step            0.0386349479            0.0020000000      NO
          MAX step            0.0386349479            0.0040000000      NO
          ........................................................
          Max(Bonds)      0.0204      Max(Angles)    0.00
          Max(Dihed)        0.00      Max(Improp)    0.00
          ---------------------------------------------------------------------

The optimization has not yet converged - more geometry cycles are needed


    ---------------------------------------------------------------------------
                         Redundant Internal Coordinates
                            (Angstroem and degrees)

        Definition                    Value    dE/dq     Step     New-Value
    ----------------------------------------------------------------------------
     1. B(F   1,Au  0)                1.9680  0.007519 -0.0204    1.9475   
    ----------------------------------------------------------------------------

         *************************************************************
         *                GEOMETRY OPTIMIZATION CYCLE   3            *
         *************************************************************


           ************************************************************
           *        Program running with 24 parallel MPI-processes    *
           *              working on a common directory               *
           ************************************************************


           ************************************************************
           *        Program running with 24 parallel MPI-processes    *
           *              working on a common directory               *
           ************************************************************

Diagonalization of the overlap matrix:
Smallest eigenvalue                        ... 3.247e-03
Time for diagonalization                   ...    0.004 sec
Threshold for overlap eigenvalues          ... 1.000e-08
Number of eigenvalues below threshold      ... 0
Time for construction of square roots      ...    0.001 sec
Total time needed                          ...    0.005 sec

-------------------
DFT GRID GENERATION
-------------------

General Integration Accuracy     IntAcc      ...  4.670
Radial Grid Type                 RadialGrid  ... Gauss-Chebyshev
Angular Grid (max. acc.)         AngularGrid ... Lebedev-302
Angular grid pruning method      GridPruning ... 3 (G Style)
Weight generation scheme         WeightScheme... Becke
Basis function cutoff            BFCut       ...    1.0000e-11
Integration weight cutoff        WCut        ...    1.0000e-14
Grids for H and He will be reduced by one unit

# of grid points (after initial pruning)     ...  17924 (   0.0 sec)
# of grid points (after weights+screening)   ...  17875 (   0.0 sec)
nearest neighbour list constructed           ...    0.0 sec
Grid point re-assignment to atoms done       ...    0.0 sec
Grid point division into batches done        ...    0.1 sec
Reduced shell lists constructed in    0.1 sec

Total number of grid points                  ...    17875
Total number of batches                      ...      280
Average number of points per batch           ...       63
Average number of grid points per atom       ...     8938
Average number of shells per batch           ...     2.92 ( 9.43%)
Average number of basis functions per batch  ...     7.08 ( 7.15%)
Average number of large shells per batch     ...     1.31 (44.74%)
Average number of large basis fcns per batch ...     3.46 (48.91%)
Maximum spatial batch extension              ...  37.74, 41.49, 24.29 au
Average spatial batch extension              ...   1.14,  1.17,  0.84 au

Time for grid setup =    0.191 sec

--------------
SCF ITERATIONS
--------------
ITER       Energy         Delta-E        Max-DP      RMS-DP      [F,P]     Damp
               ***  Starting incremental Fock matrix formation  ***
  0   -235.6261273664   0.000000000000 0.00135142  0.00003729  0.0393314 0.7000
  1   -235.6261453638  -0.000017997343 0.00149672  0.00003537  0.0275948 0.7000
                               ***Turning on DIIS***
  2   -235.6261596580  -0.000014294183 0.00476524  0.00010182  0.0193455 0.0000
  3   -235.6262006073  -0.000040949358 0.00221113  0.00004165  0.0010156 0.0000
  4   -235.6262050289  -0.000004421599 0.00169988  0.00003642  0.0009069 0.0000
  5   -235.6262083736  -0.000003344716 0.00200221  0.00003836  0.0003947 0.0000
  6   -235.6262103060  -0.000001932350 0.00109062  0.00002340  0.0002543 0.0000
  7   -235.6262109133  -0.000000607281 0.00035325  0.00000738  0.0000921 0.0000
  8   -235.6262109860  -0.000000072756 0.00018698  0.00000411  0.0000587 0.0000
  9   -235.6262110031  -0.000000017079 0.00002997  0.00000075  0.0000107 0.0000
                 **** Energy Check signals convergence ****

               *****************************************************
               *                     SUCCESS                       *
               *           SCF CONVERGED AFTER  10 CYCLES          *
               *****************************************************


Setting up the DFT-NL grid :

General Integration Accuracy     IntAcc      ...  4.340
Radial Grid Type                 RadialGrid  ... Gauss-Chebyshev
Angular Grid (max. acc.)         AngularGrid ... Lebedev-110
Angular grid pruning method      GridPruning ... 3 (G Style)
Weight generation scheme         WeightScheme... Becke
Basis function cutoff            BFCut       ...    1.0000e-11
Integration weight cutoff        WCut        ...    1.0000e-14
Grids for H and He will be reduced by one unit

# of grid points (after initial pruning)     ...   5270 (   0.0 sec)
# of grid points (after weights+screening)   ...   5240 (   0.0 sec)
nearest neighbour list constructed           ...    0.0 sec
Grid point re-assignment to atoms done       ...    0.0 sec
Grid point division into batches done        ...    0.0 sec
Reduced shell lists constructed in    0.0 sec

Total number of grid points                  ...     5240
Total number of batches                      ...       83
Average number of points per batch           ...       63
Average number of grid points per atom       ...     2620
Average number of shells per batch           ...     9.20 (29.68%)
Average number of basis functions per batch  ...    26.00 (26.26%)
Average number of large shells per batch     ...     6.40 (69.57%)
Average number of large basis fcns per batch ...    17.60 (67.69%)
Maximum spatial batch extension              ...  26.72, 49.51, 26.35 au
Average spatial batch extension              ...   1.15,  1.85,  1.27 au

Final grid set up in    0.0 sec

-------------------------------------------------------------------------------
                         DFT-NL dispersion correction                          
-------------------------------------------------------------------------------

SC Energy -235.626211004 
NL    Energy 0.111014121 
SC+NL Energy -235.515196883 
NL done in    0.0 sec
-------------------------------------------------------------------------------
Total Energy       :         -235.51519688 Eh           -6408.69432 eV
  Last Energy change         ...   -1.0396e-09  Tolerance :   1.0000e-08
  Last MAX-Density change    ...    1.0686e-05  Tolerance :   1.0000e-07
             **** THE GBW FILE WAS UPDATED (Au01N0_F.gbw) ****
             **** DENSITY FILE WAS UPDATED (Au01N0_F.scfp) ****
             **** ENERGY FILE WAS UPDATED (Au01N0_F.en.tmp) ****
             **** THE GBW FILE WAS UPDATED (Au01N0_F.gbw) ****
             **** DENSITY FILE WAS UPDATED (Au01N0_F.scfp) ****
Total SCF time: 0 days 0 hours 0 min 3 sec 

-------------------------   --------------------
FINAL SINGLE POINT ENERGY      -235.515196882784
-------------------------   --------------------


----------------------------------------------------------------------------
                           ORCA NUMERICAL GRADIENT
                              (24-process run)
----------------------------------------------------------------------------

I state                        ... 1
J state                        ... 0
Number of atoms                ... 2
Derivative's order of accuracy ... 2
Central differences            ... used
Number of displacements        ... 12
Numerical increment            ... 5.000e-03 bohr
Translation invariance         ... used

The output will be reduced. Please look at the following files:
SCF program output             ... >Au01N0_F.lastscf
Integral program output        ... >Au01N0_F.lastint
Gradient program output        ... >Au01N0_F.lastgrad


     Note:   There are more processes than displacements to do
     ===>:   Reducing number of processes to   3

             <<<Displacing   2/coordinate 2 (+)>>>
             <<<Displacing   2/coordinate 3 (+)>>>
             <<<Displacing   2/coordinate 1 (+)>>>
             <<<Displacing   2/coordinate 2 (-)>>>
             <<<Displacing   2/coordinate 1 (-)>>>
             <<<Displacing   2/coordinate 3 (-)>>>

------------------------------
CARTESIAN GRADIENT (NUMERICAL)
-------------------------------
   1   Au  :   -0.000000004    0.000000002    0.000438539
   2   F   :    0.000000004   -0.000000002   -0.000438539

Norm of the cartesian gradient     ...    0.000620188
RMS gradient                       ...    0.000253191
MAX gradient                       ...    0.000438539

-------
TIMINGS
-------

Total numerical gradient time      ...       31.748 sec

------------------------------------------------------------------------------
                         ORCA GEOMETRY RELAXATION STEP
------------------------------------------------------------------------------

Reading the OPT-File                    .... done
Getting information on internals        .... done
Copying old internal coords+grads       .... done
Making the new internal coordinates     .... (new redundants).... done
Validating the new internal coordinates .... (new redundants).... done
Calculating the B-matrix                .... done
Calculating the G,G- and P matrices     .... done
Transforming gradient to internals      .... done
Projecting the internal gradient        .... done
Number of atoms                         ....   2
Number of internal coordinates          ....   1
Current Energy                          ....  -235.515196883 Eh
Current gradient norm                   ....     0.000620188 Eh/bohr
Maximum allowed component of the step   ....  0.300
Current trust radius                    ....  0.300
Updating the Hessian (BFGS)             .... done
Forming the augmented Hessian           .... done
Diagonalizing the augmented Hessian     .... done
Last element of RFO vector              ....  0.999997137
Lowest eigenvalues of augmented Hessian:
 -0.000001049
Length of the computed step             ....  0.002392906
The final length of the internal step   ....  0.002392906
Converting the step to cartesian space:
 Initial RMS(Int)=    0.0023929062
Transforming coordinates:
 Iter   0:  RMS(Cart)=    0.0006907725 RMS(Int)=    0.0023929062
 Iter   1:  RMS(Cart)=    0.0000000000 RMS(Int)=    0.0000000000
done
Storing new coordinates                 .... done

                                .--------------------.
          ----------------------|Geometry convergence|-------------------------
          Item                value                   Tolerance       Converged
          ---------------------------------------------------------------------
          Energy change      -0.0001561789            0.0000050000      NO
          RMS gradient        0.0004385394            0.0001000000      NO
          MAX gradient        0.0004385394            0.0003000000      NO
          RMS step            0.0023929062            0.0020000000      NO
          MAX step            0.0023929062            0.0040000000      YES
          ........................................................
          Max(Bonds)      0.0013      Max(Angles)    0.00
          Max(Dihed)        0.00      Max(Improp)    0.00
          ---------------------------------------------------------------------

The optimization has not yet converged - more geometry cycles are needed


    ---------------------------------------------------------------------------
                         Redundant Internal Coordinates
                            (Angstroem and degrees)

        Definition                    Value    dE/dq     Step     New-Value
    ----------------------------------------------------------------------------
     1. B(F   1,Au  0)                1.9475  0.000439 -0.0013    1.9462   
    ----------------------------------------------------------------------------

         *************************************************************
         *                GEOMETRY OPTIMIZATION CYCLE   4            *
         *************************************************************


           ************************************************************
           *        Program running with 24 parallel MPI-processes    *
           *              working on a common directory               *
           ************************************************************


           ************************************************************
           *        Program running with 24 parallel MPI-processes    *
           *              working on a common directory               *
           ************************************************************

Diagonalization of the overlap matrix:
Smallest eigenvalue                        ... 3.238e-03
Time for diagonalization                   ...    0.003 sec
Threshold for overlap eigenvalues          ... 1.000e-08
Number of eigenvalues below threshold      ... 0
Time for construction of square roots      ...    0.001 sec
Total time needed                          ...    0.005 sec

-------------------
DFT GRID GENERATION
-------------------

General Integration Accuracy     IntAcc      ...  4.670
Radial Grid Type                 RadialGrid  ... Gauss-Chebyshev
Angular Grid (max. acc.)         AngularGrid ... Lebedev-302
Angular grid pruning method      GridPruning ... 3 (G Style)
Weight generation scheme         WeightScheme... Becke
Basis function cutoff            BFCut       ...    1.0000e-11
Integration weight cutoff        WCut        ...    1.0000e-14
Grids for H and He will be reduced by one unit

# of grid points (after initial pruning)     ...  17924 (   0.0 sec)
# of grid points (after weights+screening)   ...  17875 (   0.0 sec)
nearest neighbour list constructed           ...    0.0 sec
Grid point re-assignment to atoms done       ...    0.0 sec
Grid point division into batches done        ...    0.1 sec
Reduced shell lists constructed in    0.1 sec

Total number of grid points                  ...    17875
Total number of batches                      ...      280
Average number of points per batch           ...       63
Average number of grid points per atom       ...     8938
Average number of shells per batch           ...     2.92 ( 9.43%)
Average number of basis functions per batch  ...     7.08 ( 7.15%)
Average number of large shells per batch     ...     1.31 (44.74%)
Average number of large basis fcns per batch ...     3.46 (48.91%)
Maximum spatial batch extension              ...  37.74, 41.49, 24.29 au
Average spatial batch extension              ...   1.13,  1.18,  0.84 au

Time for grid setup =    0.201 sec

--------------
SCF ITERATIONS
--------------
ITER       Energy         Delta-E        Max-DP      RMS-DP      [F,P]     Damp
               ***  Starting incremental Fock matrix formation  ***
  0   -235.6262068003   0.000000000000 0.00008555  0.00000236  0.0023791 0.7000
  1   -235.6262068716  -0.000000071256 0.00009518  0.00000224  0.0016692 0.7000
                               ***Turning on DIIS***
  2   -235.6262069281  -0.000000056582 0.00030393  0.00000646  0.0011703 0.0000
  3   -235.6262070906  -0.000000162474 0.00021356  0.00000396  0.0000643 0.0000
  4   -235.6262071159  -0.000000025273 0.00005296  0.00000137  0.0000470 0.0000
  5   -235.6262071237  -0.000000007839 0.00012495  0.00000236  0.0000252 0.0000
  6   -235.6262071309  -0.000000007133 0.00006434  0.00000135  0.0000134 0.0000
  7   -235.6262071330  -0.000000002095 0.00001961  0.00000044  0.0000058 0.0000
  8   -235.6262071332  -0.000000000268 0.00001213  0.00000026  0.0000022 0.0000
                 **** Energy Check signals convergence ****

               *****************************************************
               *                     SUCCESS                       *
               *           SCF CONVERGED AFTER   9 CYCLES          *
               *****************************************************


Setting up the DFT-NL grid :

General Integration Accuracy     IntAcc      ...  4.340
Radial Grid Type                 RadialGrid  ... Gauss-Chebyshev
Angular Grid (max. acc.)         AngularGrid ... Lebedev-110
Angular grid pruning method      GridPruning ... 3 (G Style)
Weight generation scheme         WeightScheme... Becke
Basis function cutoff            BFCut       ...    1.0000e-11
Integration weight cutoff        WCut        ...    1.0000e-14
Grids for H and He will be reduced by one unit

# of grid points (after initial pruning)     ...   5270 (   0.0 sec)
# of grid points (after weights+screening)   ...   5240 (   0.0 sec)
nearest neighbour list constructed           ...    0.0 sec
Grid point re-assignment to atoms done       ...    0.0 sec
Grid point division into batches done        ...    0.0 sec
Reduced shell lists constructed in    0.0 sec

Total number of grid points                  ...     5240
Total number of batches                      ...       83
Average number of points per batch           ...       63
Average number of grid points per atom       ...     2620
Average number of shells per batch           ...     9.20 (29.68%)
Average number of basis functions per batch  ...    26.00 (26.26%)
Average number of large shells per batch     ...     6.40 (69.57%)
Average number of large basis fcns per batch ...    17.60 (67.69%)
Maximum spatial batch extension              ...  26.72, 49.51, 26.35 au
Average spatial batch extension              ...   1.15,  1.85,  1.27 au

Final grid set up in    0.0 sec

-------------------------------------------------------------------------------
                         DFT-NL dispersion correction                          
-------------------------------------------------------------------------------

SC Energy -235.626207133 
NL    Energy 0.111009751 
SC+NL Energy -235.515197382 
NL done in    0.0 sec
-------------------------------------------------------------------------------
Total Energy       :         -235.51519738 Eh           -6408.69433 eV
  Last Energy change         ...    1.9526e-11  Tolerance :   1.0000e-08
  Last MAX-Density change    ...    9.3896e-07  Tolerance :   1.0000e-07
             **** THE GBW FILE WAS UPDATED (Au01N0_F.gbw) ****
             **** DENSITY FILE WAS UPDATED (Au01N0_F.scfp) ****
             **** ENERGY FILE WAS UPDATED (Au01N0_F.en.tmp) ****
             **** THE GBW FILE WAS UPDATED (Au01N0_F.gbw) ****
             **** DENSITY FILE WAS UPDATED (Au01N0_F.scfp) ****
Total SCF time: 0 days 0 hours 0 min 2 sec 

-------------------------   --------------------
FINAL SINGLE POINT ENERGY      -235.515197382055
-------------------------   --------------------


----------------------------------------------------------------------------
                           ORCA NUMERICAL GRADIENT
                              (24-process run)
----------------------------------------------------------------------------

I state                        ... 1
J state                        ... 0
Number of atoms                ... 2
Derivative's order of accuracy ... 2
Central differences            ... used
Number of displacements        ... 12
Numerical increment            ... 5.000e-03 bohr
Translation invariance         ... used

The output will be reduced. Please look at the following files:
SCF program output             ... >Au01N0_F.lastscf
Integral program output        ... >Au01N0_F.lastint
Gradient program output        ... >Au01N0_F.lastgrad


     Note:   There are more processes than displacements to do
     ===>:   Reducing number of processes to   3

             <<<Displacing   2/coordinate 2 (+)>>>
             <<<Displacing   2/coordinate 3 (+)>>>
             <<<Displacing   2/coordinate 1 (+)>>>
             <<<Displacing   2/coordinate 1 (-)>>>
             <<<Displacing   2/coordinate 2 (-)>>>
             <<<Displacing   2/coordinate 3 (-)>>>

------------------------------
CARTESIAN GRADIENT (NUMERICAL)
-------------------------------
   1   Au  :   -0.000000004    0.000000000   -0.000024612
   2   F   :    0.000000004   -0.000000000    0.000024612

Norm of the cartesian gradient     ...    0.000034807
RMS gradient                       ...    0.000014210
MAX gradient                       ...    0.000024612

-------
TIMINGS
-------

Total numerical gradient time      ...       31.328 sec

------------------------------------------------------------------------------
                         ORCA GEOMETRY RELAXATION STEP
------------------------------------------------------------------------------

Reading the OPT-File                    .... done
Getting information on internals        .... done
Copying old internal coords+grads       .... done
Making the new internal coordinates     .... (new redundants).... done
Validating the new internal coordinates .... (new redundants).... done
Calculating the B-matrix                .... done
Calculating the G,G- and P matrices     .... done
Transforming gradient to internals      .... done
Projecting the internal gradient        .... done
Number of atoms                         ....   2
Number of internal coordinates          ....   1
Current Energy                          ....  -235.515197382 Eh
Current gradient norm                   ....     0.000034807 Eh/bohr
Maximum allowed component of the step   ....  0.300
Current trust radius                    ....  0.300
Updating the Hessian (BFGS)             .... done
Forming the augmented Hessian           .... done
Diagonalizing the augmented Hessian     .... done
Last element of RFO vector              ....  0.999999992
Lowest eigenvalues of augmented Hessian:
 -0.000000003
Length of the computed step             ....  0.000127161
The final length of the internal step   ....  0.000127161
Converting the step to cartesian space:
 Initial RMS(Int)=    0.0001271611
Transforming coordinates:
 Iter   0:  RMS(Cart)=    0.0000367082 RMS(Int)=    0.0001271611
 Iter   1:  RMS(Cart)=    0.0000000000 RMS(Int)=    0.0000000000
done
Storing new coordinates                 .... done

                                .--------------------.
          ----------------------|Geometry convergence|-------------------------
          Item                value                   Tolerance       Converged
          ---------------------------------------------------------------------
          Energy change      -0.0000004993            0.0000050000      YES
          RMS gradient        0.0000246123            0.0001000000      YES
          MAX gradient        0.0000246123            0.0003000000      YES
          RMS step            0.0001271611            0.0020000000      YES
          MAX step            0.0001271611            0.0040000000      YES
          ........................................................
          Max(Bonds)      0.0001      Max(Angles)    0.00
          Max(Dihed)        0.00      Max(Improp)    0.00
          ---------------------------------------------------------------------

                    ***********************HURRAY********************
                    ***        THE OPTIMIZATION HAS CONVERGED     ***
                    *************************************************


    ---------------------------------------------------------------------------
                         Redundant Internal Coordinates

                          --- Optimized Parameters ---  
                            (Angstroem and degrees)

        Definition                    OldVal   dE/dq     Step     FinalVal
    ----------------------------------------------------------------------------
     1. B(F   1,Au  0)                1.9462 -0.000025  0.0001    1.9463   
    ----------------------------------------------------------------------------
                 *******************************************************
                 *** FINAL ENERGY EVALUATION AT THE STATIONARY POINT ***
                 ***               (AFTER    4 CYCLES)               ***
                 *******************************************************
---------------------------------
CARTESIAN COORDINATES (ANGSTROEM)
---------------------------------
  Au     0.000000    0.000000    0.207614
  F      0.000000    0.000000   -1.738692

----------------------------
CARTESIAN COORDINATES (A.U.)
----------------------------
  NO LB      ZA    FRAG     MASS         X           Y           Z
   0 Au   19.0000*   0   196.966    0.000000    0.000000    0.392334
   1 F     9.0000    0    18.998    0.000000    0.000000   -3.285653
* core charge reduced due to ECP

--------------------------------
INTERNAL COORDINATES (ANGSTROEM)
--------------------------------
 Au     0   0   0     0.000000000000     0.00000000     0.00000000
 F      1   0   0     1.946306870557     0.00000000     0.00000000

---------------------------
INTERNAL COORDINATES (A.U.)
---------------------------
 Au     0   0   0     0.000000000000     0.00000000     0.00000000
 F      1   0   0     3.677986957923     0.00000000     0.00000000

---------------------
BASIS SET INFORMATION
---------------------
There are 2 groups of distinct atoms

 Group   1 Type Au  : 8s8p6d2f1g contracted to 6s5p3d2f1g pattern {311111/41111/411/11/1}
 Group   2 Type F   : 12s7p3d1f contracted to 6s4p3d1f pattern {621111/4111/111/1}

Atom   0Au   basis set group =>   1
Atom   1F    basis set group =>   2
----------------------------------
AUXILIARY/JK BASIS SET INFORMATION
----------------------------------
There are 2 groups of distinct atoms

 Group   1 Type Au  : 13s12p11d9f5g3h2i contracted to 13s11p10d8f4g3h2i pattern {1111111111111/21111111111/2111111111/21111111/2111/111/11}
 Group   2 Type F   : 14s10p6d2f1g contracted to 10s8p4d2f1g pattern {5111111111/31111111/3111/11/1}

Atom   0Au   basis set group =>   1
Atom   1F    basis set group =>   2
-------------------------
ECP PARAMETER INFORMATION
-------------------------

 Group 1, Type Au ECP Def2-ECP (replacing 60 core electrons, lmax=3)

Atom   0Au   ECP group =>   1



           ************************************************************
           *        Program running with 24 parallel MPI-processes    *
           *              working on a common directory               *
[...]
  17   0.0000       0.087266         2.3746 
  18   0.0000       0.145474         3.9585 
  19   0.0000       0.201937         5.4950 
  20   0.0000       0.201937         5.4950 
  21   0.0000       0.223429         6.0798 
  22   0.0000       0.255402         6.9499 
  23   0.0000       0.255402         6.9499 
  24   0.0000       0.306053         8.3281 
  25   0.0000       0.372045        10.1239 
  26   0.0000       0.372045        10.1239 
  27   0.0000       0.393646        10.7116 
  28   0.0000       0.436937        11.8897 
  29   0.0000       0.436937        11.8897 
  30   0.0000       0.497803        13.5459 
  31   0.0000       0.623454        16.9650 
  32   0.0000       0.623455        16.9651 
  33   0.0000       0.744376        20.2555 
  34   0.0000       0.744376        20.2555 
  35   0.0000       0.744514        20.2593 
  36   0.0000       0.876933        23.8626 
  37   0.0000       0.876933        23.8626 
  38   0.0000       1.053784        28.6749 
  39   0.0000       1.129671        30.7399 
  40   0.0000       1.129671        30.7399 
  41   0.0000       1.163019        31.6473 
  42   0.0000       1.204604        32.7789 
  43   0.0000       1.204604        32.7789 
  44   0.0000       1.237671        33.6788 
  45   0.0000       1.237672        33.6788 
  46   0.0000       1.353738        36.8371 
  47   0.0000       1.394652        37.9504 
  48   0.0000       1.394652        37.9504 
  49   0.0000       1.457866        39.6706 
  50   0.0000       1.566633        42.6303 
  51   0.0000       1.566635        42.6303 
  52   0.0000       1.620537        44.0971 
  53   0.0000       1.620537        44.0971 
  54   0.0000       1.779495        48.4225 
  55   0.0000       2.311241        62.8921 
  56   0.0000       2.408437        65.5369 
  57   0.0000       2.408447        65.5372 
  58   0.0000       2.475732        67.3681 
  59   0.0000       2.475732        67.3681 
  60   0.0000       2.892268        78.7026 
  61   0.0000       3.489987        94.9674 
  62   0.0000       3.489987        94.9674 
  63   0.0000       3.622016        98.5601 
  64   0.0000       3.662628        99.6652 
  65   0.0000       3.662628        99.6652 
  66   0.0000       3.678135       100.0871 
  67   0.0000       3.678146       100.0874 
  68   0.0000       3.805691       103.5581 
  69   0.0000       3.805691       103.5581 
  70   0.0000       3.932110       106.9981 
  71   0.0000       4.130821       112.4054 
  72   0.0000       4.191650       114.0606 
  73   0.0000       4.191651       114.0606 
  74   0.0000       4.196317       114.1876 
  75   0.0000       4.196317       114.1876 
  76   0.0000       4.205632       114.4411 
  77   0.0000       4.205657       114.4417 
  78   0.0000       4.228239       115.0562 
  79   0.0000       4.228239       115.0562 
  80   0.0000       4.778650       130.0337 
  81   0.0000       7.038150       191.5178 
  82   0.0000       7.038420       191.5251 
  83   0.0000       7.050239       191.8467 
  84   0.0000       7.050239       191.8467 
  85   0.0000       7.114787       193.6032 
  86   0.0000       7.114787       193.6032 
  87   0.0000       7.245235       197.1529 
  88   0.0000       8.611129       234.3207 
  89   0.0000       8.611227       234.3234 
  90   0.0000       8.678135       236.1441 
  91   0.0000       8.678135       236.1441 
  92   0.0000       8.999929       244.9005 
  93   0.0000      27.398878       745.5614 
  94   0.0000      27.398878       745.5614 
  95   0.0000      30.249815       823.1393 
  96   0.0000      44.189497      1202.4573 
  97   0.0000      57.045908      1552.2981 
  98   0.0000     205.243201      5584.9514 

                    ********************************
                    * MULLIKEN POPULATION ANALYSIS *
                    ********************************

-----------------------
MULLIKEN ATOMIC CHARGES
-----------------------
   0 Au:    0.502992
   1 F :   -0.502992
Sum of atomic charges:   -0.0000000

--------------------------------
MULLIKEN REDUCED ORBITAL CHARGES
--------------------------------
  0 Aus       :     2.601572  s :     2.601572
      pz      :     2.058154  p :     6.101813
      px      :     2.021829
      py      :     2.021829
      dz2     :     1.780340  d :     9.771531
      dxz     :     1.995536
      dyz     :     1.995536
      dx2y2   :     2.000059
      dxy     :     2.000059
      f0      :     0.010418  f :     0.021544
      f+1     :     0.005409
      f-1     :     0.005409
      f+2     :     0.000155
      f-2     :     0.000155
      f+3     :     0.000000
      f-3     :     0.000000
      g0      :     0.000287  g :     0.000549
      g+1     :     0.000125
      g-1     :     0.000125
      g+2     :     0.000006
      g-2     :     0.000006
      g+3     :     0.000000
      g-3     :     0.000000
      g+4     :     0.000000
      g-4     :     0.000000
  1 F s       :     3.954329  s :     3.954329
      pz      :     1.592056  p :     5.544971
      px      :     1.976458
      py      :     1.976458
      dz2     :     0.002725  d :     0.003455
      dxz     :     0.000589
      dyz     :     0.000589
      dx2y2   :    -0.000224
      dxy     :    -0.000224
      f0      :     0.000119  f :     0.000237
      f+1     :     0.000055
      f-1     :     0.000055
      f+2     :     0.000004
      f-2     :     0.000004
      f+3     :     0.000000
      f-3     :     0.000000


                     *******************************
                     * LOEWDIN POPULATION ANALYSIS *
                     *******************************

----------------------
LOEWDIN ATOMIC CHARGES
----------------------
   0 Au:    0.627137
   1 F :   -0.627137

-------------------------------
LOEWDIN REDUCED ORBITAL CHARGES
-------------------------------
  0 Aus       :     2.392189  s :     2.392189
      pz      :     2.067791  p :     6.139871
      px      :     2.036040
      py      :     2.036040
      dz2     :     1.831289  d :     9.794506
      dxz     :     1.986172
      dyz     :     1.986172
      dx2y2   :     1.995436
      dxy     :     1.995436
      f0      :     0.022196  f :     0.045317
      f+1     :     0.011360
      f-1     :     0.011360
      f+2     :     0.000201
      f-2     :     0.000201
      f+3     :     0.000000
      f-3     :     0.000000
      g0      :     0.000545  g :     0.000981
      g+1     :     0.000213
      g-1     :     0.000213
      g+2     :     0.000005
      g-2     :     0.000005
      g+3     :     0.000000
      g-3     :     0.000000
      g+4     :     0.000000
      g-4     :     0.000000
  1 F s       :     3.868470  s :     3.868470
      pz      :     1.759524  p :     5.633234
      px      :     1.936855
      py      :     1.936855
      dz2     :     0.057759  d :     0.124929
      dxz     :     0.029236
      dyz     :     0.029236
      dx2y2   :     0.004349
      dxy     :     0.004349
      f0      :     0.000238  f :     0.000504
      f+1     :     0.000125
      f-1     :     0.000125
      f+2     :     0.000009
      f-2     :     0.000009
      f+3     :     0.000000
      f-3     :     0.000000


                      *****************************
                      * MAYER POPULATION ANALYSIS *
                      *****************************

  NA   - Mulliken gross atomic population
  ZA   - Total nuclear charge
  QA   - Mulliken gross atomic charge
  VA   - Mayer's total valence
  BVA  - Mayer's bonded valence
  FA   - Mayer's free valence

  ATOM       NA         ZA         QA         VA         BVA        FA
  0 Au    18.4970    19.0000     0.5030     0.7846     0.7846     0.0000
  1 F      9.5030     9.0000    -0.5030     0.7846     0.7846     0.0000

  Mayer bond orders larger than 0.100000
B(  0-Au,  1-F ) :   0.7846 

-------
TIMINGS
-------

Total SCF time: 0 days 0 hours 0 min 1 sec 

Total time                  ....       1.017 sec
Sum of individual times     ....       0.811 sec  ( 79.8%)

Fock matrix formation       ....       0.602 sec  ( 59.2%)
  XC integration            ....       0.036 sec  (  5.9% of F)
    Basis function eval.    ....       0.004 sec  ( 10.1% of XC)
    Density eval.           ....       0.003 sec  (  7.1% of XC)
    XC-Functional eval.     ....       0.002 sec  (  5.8% of XC)
    XC-Potential eval.      ....       0.003 sec  (  7.8% of XC)
Diagonalization             ....       0.003 sec  (  0.3%)
Density matrix formation    ....       0.001 sec  (  0.1%)
Population analysis         ....       0.003 sec  (  0.3%)
Initial guess               ....       0.006 sec  (  0.6%)
Orbital Transformation      ....       0.000 sec  (  0.0%)
Orbital Orthonormalization  ....       0.003 sec  (  0.3%)
DIIS solution               ....       0.000 sec  (  0.0%)
Grid generation             ....       0.196 sec  ( 19.3%)

-------------------------   --------------------
FINAL SINGLE POINT ENERGY      -235.515197396917
-------------------------   --------------------

                                *** OPTIMIZATION RUN DONE ***

                            ***************************************
                            *     ORCA property calculations      *
                            ***************************************

                                    ---------------------
                                    Active property flags
                                    ---------------------
   (+) Dipole Moment


------------------------------------------------------------------------------
                       ORCA ELECTRIC PROPERTIES CALCULATION
------------------------------------------------------------------------------

Dipole Moment Calculation                       ... on
Quadrupole Moment Calculation                   ... off
Polarizability Calculation                      ... off
GBWName                                         ... Au01N0_F.gbw
Electron density file                           ... Au01N0_F.scfp
The origin for moment calculation is the CENTER OF MASS  = ( 0.000000,  0.000000  0.068789)

-------------
DIPOLE MOMENT
-------------
                                X             Y             Z
Electronic contribution:      0.00000      -0.00000      25.89229
Nuclear contribution   :      0.00000       0.00000     -24.04260
                        -----------------------------------------
Total Dipole Moment    :      0.00000      -0.00000       1.84969
                        -----------------------------------------
Magnitude (a.u.)       :      1.84969
Magnitude (Debye)      :      4.70155



--------------------
Rotational spectrum 
--------------------
 
Rotational constants in cm-1:     0.000000     0.256836     0.256836 
Rotational constants in MHz :     0.000000  7699.758246  7699.758246 

 Dipole components along the rotational axes: 
x,y,z [a.u.] :     1.849693    -0.000000     0.000000 
x,y,z [Debye]:     4.701546    -0.000000     0.000000 

 

----------------------------------------------------------------------------
                           ORCA NUMERICAL FREQUENCIES
                              (24-process run)
----------------------------------------------------------------------------

Number of atoms                ... 2
Central differences            ... used
Number of displacements        ... 12
Numerical increment            ... 5.000e-03 bohr
IR-spectrum generation         ... on
Raman-spectrum generation      ... off
Surface Crossing Hessian       ... off

 WARNING: There are more processes than displacements to do
  ====> : Reducing number of processes to   6

The output will be reduced. Please look at the following files:
SCF program output             ... >Au01N0_F.lastscf
Integral program output        ... >Au01N0_F.lastint
Gradient program output        ... >Au01N0_F.lastgrad
Dipole moment program output   ... >Au01N0_F.lastmom
AutoCI program output          ... >Au01N0_F.lastautoci


         <<< Energy and Gradient at the input geometry >>>

        <<< Energy and Gradient at displaced geometries >>>
             <<<Displacing   1/coordinate 1 (+)>>>
             <<<Displacing   1/coordinate 2 (+)>>>
             <<<Displacing   2/coordinate 1 (+)>>>
             <<<Displacing   2/coordinate 2 (+)>>>
             <<<Displacing   1/coordinate 3 (+)>>>
             <<<Displacing   2/coordinate 3 (+)>>>
             <<<Displacing   1/coordinate 1 (-)>>>
             <<<Displacing   2/coordinate 1 (-)>>>
             <<<Displacing   2/coordinate 2 (-)>>>
             <<<Displacing   1/coordinate 2 (-)>>>
             <<<Displacing   2/coordinate 3 (-)>>>
             <<<Displacing   1/coordinate 3 (-)>>>
Warning: T+R mode no 5 is zero 

-----------------------
VIBRATIONAL FREQUENCIES
-----------------------

Scaling factor for frequencies =  1.000000000 (already applied!)

   0:         0.00 cm**-1
   1:         0.00 cm**-1
   2:         0.00 cm**-1
   3:         0.00 cm**-1
   4:         0.00 cm**-1
   5:       544.07 cm**-1


------------
NORMAL MODES
------------

These modes are the cartesian displacements weighted by the diagonal matrix
M(i,i)=1/sqrt(m[i]) where m[i] is the mass of the displaced atom
Thus, these vectors are normalized but *not* orthogonal

                  0          1          2          3          4          5    
      0       0.000000   0.000000   0.000000   0.000000   0.000000   0.000000
      1       0.000000   0.000000   0.000000   0.000000   0.000000   0.000000
      2       0.000000   0.000000   0.000000   0.000000   0.000000   0.096007
      3       0.000000   0.000000   0.000000   0.000000   0.000000   0.000000
      4       0.000000   0.000000   0.000000   0.000000   0.000000   0.000000
      5       0.000000   0.000000   0.000000   0.000000   0.000000  -0.995381


-----------
IR SPECTRUM  
-----------

 Mode    freq (cm**-1)   T**2         TX         TY         TZ
-------------------------------------------------------------------
   5:       544.07   56.906829  ( -0.000003  -0.000001   7.543662)

The first frequency considered to be a vibration is 5
The total number of vibrations considered is 1


--------------------------
THERMOCHEMISTRY AT 298.15K
--------------------------

Temperature         ... 298.15 K
Pressure            ... 1.00 atm
Total Mass          ... 215.96 AMU
The molecule is recognized as being linear

Throughout the following assumptions are being made:
  (1) The electronic state is orbitally nondegenerate
  (2) There are no thermally accessible electronically excited states
  (3) Hindered rotations indicated by low frequency modes are not
      treated as such but are treated as vibrations and this may
      cause some error
  (4) All equations used are the standard statistical mechanics
      equations for an ideal gas
  (5) All vibrations are strictly harmonic

freq.     544.07  E(vib)   ...       0.12 

------------
INNER ENERGY
------------

The inner energy is: U= E(el) + E(ZPE) + E(vib) + E(rot) + E(trans)
    E(el)   - is the total energy from the electronic structure calculation
              = E(kin-el) + E(nuc-el) + E(el-el) + E(nuc-nuc)
    E(ZPE)  - the the zero temperature vibrational energy from the frequency calculation
    E(vib)  - the the finite temperature correction to E(ZPE) due to population
              of excited vibrational states
    E(rot)  - is the rotational thermal energy
    E(trans)- is the translational thermal energy

Summary of contributions to the inner energy U:
Electronic energy                ...   -235.51519739 Eh
Zero point energy                ...      0.00123948 Eh       0.78 kcal/mol
Thermal vibrational correction   ...      0.00019351 Eh       0.12 kcal/mol
Thermal rotational correction    ...      0.00094418 Eh       0.59 kcal/mol
Thermal translational correction ...      0.00141627 Eh       0.89 kcal/mol
-----------------------------------------------------------------------
Total thermal energy                   -235.51140394 Eh


Summary of corrections to the electronic energy:
(perhaps to be used in another calculation)
Total thermal correction                  0.00255396 Eh       1.60 kcal/mol
Non-thermal (ZPE) correction              0.00123948 Eh       0.78 kcal/mol
-----------------------------------------------------------------------
Total correction                          0.00379344 Eh       2.38 kcal/mol


--------
ENTHALPY
--------

The enthalpy is H = U + kB*T
                kB is Boltzmann's constant
Total free energy                 ...   -235.51140394 Eh 
Thermal Enthalpy correction       ...      0.00094421 Eh       0.59 kcal/mol
-----------------------------------------------------------------------
Total Enthalpy                    ...   -235.51045973 Eh


Note: Rotational entropy computed according to Herzberg 
Infrared and Raman Spectra, Chapter V,1, Van Nostrand Reinhold, 1945 
Point Group:  Cinfv, Symmetry Number:   1  
Rotational constants in cm-1:     0.000000     0.256836     0.256836 

Vibrational entropy computed according to the QRRHO of S. Grimme
Chem.Eur.J. 2012 18 9955


-------
ENTROPY
-------

The entropy contributions are T*S = T*(S(el)+S(vib)+S(rot)+S(trans))
     S(el)   - electronic entropy
     S(vib)  - vibrational entropy
     S(rot)  - rotational entropy
     S(trans)- translational entropy
The entropies will be listed as mutliplied by the temperature to get
units of energy

Electronic entropy                ...      0.00000000 Eh      0.00 kcal/mol
Vibrational entropy               ...      0.00026480 Eh      0.17 kcal/mol
Rotational entropy                ...      0.00726370 Eh      4.56 kcal/mol
Translational entropy             ...      0.01996169 Eh     12.53 kcal/mol
-----------------------------------------------------------------------
Final entropy term                ...      0.02749020 Eh     17.25 kcal/mol

In case the symmetry of your molecule has not been determined correctly
or in case you have a reason to use a different symmetry number we print 
out the resulting rotational entropy values for sn=1,12 :
 --------------------------------------------------------
|  sn= 1 | S(rot)=             -inf Eh      -inf kcal/mol|
|  sn= 2 | S(rot)=             -inf Eh      -inf kcal/mol|
|  sn= 3 | S(rot)=             -inf Eh      -inf kcal/mol|
|  sn= 4 | S(rot)=             -inf Eh      -inf kcal/mol|
|  sn= 5 | S(rot)=             -inf Eh      -inf kcal/mol|
|  sn= 6 | S(rot)=             -inf Eh      -inf kcal/mol|
|  sn= 7 | S(rot)=             -inf Eh      -inf kcal/mol|
|  sn= 8 | S(rot)=             -inf Eh      -inf kcal/mol|
|  sn= 9 | S(rot)=             -inf Eh      -inf kcal/mol|
|  sn=10 | S(rot)=             -inf Eh      -inf kcal/mol|
|  sn=11 | S(rot)=             -inf Eh      -inf kcal/mol|
|  sn=12 | S(rot)=             -inf Eh      -inf kcal/mol|
 --------------------------------------------------------


-------------------
GIBBS FREE ENERGY
-------------------

The Gibbs free energy is G = H - T*S

Total enthalpy                    ...   -235.51045973 Eh 
Total entropy correction          ...     -0.02749020 Eh    -17.25 kcal/mol
-----------------------------------------------------------------------
Final Gibbs free energy         ...   -235.53794993 Eh

For completeness - the Gibbs free energy minus the electronic energy
G-E(el)                           ...     -0.02275254 Eh    -14.28 kcal/mol


Total Time for Numerical Frequencies  :       220.150 sec

Timings for individual modules:

Sum of individual times         ...      182.138 sec (=   3.036 min)
GTO integral calculation        ...        4.296 sec (=   0.072 min)   2.4 %
SCF iterations                  ...       20.756 sec (=   0.346 min)  11.4 %
SCF Gradient evaluation         ...      156.946 sec (=   2.616 min)  86.2 %
Geometry relaxation             ...        0.140 sec (=   0.002 min)   0.1 %
                             ****ORCA TERMINATED NORMALLY****
TOTAL RUN TIME: 0 days 0 hours 6 minutes 9 seconds 110 msec
