
                                 *****************
                                 * O   R   C   A *
                                 *****************

           --- An Ab Initio, DFT and Semiempirical electronic structure package ---

                  #######################################################
                  #                        -***-                        #
                  #          Department of theory and spectroscopy      #
                  #               Directorship: Frank Neese             #
                  #        Max Planck Institute fuer Kohlenforschung    #
                  #                Kaiser Wilhelm Platz 1               #
                  #                 D-45470 Muelheim/Ruhr               #
                  #                      Germany                        #
                  #                                                     #
                  #                  All rights reserved                #
                  #                        -***-                        #
                  #######################################################


                         Program Version 4.2.0 -  RELEASE  -


 With contributions from (in alphabetic order):
   Daniel Aravena         : Magnetic Suceptibility
   Michael Atanasov       : Ab Initio Ligand Field Theory (pilot matlab implementation)
   Alexander A. Auer      : GIAO ZORA, VPT2
   Ute Becker             : Parallelization
   Giovanni Bistoni       : ED, misc. LED, open-shell LED, HFLED
   Martin Brehm           : Molecular dynamics
   Dmytro Bykov           : SCF Hessian
   Vijay G. Chilkuri      : MRCI spin determinant printing, contributions to CSF-ICE
   Dipayan Datta          : RHF DLPNO-CCSD density
   Achintya Kumar Dutta   : EOM-CC, STEOM-CC
   Dmitry Ganyushin       : Spin-Orbit,Spin-Spin,Magnetic field MRCI
   Miquel Garcia          : C-PCM Hessian, Gaussian charge scheme
   Yang Guo               : DLPNO-NEVPT2, CIM, IAO-localization
   Andreas Hansen         : Spin unrestricted coupled pair/coupled cluster methods
   Benjamin Helmich-Paris : CASSCF linear response (MC-RPA)
   Lee Huntington         : MR-EOM, pCC
   Robert Izsak           : Overlap fitted RIJCOSX, COSX-SCS-MP3, EOM
   Christian Kollmar      : KDIIS, OOCD, Brueckner-CCSD(T), CCSD density
   Simone Kossmann        : Meta GGA functionals, TD-DFT gradient, OOMP2, MP2 Hessian
   Martin Krupicka        : AUTO-CI
   Lucas Lang             : DCDCAS
   Dagmar Lenk            : GEPOL surface, SMD
   Dimitrios Liakos       : Extrapolation schemes; Compound Job, initial MDCI parallelization
   Dimitrios Manganas     : Further ROCIS development; embedding schemes
   Dimitrios Pantazis     : SARC Basis sets
   Taras Petrenko         : DFT Hessian,TD-DFT gradient, ASA, ECA, R-Raman, ABS, FL, XAS/XES, NRVS
   Peter Pinski           : DLPNO-MP2, DLPNO-MP2 Gradient
   Christoph Reimann      : Effective Core Potentials
   Marius Retegan         : Local ZFS, SOC
   Christoph Riplinger    : Optimizer, TS searches, QM/MM, DLPNO-CCSD(T), (RO)-DLPNO pert. Triples
   Tobias Risthaus        : Range-separated hybrids, TD-DFT gradient, RPA, STAB
   Michael Roemelt        : Original ROCIS implementation
   Masaaki Saitow         : Open-shell DLPNO-CCSD energy and density
   Barbara Sandhoefer     : DKH picture change effects
   Avijit Sen             : IP-ROCIS
   Kantharuban Sivalingam : CASSCF convergence, NEVPT2, FIC-MRCI
   Bernardo de Souza      : ESD, SOC TD-DFT
   Georgi Stoychev        : AutoAux, RI-MP2 NMR
   Willem Van den Heuvel  : Paramagnetic NMR
   Boris Wezisla          : Elementary symmetry handling
   Frank Wennmohs         : Technical directorship


 We gratefully acknowledge several colleagues who have allowed us to
 interface, adapt or use parts of their codes:
   Stefan Grimme, W. Hujo, H. Kruse,             : VdW corrections, initial TS optimization,
                  C. Bannwarth                     DFT functionals, gCP, sTDA/sTD-DF
   Ed Valeev, F. Pavosevic, A. Kumar             : LibInt (2-el integral package), F12 methods
   Garnet Chan, S. Sharma, J. Yang, R. Olivares  : DMRG
   Ulf Ekstrom                                   : XCFun DFT Library
   Mihaly Kallay                                 : mrcc  (arbitrary order and MRCC methods)
   Andreas Klamt, Michael Diedenhofen            : otool_cosmo (COSMO solvation model)
   Jiri Pittner, Ondrej Demel                    : Mk-CCSD
   Frank Weinhold                                : gennbo (NPA and NBO analysis)
   Christopher J. Cramer and Donald G. Truhlar   : smd solvation model
   Lars Goerigk                                  : TD-DFT with DH, B97 family of functionals
   V. Asgeirsson, H. Jonsson                     : NEB implementation
   FAccTs GmbH                                   : IRC, NEB, NEB-TS, Multilevel, MM, QM/MM, CI optimization
   S Lehtola, MJT Oliveira, MAL Marques          : LibXC Library


 Your calculation uses the libint2 library for the computation of 2-el integrals
 For citations please refer to: http://libint.valeyev.net

 Your ORCA version has been built with support for libXC version: 4.2.3
 For citations please refer to: https://tddft.org/programs/libxc/

 This ORCA versions uses:
   CBLAS   interface :  Fast vector & matrix operations
   LAPACKE interface :  Fast linear algebra routines
   SCALAPACK package :  Parallel linear algebra routines


Your calculation utilizes the DFT-NL dispersion correction.
Cite in your paper:
Vydrov, O. A.; Van Voorhis, T. J. Chem. Phys. 2010, 133, 244103
Hujo, W.; Grimme, S. J. Chem. Theory Comput. 2011, 7, 3866 
   

----- Orbital basis set information -----
Your calculation utilizes the basis: def2-TZVPPD
   F. Weigend and R. Ahlrichs, Phys. Chem. Chem. Phys. 7, 3297 (2005).
   D. Rappoport and F. Furche, J. Chem. Phys. 133 134105 (2010).

----- AuxJK basis set information -----
Your calculation utilizes the auxiliary basis: def2/JK
   H-Ba, Hf-Rn: F. Weigend, J. Comput. Chem. 29, 167 (2008).

cite the ECPs for Au [Def2-ECP] as follows:
Ce-Yb(ecp-28): M. Dolg, H. Stoll, H.Preuss, J. Chem. Phys., 1989, 90, 1730-1734.
Y-Cd(ecp-28), Hf-Hg(ecp-46): D. Andrae,U. Haeussermann, M. Dolg, H. Stoll, H. Preuss, Theor. Chim. Acta, 1990, 77, 123-141.
In-Sb(ecp-28), Tl-Bi(ecp-46): B. Metz, H. Stoll, M. Dolg, J. Chem. Phys., 2000, 113, 2563-2569.
Te-Xe(ecp-28), Po-Rn(ecp-46): K. A. Peterson, D. Figgen, E. Goll, H. Stoll, M. Dolg, J. Chem. Phys., 2003, 119, 11113-11123.
Rb(ecp-28), Cs(ecp-46): T. Leininger, A. Nicklass, W. Kuechle, H. Stoll, M. Dolg, A. Bergner, Chem. Phys. Lett., 1996, 255, 274-280.
Sr(ecp-28), Ba(ecp-46): M. Kaupp, P. V. Schleyer, H. Stoll and H. Preuss, J. Chem. Phys., 1991, 94, 1360-1366.
La(ecp-46): M. Dolg, H. Stoll, A. Savin, H. Preuss, Theor. Chim. Acta, 1989, 75, 173-194.
Lu(ecp-28): X. Cao, M. Dolg, J. Chem. Phys., 2001, 115, 7348-7355.

ECP parameters for Au [Def2-ECP] have been obtained from:
TURBOMOLE (7.0.2)

================================================================================
                                        WARNINGS
                       Please study these warnings very carefully!
================================================================================


WARNING: your system is open-shell and RHF/RKS was chosen
  ===> : WILL SWITCH to UHF/UKS


WARNING: Geometry Optimization
  ===> : Switching off AutoStart
         For restart on a previous wavefunction, please use MOREAD

INFO   : the flag for use of LIBINT has been found!

================================================================================
                                       INPUT FILE
================================================================================
NAME = Au03N0_LIN.in
|  1> #
|  2> # Au03N0_LIN wB97X-V/Def2-TZVPPD
|  3> #
|  4> ! wb97x-v def2-tzvppd def2/jk grid4 nofinalgrid opt xyzfile numfreq numgrad
|  5> 
|  6> *xyz 0 2
|  7> Au       0.000000    0.000000    0.000000 
|  8> Au       0.000000    0.000000    2.547414 
|  9> Au       0.000000    0.000000   -2.547414 
| 10> *
| 11> 
| 12> %maxcore 5000
| 13> 
| 14> %pal
| 15> nprocs = 24
| 16> end
| 17> 
| 18> 
| 19>                          ****END OF INPUT****
================================================================================

                       *****************************
                       * Geometry Optimization Run *
                       *****************************

Geometry optimization settings:
Update method            Update   .... BFGS
Choice of coordinates    CoordSys .... Z-matrix Internals
Initial Hessian          InHess   .... Almoef's Model

Convergence Tolerances:
Energy Change            TolE     ....  5.0000e-06 Eh
Max. Gradient            TolMAXG  ....  3.0000e-04 Eh/bohr
RMS Gradient             TolRMSG  ....  1.0000e-04 Eh/bohr
Max. Displacement        TolMAXD  ....  4.0000e-03 bohr
RMS Displacement         TolRMSD  ....  2.0000e-03 bohr
Strict Convergence                ....  False
------------------------------------------------------------------------------
                        ORCA OPTIMIZATION COORDINATE SETUP
------------------------------------------------------------------------------

The optimization will be done in new redundant internal coordinates
Making redundant internal coordinates   ...  (new redundants) done
Evaluating the initial hessian          ...  (Almloef) done
Evaluating the coordinates              ...  done
Calculating the B-matrix                .... done
Calculating the G-matrix                .... done
Diagonalizing the G-matrix              .... done
The first mode is                       ....    0
The number of degrees of freedom        ....    4

    -----------------------------------------------------------------
                    Redundant Internal Coordinates


    -----------------------------------------------------------------
         Definition                    Initial Value    Approx d2E/dq
    -----------------------------------------------------------------
      1. B(Au  1,Au  0)                  2.5474         0.017232   
      2. B(Au  2,Au  0)                  2.5474         0.017232   
      3. L(Au  1,Au  0,Au  2, 2)       180.0000         0.163790   
      4. L(Au  1,Au  0,Au  2, 1)       180.0000         0.163790   
    -----------------------------------------------------------------

Number of atoms                         .... 3
Number of degrees of freedom            .... 4

         *************************************************************
         *                GEOMETRY OPTIMIZATION CYCLE   1            *
         *************************************************************
---------------------------------
CARTESIAN COORDINATES (ANGSTROEM)
---------------------------------
  Au     0.000000    0.000000    0.000000
  Au     0.000000    0.000000    2.547414
  Au     0.000000    0.000000   -2.547414

----------------------------
CARTESIAN COORDINATES (A.U.)
----------------------------
  NO LB      ZA    FRAG     MASS         X           Y           Z
   0 Au   19.0000*   0   196.966    0.000000    0.000000    0.000000
   1 Au   19.0000*   0   196.966    0.000000    0.000000    4.813915
   2 Au   19.0000*   0   196.966    0.000000    0.000000   -4.813915
* core charge reduced due to ECP

--------------------------------
INTERNAL COORDINATES (ANGSTROEM)
--------------------------------
 Au     0   0   0     0.000000000000     0.00000000     0.00000000
 Au     1   0   0     2.547414000000     0.00000000     0.00000000
 Au     1   2   0     2.547414000000   179.99999915     0.00000000

---------------------------
INTERNAL COORDINATES (A.U.)
---------------------------
 Au     0   0   0     0.000000000000     0.00000000     0.00000000
 Au     1   0   0     4.813914809717     0.00000000     0.00000000
 Au     1   2   0     4.813914809717   179.99999915     0.00000000

---------------------
BASIS SET INFORMATION
---------------------
There are 1 groups of distinct atoms

 Group   1 Type Au  : 8s8p6d2f1g contracted to 6s5p3d2f1g pattern {311111/41111/411/11/1}

Atom   0Au   basis set group =>   1
Atom   1Au   basis set group =>   1
Atom   2Au   basis set group =>   1
----------------------------------
AUXILIARY/JK BASIS SET INFORMATION
----------------------------------
There are 1 groups of distinct atoms

 Group   1 Type Au  : 13s12p11d9f5g3h2i contracted to 13s11p10d8f4g3h2i pattern {1111111111111/21111111111/2111111111/21111111/2111/111/11}

Atom   0Au   basis set group =>   1
Atom   1Au   basis set group =>   1
Atom   2Au   basis set group =>   1
-------------------------
ECP PARAMETER INFORMATION
-------------------------

 Group 1, Type Au ECP Def2-ECP (replacing 60 core electrons, lmax=3)

Atom   0Au   ECP group =>   1
Atom   1Au   ECP group =>   1
Atom   2Au   ECP group =>   1



           ************************************************************
           *        Program running with 24 parallel MPI-processes    *
           *              working on a common directory               *
           ************************************************************
------------------------------------------------------------------------------
                           ORCA GTO INTEGRAL CALCULATION
------------------------------------------------------------------------------

                         BASIS SET STATISTICS AND STARTUP INFO

 # of primitive gaussian shells          ...   75
 # of primitive gaussian functions       ...  255
 # of contracted shells                  ...   51
 # of contracted basis functions         ...  177
 Highest angular momentum                ...    4
 Maximum contraction depth               ...    4
 Integral package used                   ... LIBINT
 Integral threshhold            Thresh   ...  2.500e-11
 Primitive cut-off              TCut     ...  2.500e-12


------------------------------ INTEGRAL EVALUATION ----------------------------


 * One electron integrals 

   ECP integrals                         ... done
 Pre-screening matrix                    ... done
 Shell pair data                         ... done (   0.000 sec)



           ************************************************************
           *        Program running with 24 parallel MPI-processes    *
           *              working on a common directory               *
           ************************************************************
-------------------------------------------------------------------------------
                                 ORCA SCF
-------------------------------------------------------------------------------

------------
SCF SETTINGS
------------
Hamiltonian:
 Density Functional     Method          .... DFT(GTOs)
 Exchange Functional    Exchange        .... WB97X-V
 Correlation Functional Correlation     .... WB97X-V
 Gradients option       PostSCFGGA      .... off
 Hybrid DFT is turned on
   Fraction HF Exchange ScalHFX         ....  0.167000
   Scaling of DF-GGA-X  ScalDFX         ....  0.000000
   Scaling of DF-GGA-C  ScalDFC         ....  1.000000
   Scaling of DF-LDA-C  ScalLDAC        ....  1.000000
   Perturbative correction              ....  0.000000
   Density functional embedding theory  .... OFF
 Long-range corrected/Screened/Range-Separated Hybrid DFT is turned on
   Amount of maximum screened exact exchange              ....  0.833000
   Range separation parameter mu (erf(mu*r12)/r12)        ....  0.300000
   NL short-range parameter             ....  6.000000
   NL long-range parameter              ....  0.010000


General Settings:
 Integral files         IntName         .... Au03N0_LIN
 Hartree-Fock type      HFTyp           .... UHF
 Total Charge           Charge          ....    0
 Multiplicity           Mult            ....    2
 Number of Electrons    NEL             ....   57
 Basis Dimension        Dim             ....  177
 Nuclear Repulsion      ENuc            ....    187.4773517342 Eh

Convergence Acceleration:
 DIIS                   CNVDIIS         .... on
   Start iteration      DIISMaxIt       ....    12
   Startup error        DIISStart       ....  0.200000
   # of expansion vecs  DIISMaxEq       ....     5
   Bias factor          DIISBfac        ....   1.050
   Max. coefficient     DIISMaxC        ....  10.000
 Newton-Raphson         CNVNR           .... off
 SOSCF                  CNVSOSCF        .... off
 Level Shifting         CNVShift        .... on
   Level shift para.    LevelShift      ....    0.2500
   Turn off err/grad.   ShiftErr        ....    0.0010
 Zerner damping         CNVZerner       .... off
 Static damping         CNVDamp         .... on
   Fraction old density DampFac         ....    0.7000
   Max. Damping (<1)    DampMax         ....    0.9800
   Min. Damping (>=0)   DampMin         ....    0.0000
   Turn off err/grad.   DampErr         ....    0.1000
 Fernandez-Rico         CNVRico         .... off

SCF Procedure:
 Maximum # iterations   MaxIter         ....   125
 SCF integral mode      SCFMode         .... Direct
   Integral package                     .... LIBINT
 Reset frequency        DirectResetFreq ....    20
 Integral Threshold     Thresh          ....  2.500e-11 Eh
 Primitive CutOff       TCut            ....  2.500e-12 Eh

Convergence Tolerance:
 Convergence Check Mode ConvCheckMode   .... Total+1el-Energy
 Convergence forced     ConvForced      .... 0
 Energy Change          TolE            ....  1.000e-08 Eh
 1-El. energy change                    ....  1.000e-05 Eh
 DIIS Error             TolErr          ....  5.000e-07


Diagonalization of the overlap matrix:
Smallest eigenvalue                        ... 7.322e-04
Time for diagonalization                   ...    0.005 sec
Threshold for overlap eigenvalues          ... 1.000e-08
Number of eigenvalues below threshold      ... 0
Time for construction of square roots      ...    0.003 sec
Total time needed                          ...    0.009 sec

-------------------
DFT GRID GENERATION
-------------------

General Integration Accuracy     IntAcc      ...  4.670
Radial Grid Type                 RadialGrid  ... Gauss-Chebyshev
Angular Grid (max. acc.)         AngularGrid ... Lebedev-302
Angular grid pruning method      GridPruning ... 3 (G Style)
Weight generation scheme         WeightScheme... Becke
Basis function cutoff            BFCut       ...    1.0000e-11
Integration weight cutoff        WCut        ...    1.0000e-14
Grids for H and He will be reduced by one unit

# of grid points (after initial pruning)     ...  34956 (   0.0 sec)
# of grid points (after weights+screening)   ...  34728 (   0.0 sec)
nearest neighbour list constructed           ...    0.0 sec
Grid point re-assignment to atoms done       ...    0.0 sec
Grid point division into batches done        ...    0.3 sec
Reduced shell lists constructed in    0.4 sec

Total number of grid points                  ...    34728
Total number of batches                      ...      544
Average number of points per batch           ...       63
Average number of grid points per atom       ...    11576
Average number of shells per batch           ...    14.96 (29.33%)
Average number of basis functions per batch  ...    47.62 (26.91%)
Average number of large shells per batch     ...    10.42 (69.64%)
Average number of large basis fcns per batch ...    28.58 (60.02%)
Maximum spatial batch extension              ...  37.74, 37.74,  4.80 au
Average spatial batch extension              ...   0.53,  0.53,  0.19 au

Time for grid setup =    0.373 sec

------------------------------
INITIAL GUESS: MODEL POTENTIAL
------------------------------
Loading Hartree-Fock densities                     ... done
  calling /sw/apps/orca/orca_4_2_0_linux_x86-64_openmpi314/orca Au03N0_LIN_atom79.inp > Au03N0_LIN_atom79.out in order to generate an atomic fitting density for atom 0 (Au with ECP) on-the-fly... 
    atom 0 (Au), assumed electronic state with S=2: 1s2 2s2 2p6 3s2 3p6 4s2 3d10 4p6 5s2 4d10 5p6 6s1 4f14 5d10           ... done
Calculating cut-offs                               ... done
Setting up the integral package                    ... done
Initializing the effective Hamiltonian             ... done
Starting the Coulomb interaction                   ... done (   0.0 sec)
Reading the grid                                   ... done
Mapping shells                                     ... done
Starting the XC term evaluation                    ... done (   0.0 sec)
  promolecular density results
     # of electrons  =    237.007936022
     EX              =   -878.482315577
     EC              =    -18.760874369
     EX+EC           =   -897.243189947
Transforming the Hamiltonian                       ... done (   0.0 sec)
Diagonalizing the Hamiltonian                      ... done (   0.0 sec)
Back transforming the eigenvectors                 ... done (   0.0 sec)
Now organizing SCF variables                       ... done
                      ------------------
                      INITIAL GUESS DONE (   1.6 sec)
                      ------------------
--------------
SCF ITERATIONS
--------------
ITER       Energy         Delta-E        Max-DP      RMS-DP      [F,P]     Damp
               ***  Starting incremental Fock matrix formation  ***
  0   -406.7371386918   0.000000000000 0.04581047  0.00135819  0.4554406 0.7000
  1   -406.9344852202  -0.197346528391 0.04294181  0.00108585  0.3333193 0.7000
  2   -407.0410895007  -0.106604280434 0.03950017  0.00077818  0.2417144 0.7000
                               ***Turning on DIIS***
  3   -407.1070526773  -0.065963176583 0.03434060  0.00058808  0.1731188 0.7000
  4   -407.1527413615  -0.045688684204 0.03210515  0.00051819  0.1228539 0.7000
  5   -407.1854233638  -0.032682002311 0.07705045  0.00135037  0.0857405 0.0000
  6   -407.2669461411  -0.081522777335 0.01405596  0.00020031  0.0098585 0.0000
  7   -407.2680929850  -0.001146843851 0.01153462  0.00016662  0.0054553 0.0000
  8   -407.2687796916  -0.000686706688 0.01152034  0.00016297  0.0046303 0.0000
  9   -407.2692918625  -0.000512170824 0.00501711  0.00008796  0.0021613 0.0000
 10   -407.2694983365  -0.000206474065 0.00362416  0.00006271  0.0017515 0.0000
 11   -407.2696044667  -0.000106130119 0.00331016  0.00005386  0.0012864 0.0000
 12   -407.2696769637  -0.000072497079 0.00493696  0.00006553  0.0009922 0.0000
 13   -407.2697378158  -0.000060852114 0.00236010  0.00002839  0.0007161 0.0000
 14   -407.2697527193  -0.000014903420 0.00229029  0.00002772  0.0003109 0.0000
 15   -407.2697614565  -0.000008737201 0.00116278  0.00001334  0.0002221 0.0000
 16   -407.2697638526  -0.000002396172 0.00106781  0.00001142  0.0001490 0.0000
 17   -407.2697646447  -0.000000792106 0.00019365  0.00000205  0.0000428 0.0000
 18   -407.2697646838  -0.000000039008 0.00003051  0.00000048  0.0000134 0.0000
 19   -407.2697646877  -0.000000003969 0.00001031  0.00000020  0.0000029 0.0000
               *** Restarting incremental Fock matrix formation ***
                                   *** Resetting DIIS ***
 20   -407.2697646862   0.000000001494 0.00000783  0.00000008  0.0000031 0.0000
 21   -407.2697646850   0.000000001204 0.00000235  0.00000003  0.0000029 0.0000
                 **** Energy Check signals convergence ****

               *****************************************************
               *                     SUCCESS                       *
               *           SCF CONVERGED AFTER  22 CYCLES          *
               *****************************************************


Setting up the DFT-NL grid :

General Integration Accuracy     IntAcc      ...  4.340
Radial Grid Type                 RadialGrid  ... Gauss-Chebyshev
Angular Grid (max. acc.)         AngularGrid ... Lebedev-110
Angular grid pruning method      GridPruning ... 3 (G Style)
Weight generation scheme         WeightScheme... Becke
Basis function cutoff            BFCut       ...    1.0000e-11
Integration weight cutoff        WCut        ...    1.0000e-14
Grids for H and He will be reduced by one unit

# of grid points (after initial pruning)     ...  10590 (   0.0 sec)
# of grid points (after weights+screening)   ...  10518 (   0.0 sec)
nearest neighbour list constructed           ...    0.0 sec
Grid point re-assignment to atoms done       ...    0.0 sec
Grid point division into batches done        ...    0.0 sec
Reduced shell lists constructed in    0.0 sec

Total number of grid points                  ...    10518
Total number of batches                      ...      167
Average number of points per batch           ...       62
Average number of grid points per atom       ...     3506
Average number of shells per batch           ...    19.12 (37.50%)
Average number of basis functions per batch  ...    61.88 (34.96%)
Average number of large shells per batch     ...    15.62 (81.70%)
Average number of large basis fcns per batch ...    45.62 (73.74%)
Maximum spatial batch extension              ...  26.72, 49.51,  4.53 au
Average spatial batch extension              ...   0.67,  1.04,  0.19 au

Final grid set up in    0.0 sec

-------------------------------------------------------------------------------
                         DFT-NL dispersion correction                          
-------------------------------------------------------------------------------

SC Energy -407.269764686 
NL    Energy 0.211810283 
SC+NL Energy -407.057954402 
NL done in    0.0 sec
-------------------------------------------------------------------------------

----------------
TOTAL SCF ENERGY
----------------

Total Energy       :         -407.05795440 Eh          -11076.61006 eV

Components:
Nuclear Repulsion  :          187.47735173 Eh            5101.51810 eV
Electronic Energy  :         -594.53530614 Eh          -16178.12816 eV
One Electron Energy:        -1089.31829723 Eh          -29641.85783 eV
Two Electron Energy:          494.78299109 Eh           13463.72967 eV

Virial components:
Potential Energy   :         -544.36823912 Eh          -14813.01287 eV
Kinetic Energy     :          137.31028471 Eh            3736.40280 eV
Virial Ratio       :            3.96451176


DFT components:
N(Alpha)           :       28.999995741792 electrons
N(Beta)            :       27.999998206473 electrons
N(Total)           :       56.999993948266 electrons
E(X)               :      -22.604567221234 Eh       
E(C)               :       -2.593166926865 Eh       
NL Energy, E(C,NL) :        0.211810283114 Eh       
E(XC)              :      -24.985923864985 Eh       
DFET-embed. en.    :        0.000000000000 Eh       

---------------
SCF CONVERGENCE
---------------

  Last Energy change         ...   -4.9454e-10  Tolerance :   1.0000e-08
  Last MAX-Density change    ...    2.0075e-06  Tolerance :   1.0000e-07
  Last RMS-Density change    ...    2.3130e-08  Tolerance :   5.0000e-09
  Last DIIS Error            ...    8.4654e-07  Tolerance :   5.0000e-07

             **** THE GBW FILE WAS UPDATED (Au03N0_LIN.gbw) ****
             **** DENSITY FILE WAS UPDATED (Au03N0_LIN.scfp) ****
             **** ENERGY FILE WAS UPDATED (Au03N0_LIN.en.tmp) ****
----------------------
UHF SPIN CONTAMINATION
----------------------

Warning: in a DFT calculation there is little theoretical justification to 
         calculate <S**2> as in Hartree-Fock theory. We will do it anyways
         but you should keep in mind that the values have only limited relevance

Expectation value of <S**2>     :     0.758176
Ideal value S*(S+1) for S=0.5   :     0.750000
Deviation                       :     0.008176

             **** THE GBW FILE WAS UPDATED (Au03N0_LIN.gbw) ****
             **** DENSITY FILE WAS UPDATED (Au03N0_LIN.scfp) ****
----------------
ORBITAL ENERGIES
----------------
                 SPIN UP ORBITALS
  NO   OCC          E(Eh)            E(eV) 
   0   1.0000      -4.348465      -118.3277 
   1   1.0000      -4.275858      -116.3520 
   2   1.0000      -4.275854      -116.3519 
   3   1.0000      -2.540767       -69.1378 
   4   1.0000      -2.534883       -68.9777 
   5   1.0000      -2.503900       -68.1346 
   6   1.0000      -2.465259       -67.0831 
   7   1.0000      -2.464698       -67.0678 
   8   1.0000      -2.456473       -66.8440 
   9   1.0000      -2.456455       -66.8436 
  10   1.0000      -2.445013       -66.5322 
  11   1.0000      -2.444993       -66.5316 
  12   1.0000      -0.552276       -15.0282 
  13   1.0000      -0.527938       -14.3659 
  14   1.0000      -0.502538       -13.6748 
  15   1.0000      -0.474241       -12.9047 
  16   1.0000      -0.473509       -12.8848 
  17   1.0000      -0.441274       -12.0077 
  18   1.0000      -0.438490       -11.9319 
  19   1.0000      -0.430161       -11.7053 
  20   1.0000      -0.416872       -11.3437 
  21   1.0000      -0.416730       -11.3398 
  22   1.0000      -0.416724       -11.3396 
  23   1.0000      -0.416222       -11.3260 
  24   1.0000      -0.415566       -11.3081 
  25   1.0000      -0.406406       -11.0589 
  26   1.0000      -0.400698       -10.9035 
  27   1.0000      -0.375597       -10.2205 
  28   1.0000      -0.309984        -8.4351 
  29   0.0000      -0.048004        -1.3062 
  30   0.0000       0.015825         0.4306 
  31   0.0000       0.019327         0.5259 
  32   0.0000       0.041334         1.1248 
  33   0.0000       0.062560         1.7023 
  34   0.0000       0.064959         1.7676 
  35   0.0000       0.125457         3.4139 
  36   0.0000       0.128067         3.4849 
  37   0.0000       0.128227         3.4892 
  38   0.0000       0.152877         4.1600 
  39   0.0000       0.186166         5.0658 
  40   0.0000       0.227149         6.1810 
  41   0.0000       0.229913         6.2563 
  42   0.0000       0.230804         6.2805 
  43   0.0000       0.271277         7.3818 
  44   0.0000       0.274684         7.4745 
  45   0.0000       0.281186         7.6515 
  46   0.0000       0.319261         8.6875 
  47   0.0000       0.324609         8.8331 
  48   0.0000       0.340717         9.2714 
  49   0.0000       0.340730         9.2717 
  50   0.0000       0.357723         9.7341 
  51   0.0000       0.383149        10.4260 
  52   0.0000       0.385635        10.4937 
  53   0.0000       0.385746        10.4967 
  54   0.0000       0.406289        11.0557 
  55   0.0000       0.410609        11.1732 
  56   0.0000       0.463358        12.6086 
  57   0.0000       0.463362        12.6087 
  58   0.0000       0.478444        13.0191 
  59   0.0000       0.504013        13.7149 
  60   0.0000       0.507373        13.8063 
  61   0.0000       0.596276        16.2255 
  62   0.0000       0.631283        17.1781 
  63   0.0000       0.636982        17.3332 
  64   0.0000       0.672991        18.3130 
  65   0.0000       0.691162        18.8075 
  66   0.0000       0.906587        24.6695 
  67   0.0000       0.999238        27.1906 
  68   0.0000       1.009732        27.4762 
  69   0.0000       1.118769        30.4433 
  70   0.0000       1.118927        30.4475 
  71   0.0000       1.119236        30.4560 
  72   0.0000       1.138679        30.9850 
  73   0.0000       1.144804        31.1517 
  74   0.0000       1.148954        31.2646 
  75   0.0000       1.160904        31.5898 
  76   0.0000       1.173208        31.9246 
  77   0.0000       1.181136        32.1403 
  78   0.0000       1.192342        32.4453 
  79   0.0000       1.192776        32.4571 
  80   0.0000       1.234414        33.5901 
  81   0.0000       1.234417        33.5902 
  82   0.0000       1.236625        33.6503 
  83   0.0000       1.236715        33.6527 
  84   0.0000       1.237637        33.6778 
  85   0.0000       1.237649        33.6781 
  86   0.0000       1.247273        33.9400 
  87   0.0000       1.300760        35.3955 
  88   0.0000       1.301204        35.4076 
  89   0.0000       1.340266        36.4705 
  90   0.0000       1.347163        36.6582 
  91   0.0000       1.367921        37.2230 
  92   0.0000       1.470244        40.0074 
  93   0.0000       1.481276        40.3076 
  94   0.0000       1.508086        41.0371 
  95   0.0000       1.517088        41.2821 
  96   0.0000       1.527038        41.5528 
  97   0.0000       1.541934        41.9581 
  98   0.0000       1.541958        41.9588 
  99   0.0000       1.546380        42.0791 
 100   0.0000       1.591723        43.3130 
 101   0.0000       1.591760        43.3140 
 102   0.0000       1.613874        43.9157 
 103   0.0000       1.627136        44.2766 
 104   0.0000       1.627171        44.2776 
 105   0.0000       1.731694        47.1218 
 106   0.0000       1.741490        47.3883 
 107   0.0000       1.792067        48.7646 
 108   0.0000       1.806731        49.1637 
 109   0.0000       1.993348        54.2418 
 110   0.0000       2.139630        58.2223 
 111   0.0000       2.190979        59.6196 
 112   0.0000       2.503763        68.1309 
 113   0.0000       2.836228        77.1777 
 114   0.0000       3.536616        96.2362 
 115   0.0000       3.554849        96.7324 
 116   0.0000       3.567298        97.0711 
 117   0.0000       3.567566        97.0784 
 118   0.0000       3.627694        98.7146 
 119   0.0000       3.627699        98.7147 
 120   0.0000       3.682862       100.2158 
 121   0.0000       3.682960       100.2184 
 122   0.0000       3.686672       100.3195 
 123   0.0000       3.686675       100.3195 
 124   0.0000       3.688760       100.3763 
 125   0.0000       3.688761       100.3763 
 126   0.0000       3.734224       101.6134 
 127   0.0000       3.743350       101.8617 
 128   0.0000       3.743473       101.8651 
 129   0.0000       3.745180       101.9115 
 130   0.0000       3.801801       103.4523 
 131   0.0000       3.876634       105.4886 
 132   0.0000       3.946379       107.3864 
 133   0.0000       3.961156       107.7885 
 134   0.0000       4.060659       110.4962 
 135   0.0000       4.158323       113.1537 
 136   0.0000       4.160816       113.2216 
 137   0.0000       4.160990       113.2263 
 138   0.0000       4.161270       113.2339 
 139   0.0000       4.177576       113.6776 
 140   0.0000       4.178113       113.6922 
 141   0.0000       4.182472       113.8108 
 142   0.0000       4.190706       114.0349 
 143   0.0000       4.198064       114.2351 
 144   0.0000       4.218514       114.7916 
 145   0.0000       4.218925       114.8028 
 146   0.0000       4.220913       114.8569 
 147   0.0000       4.220991       114.8590 
 148   0.0000       4.223008       114.9139 
 149   0.0000       4.223023       114.9143 
 150   0.0000       4.223036       114.9147 
 151   0.0000       4.223094       114.9162 
 152   0.0000       4.233749       115.2062 
 153   0.0000       4.233750       115.2062 
 154   0.0000       4.234132       115.2166 
 155   0.0000       4.234133       115.2166 
 156   0.0000       4.257909       115.8636 
 157   0.0000       4.274563       116.3168 
 158   0.0000       4.285115       116.6039 
 159   0.0000       4.296162       116.9045 
 160   0.0000       4.494120       122.2912 
 161   0.0000       4.519731       122.9881 
 162   0.0000      27.239995       741.2379 
 163   0.0000      27.251730       741.5573 
 164   0.0000      27.599155       751.0112 
 165   0.0000      27.605967       751.1966 
 166   0.0000      27.792588       756.2748 
 167   0.0000      27.805709       756.6318 
 168   0.0000      28.136368       765.6295 
 169   0.0000      28.556713       777.0677 
 170   0.0000      31.415641       854.8631 
 171   0.0000      44.001187      1197.3332 
 172   0.0000      44.320735      1206.0285 
 173   0.0000      44.665033      1215.3973 
 174   0.0000     205.160826      5582.7099 
 175   0.0000     205.313477      5586.8637 
 176   0.0000     205.435684      5590.1892 

                 SPIN DOWN ORBITALS
  NO   OCC          E(Eh)            E(eV) 
   0   1.0000      -4.330449      -117.8375 
   1   1.0000      -4.269284      -116.1731 
   2   1.0000      -4.269284      -116.1731 
   3   1.0000      -2.510405       -68.3116 
   4   1.0000      -2.504397       -68.1481 
   5   1.0000      -2.497251       -67.9536 
   6   1.0000      -2.454212       -66.7825 
   7   1.0000      -2.453052       -66.7509 
   8   1.0000      -2.445442       -66.5439 
   9   1.0000      -2.445295       -66.5399 
  10   1.0000      -2.442545       -66.4650 
  11   1.0000      -2.442526       -66.4645 
  12   1.0000      -0.545699       -14.8492 
  13   1.0000      -0.494483       -13.4556 
  14   1.0000      -0.463451       -12.6111 
  15   1.0000      -0.463386       -12.6094 
  16   1.0000      -0.448004       -12.1908 
  17   1.0000      -0.435427       -11.8486 
  18   1.0000      -0.426662       -11.6101 
  19   1.0000      -0.413172       -11.2430 
  20   1.0000      -0.412801       -11.2329 
  21   1.0000      -0.412406       -11.2221 
  22   1.0000      -0.411642       -11.2013 
  23   1.0000      -0.402140       -10.9428 
  24   1.0000      -0.394759       -10.7419 
  25   1.0000      -0.385201       -10.4819 
  26   1.0000      -0.373995       -10.1769 
  27   1.0000      -0.309691        -8.4271 
  28   0.0000      -0.160090        -4.3563 
  29   0.0000      -0.043845        -1.1931 
  30   0.0000       0.018532         0.5043 
  31   0.0000       0.019276         0.5245 
  32   0.0000       0.041921         1.1407 
  33   0.0000       0.065073         1.7707 
  34   0.0000       0.065781         1.7900 
  35   0.0000       0.126984         3.4554 
  36   0.0000       0.128277         3.4906 
  37   0.0000       0.129335         3.5194 
  38   0.0000       0.154234         4.1969 
  39   0.0000       0.187268         5.0958 
  40   0.0000       0.229446         6.2435 
  41   0.0000       0.230448         6.2708 
  42   0.0000       0.230807         6.2806 
  43   0.0000       0.274659         7.4738 
  44   0.0000       0.274813         7.4780 
  45   0.0000       0.281949         7.6722 
  46   0.0000       0.320983         8.7344 
  47   0.0000       0.324557         8.8317 
  48   0.0000       0.341635         9.2963 
  49   0.0000       0.341656         9.2969 
  50   0.0000       0.359963         9.7951 
  51   0.0000       0.384023        10.4498 
  52   0.0000       0.386201        10.5091 
  53   0.0000       0.386315        10.5122 
  54   0.0000       0.411118        11.1871 
  55   0.0000       0.411309        11.1923 
  56   0.0000       0.464261        12.6332 
  57   0.0000       0.464282        12.6337 
  58   0.0000       0.480770        13.0824 
  59   0.0000       0.507381        13.8065 
  60   0.0000       0.507688        13.8149 
  61   0.0000       0.597181        16.2501 
  62   0.0000       0.636755        17.3270 
  63   0.0000       0.637671        17.3519 
  64   0.0000       0.675825        18.3901 
  65   0.0000       0.693359        18.8673 
  66   0.0000       0.909660        24.7531 
  67   0.0000       1.011768        27.5316 
  68   0.0000       1.013481        27.5782 
  69   0.0000       1.122085        30.5335 
  70   0.0000       1.129471        30.7345 
  71   0.0000       1.129683        30.7402 
  72   0.0000       1.144913        31.1547 
  73   0.0000       1.145856        31.1803 
  74   0.0000       1.154274        31.4094 
  75   0.0000       1.162007        31.6198 
  76   0.0000       1.179503        32.0959 
  77   0.0000       1.182894        32.1882 
  78   0.0000       1.195865        32.5411 
  79   0.0000       1.195961        32.5437 
  80   0.0000       1.235805        33.6280 
  81   0.0000       1.235806        33.6280 
  82   0.0000       1.239208        33.7206 
  83   0.0000       1.239211        33.7206 
  84   0.0000       1.242590        33.8126 
  85   0.0000       1.242651        33.8142 
  86   0.0000       1.254801        34.1449 
  87   0.0000       1.313900        35.7530 
  88   0.0000       1.314152        35.7599 
  89   0.0000       1.345810        36.6214 
  90   0.0000       1.347832        36.6764 
  91   0.0000       1.372144        37.3379 
  92   0.0000       1.483861        40.3779 
  93   0.0000       1.486764        40.4569 
  94   0.0000       1.516214        41.2583 
  95   0.0000       1.529603        41.6226 
  96   0.0000       1.529677        41.6246 
  97   0.0000       1.545568        42.0570 
  98   0.0000       1.545580        42.0574 
  99   0.0000       1.551406        42.2159 
 100   0.0000       1.593331        43.3567 
 101   0.0000       1.593368        43.3577 
 102   0.0000       1.616516        43.9876 
 103   0.0000       1.629656        44.3452 
 104   0.0000       1.629686        44.3460 
 105   0.0000       1.742582        47.4181 
 106   0.0000       1.743513        47.4434 
 107   0.0000       1.807808        49.1930 
 108   0.0000       1.810112        49.2557 
 109   0.0000       1.998188        54.3734 
 110   0.0000       2.143825        58.3364 
 111   0.0000       2.197535        59.7980 
 112   0.0000       2.507816        68.2411 
 113   0.0000       2.841638        77.3249 
 114   0.0000       3.556041        96.7648 
 115   0.0000       3.558949        96.8439 
 116   0.0000       3.585073        97.5548 
 117   0.0000       3.585441        97.5648 
 118   0.0000       3.634934        98.9116 
 119   0.0000       3.634940        98.9117 
 120   0.0000       3.689339       100.3920 
 121   0.0000       3.689342       100.3921 
 122   0.0000       3.691198       100.4426 
 123   0.0000       3.691337       100.4464 
 124   0.0000       3.691604       100.4536 
 125   0.0000       3.691606       100.4537 
 126   0.0000       3.745775       101.9277 
 127   0.0000       3.747715       101.9805 
 128   0.0000       3.756307       102.2143 
 129   0.0000       3.756586       102.2219 
 130   0.0000       3.808866       103.6445 
 131   0.0000       3.883049       105.6631 
 132   0.0000       3.961713       107.8037 
 133   0.0000       3.964591       107.8820 
 134   0.0000       4.066746       110.6618 
 135   0.0000       4.178484       113.7023 
 136   0.0000       4.179000       113.7164 
 137   0.0000       4.183103       113.8280 
 138   0.0000       4.183180       113.8301 
 139   0.0000       4.187274       113.9415 
 140   0.0000       4.187695       113.9530 
 141   0.0000       4.196682       114.1975 
 142   0.0000       4.198987       114.2602 
 143   0.0000       4.201669       114.3332 
 144   0.0000       4.226049       114.9966 
 145   0.0000       4.226236       115.0017 
 146   0.0000       4.228113       115.0528 
 147   0.0000       4.228249       115.0565 
 148   0.0000       4.230708       115.1234 
 149   0.0000       4.230719       115.1237 
 150   0.0000       4.230722       115.1238 
 151   0.0000       4.230728       115.1240 
 152   0.0000       4.236262       115.2745 
 153   0.0000       4.236325       115.2763 
 154   0.0000       4.236633       115.2846 
 155   0.0000       4.236691       115.2862 
 156   0.0000       4.275323       116.3375 
 157   0.0000       4.278563       116.4256 
 158   0.0000       4.295820       116.8952 
 159   0.0000       4.298523       116.9688 
 160   0.0000       4.504259       122.5671 
 161   0.0000       4.526545       123.1736 
 162   0.0000      27.246307       741.4097 
 163   0.0000      27.253356       741.6015 
 164   0.0000      27.602669       751.1068 
 165   0.0000      27.606883       751.2215 
 166   0.0000      27.799451       756.4615 
 167   0.0000      27.807493       756.6804 
 168   0.0000      28.142674       765.8011 
 169   0.0000      28.560143       777.1610 
 170   0.0000      31.421674       855.0272 
 171   0.0000      44.002288      1197.3631 
 172   0.0000      44.321441      1206.0477 
 173   0.0000      44.666497      1215.4372 
 174   0.0000     205.163265      5582.7763 
 175   0.0000     205.314935      5586.9034 
 176   0.0000     205.438723      5590.2719 

                    ********************************
                    * MULLIKEN POPULATION ANALYSIS *
                    ********************************

--------------------------------------------
MULLIKEN ATOMIC CHARGES AND SPIN POPULATIONS
--------------------------------------------
   0 Au:    0.090594    0.606034
   1 Au:   -0.045297    0.196983
   2 Au:   -0.045297    0.196983
Sum of atomic charges         :   -0.0000000
Sum of atomic spin populations:    1.0000000

-----------------------------------------------------
MULLIKEN REDUCED ORBITAL CHARGES AND SPIN POPULATIONS
-----------------------------------------------------
CHARGE
  0 Aus       :     3.199946  s :     3.199946
      pz      :     2.357525  p :     6.402285
      px      :     2.024940
      py      :     2.019820
      dz2     :     1.909707  d :     9.290679
      dxz     :     1.549948
      dyz     :     1.831147
      dx2y2   :     1.999977
      dxy     :     1.999900
      f0      :     0.006362  f :     0.016162
      f+1     :     0.004841
      f-1     :     0.004189
      f+2     :     0.000365
      f-2     :     0.000379
      f+3     :     0.000013
      f-3     :     0.000013
      g0      :     0.000113  g :     0.000335
      g+1     :     0.000070
      g-1     :     0.000071
      g+2     :     0.000017
      g-2     :     0.000021
      g+3     :     0.000011
      g-3     :     0.000010
      g+4     :     0.000011
      g-4     :     0.000011
  1 Aus       :     3.308734  s :     3.308734
      pz      :     2.030051  p :     6.041636
      px      :     2.005716
      py      :     2.005868
      dz2     :     1.922085  d :     9.689213
      dxz     :     1.834277
      dyz     :     1.933680
      dx2y2   :     1.999596
      dxy     :     1.999575
      f0      :     0.002331  f :     0.005558
      f+1     :     0.001333
      f-1     :     0.001507
      f+2     :     0.000190
      f-2     :     0.000193
      f+3     :     0.000002
      f-3     :     0.000002
      g0      :     0.000058  g :     0.000157
      g+1     :     0.000038
      g-1     :     0.000038
      g+2     :     0.000008
      g-2     :     0.000009
      g+3     :     0.000001
      g-3     :     0.000001
      g+4     :     0.000002
      g-4     :     0.000002
  2 Aus       :     3.308733  s :     3.308733
      pz      :     2.030051  p :     6.041635
      px      :     2.005716
      py      :     2.005868
      dz2     :     1.922085  d :     9.689213
      dxz     :     1.834277
      dyz     :     1.933680
      dx2y2   :     1.999596
      dxy     :     1.999575
      f0      :     0.002331  f :     0.005558
      f+1     :     0.001333
      f-1     :     0.001507
      f+2     :     0.000190
      f-2     :     0.000193
      f+3     :     0.000002
      f-3     :     0.000002
      g0      :     0.000058  g :     0.000157
      g+1     :     0.000038
      g-1     :     0.000038
      g+2     :     0.000008
      g-2     :     0.000009
      g+3     :     0.000001
      g-3     :     0.000001
      g+4     :     0.000002
      g-4     :     0.000002

SPIN
  0 Aus       :     0.013038  s :     0.013038
      pz      :     0.005952  p :    -0.005981
      px      :    -0.008624
      py      :    -0.003309
      dz2     :     0.005144  d :     0.600393
      dxz     :     0.438911
      dyz     :     0.156529
      dx2y2   :    -0.000060
      dxy     :    -0.000131
      f0      :    -0.000086  f :    -0.001454
      f+1     :    -0.001016
      f-1     :    -0.000372
      f+2     :    -0.000002
      f-2     :     0.000008
      f+3     :     0.000007
      f-3     :     0.000006
      g0      :    -0.000010  g :     0.000037
      g+1     :    -0.000003
      g-1     :    -0.000001
      g+2     :     0.000009
      g-2     :     0.000012
      g+3     :     0.000010
      g-3     :     0.000010
      g+4     :     0.000005
      g-4     :     0.000005
  1 Aus       :    -0.009400  s :    -0.009400
      pz      :    -0.003321  p :    -0.004408
      px      :    -0.000701
      py      :    -0.000386
      dz2     :     0.000764  d :     0.210569
      dxz     :     0.154621
      dyz     :     0.055189
      dx2y2   :     0.000002
      dxy     :    -0.000007
      f0      :     0.000009  f :     0.000217
      f+1     :     0.000160
      f-1     :     0.000041
      f+2     :     0.000003
      f-2     :     0.000003
      f+3     :     0.000001
      f-3     :     0.000001
      g0      :    -0.000002  g :     0.000005
      g+1     :    -0.000002
      g-1     :    -0.000001
      g+2     :     0.000003
      g-2     :     0.000003
      g+3     :     0.000001
      g-3     :     0.000001
      g+4     :     0.000001
      g-4     :     0.000001
  2 Aus       :    -0.009400  s :    -0.009400
      pz      :    -0.003321  p :    -0.004408
      px      :    -0.000701
      py      :    -0.000386
      dz2     :     0.000764  d :     0.210569
      dxz     :     0.154621
      dyz     :     0.055189
      dx2y2   :     0.000002
      dxy     :    -0.000007
      f0      :     0.000009  f :     0.000217
      f+1     :     0.000160
      f-1     :     0.000041
      f+2     :     0.000003
      f-2     :     0.000003
      f+3     :     0.000001
      f-3     :     0.000001
      g0      :    -0.000002  g :     0.000005
      g+1     :    -0.000002
      g-1     :    -0.000001
      g+2     :     0.000003
      g-2     :     0.000003
      g+3     :     0.000001
      g-3     :     0.000001
      g+4     :     0.000001
      g-4     :     0.000001


                     *******************************
                     * LOEWDIN POPULATION ANALYSIS *
                     *******************************

-------------------------------------------
LOEWDIN ATOMIC CHARGES AND SPIN POPULATIONS
-------------------------------------------
   0 Au:   -0.119147    0.579596
   1 Au:    0.059574    0.210202
   2 Au:    0.059574    0.210202

----------------------------------------------------
LOEWDIN REDUCED ORBITAL CHARGES AND SPIN POPULATIONS
----------------------------------------------------
CHARGE
  0 Aus       :     2.872790  s :     2.872790
      pz      :     2.794725  p :     6.847853
      px      :     2.029034
      py      :     2.024094
      dz2     :     1.992149  d :     9.369851
      dxz     :     1.549752
      dyz     :     1.827601
      dx2y2   :     2.000213
      dxy     :     2.000136
      f0      :     0.014518  f :     0.028239
      f+1     :     0.006678
      f-1     :     0.006084
      f+2     :     0.000460
      f-2     :     0.000473
      f+3     :     0.000013
      f-3     :     0.000013
      g0      :     0.000151  g :     0.000415
      g+1     :     0.000088
      g-1     :     0.000093
      g+2     :     0.000018
      g-2     :     0.000022
      g+3     :     0.000011
      g-3     :     0.000010
      g+4     :     0.000011
      g-4     :     0.000011
  1 Aus       :     3.079872  s :     3.079872
      pz      :     2.107834  p :     6.124228
      px      :     2.007418
      py      :     2.008975
      dz2     :     1.970456  d :     9.726305
      dxz     :     1.828913
      dyz     :     1.928189
      dx2y2   :     1.999384
      dxy     :     1.999363
      f0      :     0.004673  f :     0.009823
      f+1     :     0.002113
      f-1     :     0.002560
      f+2     :     0.000235
      f-2     :     0.000238
      f+3     :     0.000002
      f-3     :     0.000002
      g0      :     0.000085  g :     0.000199
      g+1     :     0.000043
      g-1     :     0.000047
      g+2     :     0.000009
      g-2     :     0.000009
      g+3     :     0.000001
      g-3     :     0.000001
      g+4     :     0.000002
      g-4     :     0.000002
  2 Aus       :     3.079872  s :     3.079872
      pz      :     2.107834  p :     6.124228
      px      :     2.007418
      py      :     2.008975
      dz2     :     1.970456  d :     9.726305
      dxz     :     1.828913
      dyz     :     1.928189
      dx2y2   :     1.999384
      dxy     :     1.999363
      f0      :     0.004673  f :     0.009823
      f+1     :     0.002113
      f-1     :     0.002560
      f+2     :     0.000235
      f-2     :     0.000238
      f+3     :     0.000002
      f-3     :     0.000002
      g0      :     0.000085  g :     0.000199
      g+1     :     0.000043
      g-1     :     0.000047
      g+2     :     0.000009
      g-2     :     0.000009
      g+3     :     0.000001
      g-3     :     0.000001
      g+4     :     0.000002
      g-4     :     0.000002

SPIN
  0 Aus       :     0.002477  s :     0.002477
      pz      :    -0.002674  p :    -0.014625
      px      :    -0.008609
      py      :    -0.003342
      dz2     :     0.002342  d :     0.593186
      dxz     :     0.435403
      dyz     :     0.155555
      dx2y2   :    -0.000021
      dxy     :    -0.000092
      f0      :    -0.000122  f :    -0.001487
      f+1     :    -0.001002
      f-1     :    -0.000379
      f+2     :    -0.000003
      f-2     :     0.000007
      f+3     :     0.000007
      f-3     :     0.000006
      g0      :    -0.000011  g :     0.000044
      g+1     :     0.000004
      g-1     :     0.000001
      g+2     :     0.000009
      g-2     :     0.000012
      g+3     :     0.000010
      g-3     :     0.000010
      g+4     :     0.000005
      g-4     :     0.000005
  1 Aus       :    -0.001302  s :    -0.001302
      pz      :    -0.001020  p :     0.000066
      px      :     0.000956
      py      :     0.000130
      dz2     :     0.001302  d :     0.210656
      dxz     :     0.154336
      dyz     :     0.055059
      dx2y2   :    -0.000016
      dxy     :    -0.000025
      f0      :     0.000084  f :     0.000769
      f+1     :     0.000518
      f-1     :     0.000160
      f+2     :     0.000003
      f-2     :     0.000002
      f+3     :     0.000001
      f-3     :     0.000001
      g0      :    -0.000002  g :     0.000012
      g+1     :     0.000003
      g-1     :     0.000001
      g+2     :     0.000003
      g-2     :     0.000003
      g+3     :     0.000001
      g-3     :     0.000001
      g+4     :     0.000001
      g-4     :     0.000001
  2 Aus       :    -0.001302  s :    -0.001302
      pz      :    -0.001020  p :     0.000066
      px      :     0.000956
      py      :     0.000130
      dz2     :     0.001302  d :     0.210656
      dxz     :     0.154336
      dyz     :     0.055059
      dx2y2   :    -0.000016
      dxy     :    -0.000025
      f0      :     0.000084  f :     0.000769
      f+1     :     0.000518
      f-1     :     0.000160
      f+2     :     0.000003
      f-2     :     0.000002
      f+3     :     0.000001
      f-3     :     0.000001
      g0      :    -0.000002  g :     0.000012
      g+1     :     0.000003
      g-1     :     0.000001
      g+2     :     0.000003
      g-2     :     0.000003
      g+3     :     0.000001
      g-3     :     0.000001
      g+4     :     0.000001
      g-4     :     0.000001


                      *****************************
                      * MAYER POPULATION ANALYSIS *
                      *****************************

  NA   - Mulliken gross atomic population
  ZA   - Total nuclear charge
  QA   - Mulliken gross atomic charge
  VA   - Mayer's total valence
  BVA  - Mayer's bonded valence
  FA   - Mayer's free valence

  ATOM       NA         ZA         QA         VA         BVA        FA
  0 Au    18.9094    19.0000     0.0906     2.6012     2.2314     0.3698
  1 Au    19.0453    19.0000    -0.0453     1.3787     1.3248     0.0540
  2 Au    19.0453    19.0000    -0.0453     1.3787     1.3248     0.0540

  Mayer bond orders larger than 0.100000
B(  0-Au,  1-Au) :   1.1157 B(  0-Au,  2-Au) :   1.1157 B(  1-Au,  2-Au) :   0.2091 


-------
TIMINGS
-------

Total SCF time: 0 days 0 hours 0 min 15 sec 

Total time                  ....      15.517 sec
Sum of individual times     ....      15.231 sec  ( 98.2%)

Fock matrix formation       ....      13.357 sec  ( 86.1%)
  XC integration            ....       1.123 sec  (  8.4% of F)
    Basis function eval.    ....       0.091 sec  (  8.1% of XC)
    Density eval.           ....       0.109 sec  (  9.7% of XC)
    XC-Functional eval.     ....       0.050 sec  (  4.4% of XC)
    XC-Potential eval.      ....       0.204 sec  ( 18.1% of XC)
Diagonalization             ....       0.187 sec  (  1.2%)
Density matrix formation    ....       0.029 sec  (  0.2%)
Population analysis         ....       0.010 sec  (  0.1%)
Initial guess               ....       1.181 sec  (  7.6%)
Orbital Transformation      ....       0.000 sec  (  0.0%)
Orbital Orthonormalization  ....       0.000 sec  (  0.0%)
DIIS solution               ....       0.062 sec  (  0.4%)
Grid generation             ....       0.406 sec  (  2.6%)

-------------------------   --------------------
FINAL SINGLE POINT ENERGY      -407.057954402404
-------------------------   --------------------


----------------------------------------------------------------------------
                           ORCA NUMERICAL GRADIENT
                              (24-process run)
----------------------------------------------------------------------------

I state                        ... 1
J state                        ... 0
Number of atoms                ... 3
Derivative's order of accuracy ... 2
Central differences            ... used
Number of displacements        ... 18
Numerical increment            ... 5.000e-03 bohr
Translation invariance         ... used

The output will be reduced. Please look at the following files:
SCF program output             ... >Au03N0_LIN.lastscf
Integral program output        ... >Au03N0_LIN.lastint
Gradient program output        ... >Au03N0_LIN.lastgrad


     Note:   There are more processes than displacements to do
     ===>:   Reducing number of processes to   6

             <<<Displacing   2/coordinate 2 (+)>>>
             <<<Displacing   3/coordinate 2 (+)>>>
             <<<Displacing   2/coordinate 3 (+)>>>
             <<<Displacing   3/coordinate 3 (+)>>>
             <<<Displacing   2/coordinate 1 (+)>>>
             <<<Displacing   3/coordinate 1 (+)>>>
             <<<Displacing   3/coordinate 1 (-)>>>
             <<<Displacing   2/coordinate 1 (-)>>>
             <<<Displacing   2/coordinate 2 (-)>>>
             <<<Displacing   3/coordinate 2 (-)>>>
             <<<Displacing   3/coordinate 3 (-)>>>
             <<<Displacing   2/coordinate 3 (-)>>>

------------------------------
CARTESIAN GRADIENT (NUMERICAL)
-------------------------------
   1   Au  :    0.000000011   -0.000000012   -0.000000004
   2   Au  :   -0.000000012    0.000000010    0.016685848
   3   Au  :    0.000000000    0.000000003   -0.016685845

Norm of the cartesian gradient     ...    0.023597350
RMS gradient                       ...    0.007865783
MAX gradient                       ...    0.016685848

-------
TIMINGS
-------

Total numerical gradient time      ...      269.931 sec

------------------------------------------------------------------------------
                         ORCA GEOMETRY RELAXATION STEP
------------------------------------------------------------------------------

Reading the OPT-File                    .... done
Getting information on internals        .... done
Copying old internal coords+grads       .... done
Making the new internal coordinates     .... (new redundants).... done
Validating the new internal coordinates .... (new redundants).... done
Calculating the B-matrix                .... done
Calculating the G,G- and P matrices     .... done
Transforming gradient to internals      .... done
Projecting the internal gradient        .... done
Number of atoms                         ....   3
Number of internal coordinates          ....   4
Current Energy                          ....  -407.057954402 Eh
Current gradient norm                   ....     0.023597350 Eh/bohr
Maximum allowed component of the step   ....  0.300
Current trust radius                    ....  0.300
Evaluating the initial hessian          ....  (Almloef) done
Projecting the Hessian                  .... done
Forming the augmented Hessian           .... done
Diagonalizing the augmented Hessian     .... done
Last element of RFO vector              ....  0.819444702
Lowest eigenvalues of augmented Hessian:
 -0.016505099  0.017232047  0.033737146  0.163789689
Length of the computed step             ....  0.699447136
Warning: the length of the step is outside the trust region - taking restricted step instead
The input lambda is                     ....    -0.016505
   iter:   1  x=   -0.030270  g=   29.002233 f(x)=     0.399226
   iter:   2  x=   -0.045359  g=   10.389791 f(x)=     0.156771
   iter:   3  x=   -0.056838  g=    4.541634 f(x)=     0.052134
   iter:   4  x=   -0.061032  g=    2.740446 f(x)=     0.011493
   iter:   5  x=   -0.061423  g=    2.323084 f(x)=     0.000907
   iter:   6  x=   -0.061426  g=    2.288650 f(x)=     0.000007
   iter:   7  x=   -0.061426  g=    2.288393 f(x)=     0.000000
   iter:   8  x=   -0.061426  g=    2.288393 f(x)=     0.000000
The output lambda is                    ....    -0.061426 (8 iterations)
The final length of the internal step   ....  0.300000000
Converting the step to cartesian space:
 Initial RMS(Int)=    0.1500000000
Transforming coordinates:
 Iter   0:  RMS(Cart)=    0.1000000000 RMS(Int)=    0.1500000000
 Iter   1:  RMS(Cart)=    0.0000000050 RMS(Int)=    0.0000000000
done
Storing new coordinates                 .... done

                                .--------------------.
          ----------------------|Geometry convergence|-------------------------
          Item                value                   Tolerance       Converged
          ---------------------------------------------------------------------
          RMS gradient        0.0117986752            0.0001000000      NO
          MAX gradient        0.0166858483            0.0003000000      NO
          RMS step            0.1500000000            0.0020000000      NO
          MAX step            0.2121320568            0.0040000000      NO
          ........................................................
          Max(Bonds)      0.1123      Max(Angles)    0.00
          Max(Dihed)        0.00      Max(Improp)    0.00
          ---------------------------------------------------------------------

The optimization has not yet converged - more geometry cycles are needed


    ---------------------------------------------------------------------------
                         Redundant Internal Coordinates
                            (Angstroem and degrees)

        Definition                    Value    dE/dq     Step     New-Value
    ----------------------------------------------------------------------------
     1. B(Au  1,Au  0)                2.5474  0.016686 -0.1123    2.4352   
     2. B(Au  2,Au  0)                2.5474  0.016686 -0.1123    2.4352   
     3. L(Au  1,Au  0,Au  2, 2)       180.00 -0.000000    0.00    180.00   
     4. L(Au  1,Au  0,Au  2, 1)       180.00 -0.000000    0.00    180.00   
    ----------------------------------------------------------------------------

         *************************************************************
         *                GEOMETRY OPTIMIZATION CYCLE   2            *
         *************************************************************
---------------------------------
CARTESIAN COORDINATES (ANGSTROEM)
---------------------------------
  Au    -0.000000    0.000000    0.000000
  Au     0.000000   -0.000000    2.435159
  Au     0.000000   -0.000000   -2.435159

----------------------------
CARTESIAN COORDINATES (A.U.)
----------------------------
  NO LB      ZA    FRAG     MASS         X           Y           Z
   0 Au   19.0000*   0   196.966   -0.000000    0.000000    0.000000
   1 Au   19.0000*   0   196.966    0.000000   -0.000000    4.601783
   2 Au   19.0000*   0   196.966    0.000000   -0.000000   -4.601783
* core charge reduced due to ECP

--------------------------------
INTERNAL COORDINATES (ANGSTROEM)
--------------------------------
 Au     0   0   0     0.000000000000     0.00000000     0.00000000
 Au     1   0   0     2.435158550375     0.00000000     0.00000000
 Au     1   2   0     2.435158574162   180.00000000     0.00000000

---------------------------
INTERNAL COORDINATES (A.U.)
---------------------------
 Au     0   0   0     0.000000000000     0.00000000     0.00000000
 Au     1   0   0     4.601782752886     0.00000000     0.00000000
 Au     1   2   0     4.601782797836   180.00000000     0.00000000



           ************************************************************
           *        Program running with 24 parallel MPI-processes    *
           *              working on a common directory               *
           ************************************************************


           ************************************************************
           *        Program running with 24 parallel MPI-processes    *
           *              working on a common directory               *
           ************************************************************

Diagonalization of the overlap matrix:
Smallest eigenvalue                        ... 5.280e-04
Time for diagonalization                   ...    0.005 sec
Threshold for overlap eigenvalues          ... 1.000e-08
Number of eigenvalues below threshold      ... 0
Time for construction of square roots      ...    0.003 sec
Total time needed                          ...    0.009 sec

-------------------
DFT GRID GENERATION
-------------------

General Integration Accuracy     IntAcc      ...  4.670
Radial Grid Type                 RadialGrid  ... Gauss-Chebyshev
Angular Grid (max. acc.)         AngularGrid ... Lebedev-302
Angular grid pruning method      GridPruning ... 3 (G Style)
Weight generation scheme         WeightScheme... Becke
Basis function cutoff            BFCut       ...    1.0000e-11
Integration weight cutoff        WCut        ...    1.0000e-14
Grids for H and He will be reduced by one unit

# of grid points (after initial pruning)     ...  34956 (   0.0 sec)
# of grid points (after weights+screening)   ...  34708 (   0.0 sec)
nearest neighbour list constructed           ...    0.0 sec
Grid point re-assignment to atoms done       ...    0.0 sec
Grid point division into batches done        ...    0.3 sec
Reduced shell lists constructed in    0.3 sec

Total number of grid points                  ...    34708
Total number of batches                      ...      545
Average number of points per batch           ...       63
Average number of grid points per atom       ...    11569
Average number of shells per batch           ...    15.75 (30.88%)
Average number of basis functions per batch  ...    50.25 (28.39%)
Average number of large shells per batch     ...    10.67 (67.72%)
Average number of large basis fcns per batch ...    29.17 (58.04%)
Maximum spatial batch extension              ...  37.74, 37.74,  4.43 au
Average spatial batch extension              ...   0.52,  0.52,  0.18 au

Time for grid setup =    0.379 sec

--------------
SCF ITERATIONS
--------------
ITER       Energy         Delta-E        Max-DP      RMS-DP      [F,P]     Damp
               ***  Starting incremental Fock matrix formation  ***
  0   -407.2681252804   0.000000000000 0.00279600  0.00007256  0.2118517 0.7000
  1   -407.2687238034  -0.000598522971 0.00259744  0.00006878  0.1485534 0.7000
                               ***Turning on DIIS***
  2   -407.2691649902  -0.000441186766 0.00216203  0.00005645  0.1040837 0.7000
  3   -407.2694912482  -0.000326258035 0.00772476  0.00016950  0.0729285 0.0000
  4   -407.2703632420  -0.000871993801 0.00202954  0.00003709  0.0010576 0.0000
  5   -407.2704002553  -0.000037013333 0.00157734  0.00002486  0.0011762 0.0000
  6   -407.2704205869  -0.000020331618 0.00308196  0.00005259  0.0007028 0.0000
  7   -407.2704522063  -0.000031619373 0.00126930  0.00001974  0.0006390 0.0000
  8   -407.2704585931  -0.000006386809 0.00098943  0.00001218  0.0002886 0.0000
  9   -407.2704615620  -0.000002968868 0.00085203  0.00000929  0.0002032 0.0000
 10   -407.2704626374  -0.000001075455 0.00051401  0.00000516  0.0000718 0.0000
 11   -407.2704629029  -0.000000265466 0.00013890  0.00000163  0.0000364 0.0000
 12   -407.2704629403  -0.000000037379 0.00008228  0.00000087  0.0000202 0.0000
 13   -407.2704629490  -0.000000008723 0.00004256  0.00000049  0.0000068 0.0000
 14   -407.2704629496  -0.000000000595 0.00001862  0.00000019  0.0000031 0.0000
                 **** Energy Check signals convergence ****

               *****************************************************
               *                     SUCCESS                       *
               *           SCF CONVERGED AFTER  15 CYCLES          *
               *****************************************************


Setting up the DFT-NL grid :

General Integration Accuracy     IntAcc      ...  4.340
Radial Grid Type                 RadialGrid  ... Gauss-Chebyshev
Angular Grid (max. acc.)         AngularGrid ... Lebedev-110
Angular grid pruning method      GridPruning ... 3 (G Style)
Weight generation scheme         WeightScheme... Becke
Basis function cutoff            BFCut       ...    1.0000e-11
Integration weight cutoff        WCut        ...    1.0000e-14
Grids for H and He will be reduced by one unit

# of grid points (after initial pruning)     ...  10590 (   0.0 sec)
# of grid points (after weights+screening)   ...  10518 (   0.0 sec)
nearest neighbour list constructed           ...    0.0 sec
Grid point re-assignment to atoms done       ...    0.0 sec
Grid point division into batches done        ...    0.0 sec
Reduced shell lists constructed in    0.0 sec

Total number of grid points                  ...    10518
Total number of batches                      ...      166
Average number of points per batch           ...       63
Average number of grid points per atom       ...     3506
Average number of shells per batch           ...    21.00 (41.18%)
Average number of basis functions per batch  ...    68.25 (38.56%)
Average number of large shells per batch     ...    16.50 (78.57%)
Average number of large basis fcns per batch ...    51.00 (74.73%)
Maximum spatial batch extension              ...  27.21, 49.51,  4.11 au
Average spatial batch extension              ...   0.65,  1.03,  0.16 au

Final grid set up in    0.0 sec

-------------------------------------------------------------------------------
                         DFT-NL dispersion correction                          
-------------------------------------------------------------------------------

SC Energy -407.270462950 
NL    Energy 0.210778968 
SC+NL Energy -407.059683982 
NL done in    0.0 sec
-------------------------------------------------------------------------------
Total Energy       :         -407.05968398 Eh          -11076.65713 eV
  Last Energy change         ...   -8.1292e-10  Tolerance :   1.0000e-08
  Last MAX-Density change    ...    5.4966e-06  Tolerance :   1.0000e-07
             **** THE GBW FILE WAS UPDATED (Au03N0_LIN.gbw) ****
             **** DENSITY FILE WAS UPDATED (Au03N0_LIN.scfp) ****
             **** ENERGY FILE WAS UPDATED (Au03N0_LIN.en.tmp) ****
----------------------
UHF SPIN CONTAMINATION
----------------------

Warning: in a DFT calculation there is little theoretical justification to 
         calculate <S**2> as in Hartree-Fock theory. We will do it anyways
         but you should keep in mind that the values have only limited relevance

Expectation value of <S**2>     :     0.759107
Ideal value S*(S+1) for S=0.5   :     0.750000
Deviation                       :     0.009107

             **** THE GBW FILE WAS UPDATED (Au03N0_LIN.gbw) ****
             **** DENSITY FILE WAS UPDATED (Au03N0_LIN.scfp) ****
Total SCF time: 0 days 0 hours 0 min 10 sec 

-------------------------   --------------------
FINAL SINGLE POINT ENERGY      -407.059683981923
-------------------------   --------------------


----------------------------------------------------------------------------
                           ORCA NUMERICAL GRADIENT
                              (24-process run)
----------------------------------------------------------------------------

I state                        ... 1
J state                        ... 0
Number of atoms                ... 3
Derivative's order of accuracy ... 2
Central differences            ... used
Number of displacements        ... 18
Numerical increment            ... 5.000e-03 bohr
Translation invariance         ... used

The output will be reduced. Please look at the following files:
SCF program output             ... >Au03N0_LIN.lastscf
Integral program output        ... >Au03N0_LIN.lastint
Gradient program output        ... >Au03N0_LIN.lastgrad


     Note:   There are more processes than displacements to do
     ===>:   Reducing number of processes to   6

             <<<Displacing   3/coordinate 3 (+)>>>
             <<<Displacing   3/coordinate 1 (+)>>>
             <<<Displacing   2/coordinate 2 (+)>>>
             <<<Displacing   2/coordinate 1 (+)>>>
             <<<Displacing   3/coordinate 2 (+)>>>
             <<<Displacing   2/coordinate 3 (+)>>>
             <<<Displacing   2/coordinate 2 (-)>>>
             <<<Displacing   3/coordinate 2 (-)>>>
             <<<Displacing   2/coordinate 3 (-)>>>
             <<<Displacing   3/coordinate 3 (-)>>>
             <<<Displacing   2/coordinate 1 (-)>>>
             <<<Displacing   3/coordinate 1 (-)>>>

------------------------------
CARTESIAN GRADIENT (NUMERICAL)
-------------------------------
   1   Au  :    0.000000342    0.000000048    0.000000007
   2   Au  :   -0.000000162   -0.000000019   -0.011000441
   3   Au  :   -0.000000181   -0.000000030    0.011000434

Norm of the cartesian gradient     ...    0.015556968
RMS gradient                       ...    0.005185656
MAX gradient                       ...    0.011000441

-------
TIMINGS
-------

Total numerical gradient time      ...      306.170 sec

------------------------------------------------------------------------------
                         ORCA GEOMETRY RELAXATION STEP
------------------------------------------------------------------------------

Reading the OPT-File                    .... done
Getting information on internals        .... done
Copying old internal coords+grads       .... done
Making the new internal coordinates     .... (new redundants).... done
Validating the new internal coordinates .... (new redundants).... done
Calculating the B-matrix                .... done
Calculating the G,G- and P matrices     .... done
Transforming gradient to internals      .... done
Projecting the internal gradient        .... done
Number of atoms                         ....   3
Number of internal coordinates          ....   4
Current Energy                          ....  -407.059683982 Eh
Current gradient norm                   ....     0.015556968 Eh/bohr
Maximum allowed component of the step   ....  0.300
Current trust radius                    ....  0.300
Updating the Hessian (BFGS)             .... done
Forming the augmented Hessian           .... done
Diagonalizing the augmented Hessian     .... done
Last element of RFO vector              ....  0.993161756
Lowest eigenvalues of augmented Hessian:
 -0.001828726  0.017232047  0.132343120  0.163789689
Length of the computed step             ....  0.117550258
The final length of the internal step   ....  0.117550258
Converting the step to cartesian space:
 Initial RMS(Int)=    0.0587751289
Transforming coordinates:
 Iter   0:  RMS(Cart)=    0.0391834193 RMS(Int)=    0.0587751289
 Iter   1:  RMS(Cart)=    0.0000000670 RMS(Int)=    0.0000000509
done
Storing new coordinates                 .... done

                                .--------------------.
          ----------------------|Geometry convergence|-------------------------
          Item                value                   Tolerance       Converged
          ---------------------------------------------------------------------
          Energy change      -0.0017295795            0.0000050000      NO
          RMS gradient        0.0077784839            0.0001000000      NO
          MAX gradient        0.0110004411            0.0003000000      NO
          RMS step            0.0587751289            0.0020000000      NO
          MAX step            0.0831206707            0.0040000000      NO
          ........................................................
          Max(Bonds)      0.0440      Max(Angles)    0.00
          Max(Dihed)        0.00      Max(Improp)    0.00
          ---------------------------------------------------------------------

The optimization has not yet converged - more geometry cycles are needed


    ---------------------------------------------------------------------------
                         Redundant Internal Coordinates
                            (Angstroem and degrees)

        Definition                    Value    dE/dq     Step     New-Value
    ----------------------------------------------------------------------------
     1. B(Au  1,Au  0)                2.4352 -0.011000  0.0440    2.4791   
     2. B(Au  2,Au  0)                2.4352 -0.011000  0.0440    2.4791   
     3. L(Au  1,Au  0,Au  2, 2)       180.00 -0.000000    0.00    180.00   
     4. L(Au  1,Au  0,Au  2, 1)       180.00  0.000000   -0.00    180.00   
    ----------------------------------------------------------------------------

         *************************************************************
         *                GEOMETRY OPTIMIZATION CYCLE   3            *
         *************************************************************


           ************************************************************
           *        Program running with 24 parallel MPI-processes    *
           *              working on a common directory               *
           ************************************************************


           ************************************************************
           *        Program running with 24 parallel MPI-processes    *
           *              working on a common directory               *
           ************************************************************

Diagonalization of the overlap matrix:
Smallest eigenvalue                        ... 6.008e-04
Time for diagonalization                   ...    0.007 sec
Threshold for overlap eigenvalues          ... 1.000e-08
Number of eigenvalues below threshold      ... 0
Time for construction of square roots      ...    0.003 sec
Total time needed                          ...    0.010 sec

-------------------
DFT GRID GENERATION
-------------------

General Integration Accuracy     IntAcc      ...  4.670
Radial Grid Type                 RadialGrid  ... Gauss-Chebyshev
Angular Grid (max. acc.)         AngularGrid ... Lebedev-302
Angular grid pruning method      GridPruning ... 3 (G Style)
Weight generation scheme         WeightScheme... Becke
Basis function cutoff            BFCut       ...    1.0000e-11
Integration weight cutoff        WCut        ...    1.0000e-14
Grids for H and He will be reduced by one unit

# of grid points (after initial pruning)     ...  34956 (   0.0 sec)
# of grid points (after weights+screening)   ...  34728 (   0.0 sec)
nearest neighbour list constructed           ...    0.0 sec
Grid point re-assignment to atoms done       ...    0.0 sec
Grid point division into batches done        ...    0.3 sec
Reduced shell lists constructed in    0.3 sec

Total number of grid points                  ...    34728
Total number of batches                      ...      543
Average number of points per batch           ...       63
Average number of grid points per atom       ...    11576
Average number of shells per batch           ...    15.17 (29.74%)
Average number of basis functions per batch  ...    48.58 (27.45%)
[...]
  2 Aus       :     3.331467  s :     3.331467
      pz      :     2.024810  p :     6.039004
      px      :     2.006993
      py      :     2.007200
      dz2     :     1.914223  d :     9.664283
      dxz     :     1.822570
      dyz     :     1.928472
      dx2y2   :     1.999520
      dxy     :     1.999497
      f0      :     0.002895  f :     0.007299
      f+1     :     0.001849
      f-1     :     0.002053
      f+2     :     0.000247
      f-2     :     0.000251
      f+3     :     0.000002
      f-3     :     0.000002
      g0      :     0.000081  g :     0.000217
      g+1     :     0.000053
      g-1     :     0.000053
      g+2     :     0.000011
      g-2     :     0.000012
      g+3     :     0.000002
      g-3     :     0.000002
      g+4     :     0.000002
      g-4     :     0.000002

SPIN
  0 Aus       :     0.011518  s :     0.011518
      pz      :     0.005513  p :    -0.008020
      px      :    -0.009769
      py      :    -0.003764
      dz2     :     0.005033  d :     0.574594
      dxz     :     0.419919
      dyz     :     0.149817
      dx2y2   :    -0.000058
      dxy     :    -0.000117
      f0      :    -0.000079  f :    -0.001761
      f+1     :    -0.001238
      f-1     :    -0.000457
      f+2     :    -0.000004
      f-2     :     0.000005
      f+3     :     0.000006
      f-3     :     0.000006
      g0      :    -0.000011  g :     0.000032
      g+1     :    -0.000005
      g-1     :    -0.000002
      g+2     :     0.000010
      g-2     :     0.000013
      g+3     :     0.000009
      g-3     :     0.000009
      g+4     :     0.000004
      g-4     :     0.000004
  1 Aus       :    -0.008345  s :    -0.008345
      pz      :    -0.003410  p :    -0.004588
      px      :    -0.000753
      py      :    -0.000425
      dz2     :     0.000815  d :     0.224513
      dxz     :     0.164835
      dyz     :     0.058857
      dx2y2   :     0.000006
      dxy     :    -0.000000
      f0      :     0.000009  f :     0.000232
      f+1     :     0.000177
      f-1     :     0.000042
      f+2     :     0.000001
      f-2     :     0.000001
      f+3     :     0.000001
      f-3     :     0.000001
      g0      :    -0.000003  g :     0.000006
      g+1     :    -0.000002
      g-1     :    -0.000001
      g+2     :     0.000003
      g-2     :     0.000004
      g+3     :     0.000002
      g-3     :     0.000002
      g+4     :     0.000001
      g-4     :     0.000001
  2 Aus       :    -0.008344  s :    -0.008344
      pz      :    -0.003409  p :    -0.004587
      px      :    -0.000753
      py      :    -0.000425
      dz2     :     0.000815  d :     0.224513
      dxz     :     0.164835
      dyz     :     0.058857
      dx2y2   :     0.000006
      dxy     :    -0.000000
      f0      :     0.000009  f :     0.000232
      f+1     :     0.000177
      f-1     :     0.000042
      f+2     :     0.000001
      f-2     :     0.000001
      f+3     :     0.000001
      f-3     :     0.000001
      g0      :    -0.000003  g :     0.000006
      g+1     :    -0.000002
      g-1     :    -0.000001
      g+2     :     0.000003
      g-2     :     0.000004
      g+3     :     0.000002
      g-3     :     0.000002
      g+4     :     0.000001
      g-4     :     0.000001


                     *******************************
                     * LOEWDIN POPULATION ANALYSIS *
                     *******************************

-------------------------------------------
LOEWDIN ATOMIC CHARGES AND SPIN POPULATIONS
-------------------------------------------
   0 Au:   -0.148723    0.549551
   1 Au:    0.074361    0.225225
   2 Au:    0.074362    0.225225

----------------------------------------------------
LOEWDIN REDUCED ORBITAL CHARGES AND SPIN POPULATIONS
----------------------------------------------------
CHARGE
  0 Aus       :     2.853667  s :     2.853667
      pz      :     2.814231  p :     6.873563
      px      :     2.032421
      py      :     2.026910
      dz2     :     1.991077  d :     9.384039
      dxz     :     1.563894
      dyz     :     1.828963
      dx2y2   :     2.000085
      dxy     :     2.000020
      f0      :     0.018039  f :     0.036875
      f+1     :     0.009090
      f-1     :     0.008369
      f+2     :     0.000671
      f-2     :     0.000683
      f+3     :     0.000012
      f-3     :     0.000012
      g0      :     0.000219  g :     0.000579
      g+1     :     0.000132
      g-1     :     0.000139
      g+2     :     0.000023
      g-2     :     0.000027
      g+3     :     0.000010
      g-3     :     0.000009
      g+4     :     0.000010
      g-4     :     0.000010
  1 Aus       :     3.076819  s :     3.076819
      pz      :     2.110511  p :     6.130290
      px      :     2.008937
      py      :     2.010841
      dz2     :     1.967980  d :     9.704925
      dxz     :     1.816470
      dyz     :     1.921989
      dx2y2   :     1.999254
      dxy     :     1.999231
      f0      :     0.006029  f :     0.013320
      f+1     :     0.003026
      f-1     :     0.003615
      f+2     :     0.000321
      f-2     :     0.000325
      f+3     :     0.000002
      f-3     :     0.000002
      g0      :     0.000120  g :     0.000285
      g+1     :     0.000064
      g-1     :     0.000069
      g+2     :     0.000012
      g-2     :     0.000012
      g+3     :     0.000002
      g-3     :     0.000002
      g+4     :     0.000002
      g-4     :     0.000002
  2 Aus       :     3.076819  s :     3.076819
      pz      :     2.110511  p :     6.130290
      px      :     2.008937
      py      :     2.010841
      dz2     :     1.967980  d :     9.704925
      dxz     :     1.816470
      dyz     :     1.921989
      dx2y2   :     1.999254
      dxy     :     1.999231
      f0      :     0.006029  f :     0.013320
      f+1     :     0.003026
      f-1     :     0.003615
      f+2     :     0.000321
      f-2     :     0.000325
      f+3     :     0.000002
      f-3     :     0.000002
      g0      :     0.000120  g :     0.000285
      g+1     :     0.000064
      g-1     :     0.000069
      g+2     :     0.000012
      g-2     :     0.000012
      g+3     :     0.000002
      g-3     :     0.000002
      g+4     :     0.000002
      g-4     :     0.000002

SPIN
  0 Aus       :     0.001271  s :     0.001271
      pz      :    -0.003344  p :    -0.016852
      px      :    -0.009717
      py      :    -0.003790
      dz2     :     0.002356  d :     0.566904
      dxz     :     0.415943
      dyz     :     0.148689
      dx2y2   :    -0.000013
      dxy     :    -0.000072
      f0      :    -0.000112  f :    -0.001816
      f+1     :    -0.001239
      f-1     :    -0.000474
      f+2     :    -0.000006
      f-2     :     0.000003
      f+3     :     0.000006
      f-3     :     0.000006
      g0      :    -0.000012  g :     0.000044
      g+1     :     0.000006
      g-1     :     0.000002
      g+2     :     0.000009
      g-2     :     0.000012
      g+3     :     0.000009
      g-3     :     0.000009
      g+4     :     0.000004
      g-4     :     0.000004
  1 Aus       :    -0.000078  s :    -0.000078
      pz      :    -0.001295  p :     0.000187
      px      :     0.001272
      py      :     0.000209
      dz2     :     0.001262  d :     0.224094
      dxz     :     0.164238
      dyz     :     0.058629
      dx2y2   :    -0.000014
      dxy     :    -0.000021
      f0      :     0.000088  f :     0.001006
      f+1     :     0.000698
      f-1     :     0.000217
      f+2     :     0.000000
      f-2     :     0.000000
      f+3     :     0.000001
      f-3     :     0.000001
      g0      :    -0.000002  g :     0.000016
      g+1     :     0.000005
      g-1     :     0.000001
      g+2     :     0.000003
      g-2     :     0.000004
      g+3     :     0.000002
      g-3     :     0.000002
      g+4     :     0.000001
      g-4     :     0.000001
  2 Aus       :    -0.000078  s :    -0.000078
      pz      :    -0.001295  p :     0.000187
      px      :     0.001272
      py      :     0.000209
      dz2     :     0.001262  d :     0.224094
      dxz     :     0.164238
      dyz     :     0.058629
      dx2y2   :    -0.000014
      dxy     :    -0.000021
      f0      :     0.000088  f :     0.001006
      f+1     :     0.000698
      f-1     :     0.000217
      f+2     :     0.000000
      f-2     :     0.000000
      f+3     :     0.000001
      f-3     :     0.000001
      g0      :    -0.000002  g :     0.000016
      g+1     :     0.000005
      g-1     :     0.000001
      g+2     :     0.000003
      g-2     :     0.000004
      g+3     :     0.000002
      g-3     :     0.000002
      g+4     :     0.000001
      g-4     :     0.000001


                      *****************************
                      * MAYER POPULATION ANALYSIS *
                      *****************************

  NA   - Mulliken gross atomic population
  ZA   - Total nuclear charge
  QA   - Mulliken gross atomic charge
  VA   - Mayer's total valence
  BVA  - Mayer's bonded valence
  FA   - Mayer's free valence

  ATOM       NA         ZA         QA         VA         BVA        FA
  0 Au    18.9155    19.0000     0.0845     2.5729     2.2334     0.3394
  1 Au    19.0423    19.0000    -0.0423     1.3927     1.3314     0.0612
  2 Au    19.0423    19.0000    -0.0423     1.3927     1.3314     0.0612

  Mayer bond orders larger than 0.100000
B(  0-Au,  1-Au) :   1.1167 B(  0-Au,  2-Au) :   1.1167 B(  1-Au,  2-Au) :   0.2147 


-------
TIMINGS
-------

Total SCF time: 0 days 0 hours 0 min 6 sec 

Total time                  ....       6.508 sec
Sum of individual times     ....       6.235 sec  ( 95.8%)

Fock matrix formation       ....       5.674 sec  ( 87.2%)
  XC integration            ....       0.515 sec  (  9.1% of F)
    Basis function eval.    ....       0.057 sec  ( 11.2% of XC)
    Density eval.           ....       0.064 sec  ( 12.5% of XC)
    XC-Functional eval.     ....       0.028 sec  (  5.5% of XC)
    XC-Potential eval.      ....       0.093 sec  ( 18.1% of XC)
Diagonalization             ....       0.082 sec  (  1.3%)
Density matrix formation    ....       0.012 sec  (  0.2%)
Population analysis         ....       0.010 sec  (  0.2%)
Initial guess               ....       0.019 sec  (  0.3%)
Orbital Transformation      ....       0.000 sec  (  0.0%)
Orbital Orthonormalization  ....       0.011 sec  (  0.2%)
DIIS solution               ....       0.025 sec  (  0.4%)
Grid generation             ....       0.413 sec  (  6.4%)

-------------------------   --------------------
FINAL SINGLE POINT ENERGY      -407.060446358812
-------------------------   --------------------

                                *** OPTIMIZATION RUN DONE ***

                            ***************************************
                            *     ORCA property calculations      *
                            ***************************************

                                    ---------------------
                                    Active property flags
                                    ---------------------
   (+) Dipole Moment


------------------------------------------------------------------------------
                       ORCA ELECTRIC PROPERTIES CALCULATION
------------------------------------------------------------------------------

Dipole Moment Calculation                       ... on
Quadrupole Moment Calculation                   ... off
Polarizability Calculation                      ... off
GBWName                                         ... Au03N0_LIN.gbw
Electron density file                           ... Au03N0_LIN.scfp
The origin for moment calculation is the CENTER OF MASS  = (-0.000000,  0.000000  0.000000)

-------------
DIPOLE MOMENT
-------------
                                X             Y             Z
Electronic contribution:     -0.00000      -0.00003      -0.00000
Nuclear contribution   :      0.00000       0.00000       0.00000
                        -----------------------------------------
Total Dipole Moment    :     -0.00000      -0.00003      -0.00000
                        -----------------------------------------
Magnitude (a.u.)       :      0.00003
Magnitude (Debye)      :      0.00008



--------------------
Rotational spectrum 
--------------------
 
Rotational constants in cm-1: 25132774.640189     0.006998     0.006998 
Rotational constants in MHz : 753461628574.225586   209.784048   209.784048 

 Dipole components along the rotational axes: 
x,y,z [a.u.] :    -0.000001    -0.000011     0.000028 
x,y,z [Debye]:    -0.000003    -0.000028     0.000071 

 

----------------------------------------------------------------------------
                           ORCA NUMERICAL FREQUENCIES
                              (24-process run)
----------------------------------------------------------------------------

Number of atoms                ... 3
Central differences            ... used
Number of displacements        ... 18
Numerical increment            ... 5.000e-03 bohr
IR-spectrum generation         ... on
Raman-spectrum generation      ... off
Surface Crossing Hessian       ... off

 WARNING: There are more processes than displacements to do
  ====> : Reducing number of processes to   9

The output will be reduced. Please look at the following files:
SCF program output             ... >Au03N0_LIN.lastscf
Integral program output        ... >Au03N0_LIN.lastint
Gradient program output        ... >Au03N0_LIN.lastgrad
Dipole moment program output   ... >Au03N0_LIN.lastmom
AutoCI program output          ... >Au03N0_LIN.lastautoci


         <<< Energy and Gradient at the input geometry >>>

        <<< Energy and Gradient at displaced geometries >>>
             <<<Displacing   1/coordinate 1 (+)>>>
             <<<Displacing   2/coordinate 1 (+)>>>
             <<<Displacing   1/coordinate 2 (+)>>>
             <<<Displacing   3/coordinate 2 (+)>>>
             <<<Displacing   1/coordinate 3 (+)>>>
             <<<Displacing   3/coordinate 3 (+)>>>
             <<<Displacing   3/coordinate 1 (+)>>>
             <<<Displacing   2/coordinate 3 (+)>>>
             <<<Displacing   2/coordinate 2 (+)>>>
             <<<Displacing   2/coordinate 2 (-)>>>
             <<<Displacing   3/coordinate 2 (-)>>>
             <<<Displacing   2/coordinate 3 (-)>>>
             <<<Displacing   1/coordinate 3 (-)>>>
             <<<Displacing   3/coordinate 3 (-)>>>
             <<<Displacing   1/coordinate 2 (-)>>>
             <<<Displacing   1/coordinate 1 (-)>>>
             <<<Displacing   3/coordinate 1 (-)>>>
             <<<Displacing   2/coordinate 1 (-)>>>

-----------------------
VIBRATIONAL FREQUENCIES
-----------------------

Scaling factor for frequencies =  1.000000000 (already applied!)

   0:         0.00 cm**-1
   1:         0.00 cm**-1
   2:         0.00 cm**-1
   3:         0.00 cm**-1
   4:         0.00 cm**-1
   5:         0.00 cm**-1
   6:        39.02 cm**-1
   7:       138.06 cm**-1
   8:       214.56 cm**-1


------------
NORMAL MODES
------------

These modes are the cartesian displacements weighted by the diagonal matrix
M(i,i)=1/sqrt(m[i]) where m[i] is the mass of the displaced atom
Thus, these vectors are normalized but *not* orthogonal

                  0          1          2          3          4          5    
      0       0.000000   0.000000   0.000000   0.000000   0.000000   0.000000
      1       0.000000   0.000000   0.000000   0.000000   0.000000   0.000000
      2       0.000000   0.000000   0.000000   0.000000   0.000000   0.000000
      3       0.000000   0.000000   0.000000   0.000000   0.000000   0.000000
      4       0.000000   0.000000   0.000000   0.000000   0.000000   0.000000
      5       0.000000   0.000000   0.000000   0.000000   0.000000   0.000000
      6       0.000000   0.000000   0.000000   0.000000   0.000000   0.000000
      7       0.000000   0.000000   0.000000   0.000000   0.000000   0.000000
      8       0.000000   0.000000   0.000000   0.000000   0.000000   0.000000
                   6          7          8    
      0       0.711307   0.000199  -0.000014
      1      -0.400885  -0.000112   0.000008
      2       0.000016  -0.000004   0.816497
      3      -0.355654  -0.000099  -0.000003
      4       0.200442   0.000056   0.000002
      5      -0.000205   0.707109  -0.408245
      6      -0.355654  -0.000099   0.000017
      7       0.200442   0.000056  -0.000010
      8       0.000189  -0.707105  -0.408251


-----------
IR SPECTRUM  
-----------

 Mode    freq (cm**-1)   T**2         TX         TY         TZ
-------------------------------------------------------------------
   6:        39.02    0.334739  ( -0.531775   0.227936   0.000091)
   7:       138.06    0.000004  (  0.001513   0.001109  -0.000044)
   8:       214.56   36.881360  (  0.000044   0.000014   6.073003)

The first frequency considered to be a vibration is 6
The total number of vibrations considered is 3


--------------------------
THERMOCHEMISTRY AT 298.15K
--------------------------

Temperature         ... 298.15 K
Pressure            ... 1.00 atm
Total Mass          ... 590.90 AMU

Throughout the following assumptions are being made:
  (1) The electronic state is orbitally nondegenerate
      but the spin degeneracy is treated
  (2) There are no thermally accessible electronically excited states
  (3) Hindered rotations indicated by low frequency modes are not
      treated as such but are treated as vibrations and this may
      cause some error
  (4) All equations used are the standard statistical mechanics
      equations for an ideal gas
  (5) All vibrations are strictly harmonic

freq.      39.02  E(vib)   ...       0.54 
freq.     138.06  E(vib)   ...       0.42 
freq.     214.56  E(vib)   ...       0.34 

------------
INNER ENERGY
------------

The inner energy is: U= E(el) + E(ZPE) + E(vib) + E(rot) + E(trans)
    E(el)   - is the total energy from the electronic structure calculation
              = E(kin-el) + E(nuc-el) + E(el-el) + E(nuc-nuc)
    E(ZPE)  - the the zero temperature vibrational energy from the frequency calculation
    E(vib)  - the the finite temperature correction to E(ZPE) due to population
              of excited vibrational states
    E(rot)  - is the rotational thermal energy
    E(trans)- is the translational thermal energy

Summary of contributions to the inner energy U:
Electronic energy                ...   -407.06044636 Eh
Zero point energy                ...      0.00089223 Eh       0.56 kcal/mol
Thermal vibrational correction   ...      0.00206074 Eh       1.29 kcal/mol
Thermal rotational correction    ...      0.00141627 Eh       0.89 kcal/mol
Thermal translational correction ...      0.00141627 Eh       0.89 kcal/mol
-----------------------------------------------------------------------
Total thermal energy                   -407.05466085 Eh


Summary of corrections to the electronic energy:
(perhaps to be used in another calculation)
Total thermal correction                  0.00489328 Eh       3.07 kcal/mol
Non-thermal (ZPE) correction              0.00089223 Eh       0.56 kcal/mol
-----------------------------------------------------------------------
Total correction                          0.00578551 Eh       3.63 kcal/mol


--------
ENTHALPY
--------

The enthalpy is H = U + kB*T
                kB is Boltzmann's constant
Total free energy                 ...   -407.05466085 Eh 
Thermal Enthalpy correction       ...      0.00094421 Eh       0.59 kcal/mol
-----------------------------------------------------------------------
Total Enthalpy                    ...   -407.05371664 Eh

[file orca_tools/Tool-Symmetry/symmain.cpp, line 3070]: Error (ORCA_SYM): TMoleculeSymmetry::CleanUp molecule is linear but not aligned to z axis!

[file orca_tools/Tool-Symmetry/symmain.cpp, line 3070]: Error (ORCA_SYM): TMoleculeSymmetry::CleanUp molecule is linear but not aligned to z axis!

