
                                 *****************
                                 * O   R   C   A *
                                 *****************

           --- An Ab Initio, DFT and Semiempirical electronic structure package ---

                  #######################################################
                  #                        -***-                        #
                  #          Department of theory and spectroscopy      #
                  #               Directorship: Frank Neese             #
                  #        Max Planck Institute fuer Kohlenforschung    #
                  #                Kaiser Wilhelm Platz 1               #
                  #                 D-45470 Muelheim/Ruhr               #
                  #                      Germany                        #
                  #                                                     #
                  #                  All rights reserved                #
                  #                        -***-                        #
                  #######################################################


                         Program Version 4.2.0 -  RELEASE  -


 With contributions from (in alphabetic order):
   Daniel Aravena         : Magnetic Suceptibility
   Michael Atanasov       : Ab Initio Ligand Field Theory (pilot matlab implementation)
   Alexander A. Auer      : GIAO ZORA, VPT2
   Ute Becker             : Parallelization
   Giovanni Bistoni       : ED, misc. LED, open-shell LED, HFLED
   Martin Brehm           : Molecular dynamics
   Dmytro Bykov           : SCF Hessian
   Vijay G. Chilkuri      : MRCI spin determinant printing, contributions to CSF-ICE
   Dipayan Datta          : RHF DLPNO-CCSD density
   Achintya Kumar Dutta   : EOM-CC, STEOM-CC
   Dmitry Ganyushin       : Spin-Orbit,Spin-Spin,Magnetic field MRCI
   Miquel Garcia          : C-PCM Hessian, Gaussian charge scheme
   Yang Guo               : DLPNO-NEVPT2, CIM, IAO-localization
   Andreas Hansen         : Spin unrestricted coupled pair/coupled cluster methods
   Benjamin Helmich-Paris : CASSCF linear response (MC-RPA)
   Lee Huntington         : MR-EOM, pCC
   Robert Izsak           : Overlap fitted RIJCOSX, COSX-SCS-MP3, EOM
   Christian Kollmar      : KDIIS, OOCD, Brueckner-CCSD(T), CCSD density
   Simone Kossmann        : Meta GGA functionals, TD-DFT gradient, OOMP2, MP2 Hessian
   Martin Krupicka        : AUTO-CI
   Lucas Lang             : DCDCAS
   Dagmar Lenk            : GEPOL surface, SMD
   Dimitrios Liakos       : Extrapolation schemes; Compound Job, initial MDCI parallelization
   Dimitrios Manganas     : Further ROCIS development; embedding schemes
   Dimitrios Pantazis     : SARC Basis sets
   Taras Petrenko         : DFT Hessian,TD-DFT gradient, ASA, ECA, R-Raman, ABS, FL, XAS/XES, NRVS
   Peter Pinski           : DLPNO-MP2, DLPNO-MP2 Gradient
   Christoph Reimann      : Effective Core Potentials
   Marius Retegan         : Local ZFS, SOC
   Christoph Riplinger    : Optimizer, TS searches, QM/MM, DLPNO-CCSD(T), (RO)-DLPNO pert. Triples
   Tobias Risthaus        : Range-separated hybrids, TD-DFT gradient, RPA, STAB
   Michael Roemelt        : Original ROCIS implementation
   Masaaki Saitow         : Open-shell DLPNO-CCSD energy and density
   Barbara Sandhoefer     : DKH picture change effects
   Avijit Sen             : IP-ROCIS
   Kantharuban Sivalingam : CASSCF convergence, NEVPT2, FIC-MRCI
   Bernardo de Souza      : ESD, SOC TD-DFT
   Georgi Stoychev        : AutoAux, RI-MP2 NMR
   Willem Van den Heuvel  : Paramagnetic NMR
   Boris Wezisla          : Elementary symmetry handling
   Frank Wennmohs         : Technical directorship


 We gratefully acknowledge several colleagues who have allowed us to
 interface, adapt or use parts of their codes:
   Stefan Grimme, W. Hujo, H. Kruse,             : VdW corrections, initial TS optimization,
                  C. Bannwarth                     DFT functionals, gCP, sTDA/sTD-DF
   Ed Valeev, F. Pavosevic, A. Kumar             : LibInt (2-el integral package), F12 methods
   Garnet Chan, S. Sharma, J. Yang, R. Olivares  : DMRG
   Ulf Ekstrom                                   : XCFun DFT Library
   Mihaly Kallay                                 : mrcc  (arbitrary order and MRCC methods)
   Andreas Klamt, Michael Diedenhofen            : otool_cosmo (COSMO solvation model)
   Jiri Pittner, Ondrej Demel                    : Mk-CCSD
   Frank Weinhold                                : gennbo (NPA and NBO analysis)
   Christopher J. Cramer and Donald G. Truhlar   : smd solvation model
   Lars Goerigk                                  : TD-DFT with DH, B97 family of functionals
   V. Asgeirsson, H. Jonsson                     : NEB implementation
   FAccTs GmbH                                   : IRC, NEB, NEB-TS, Multilevel, MM, QM/MM, CI optimization
   S Lehtola, MJT Oliveira, MAL Marques          : LibXC Library


 Your calculation uses the libint2 library for the computation of 2-el integrals
 For citations please refer to: http://libint.valeyev.net

 Your ORCA version has been built with support for libXC version: 4.2.3
 For citations please refer to: https://tddft.org/programs/libxc/

 This ORCA versions uses:
   CBLAS   interface :  Fast vector & matrix operations
   LAPACKE interface :  Fast linear algebra routines
   SCALAPACK package :  Parallel linear algebra routines


Your calculation utilizes the DFT-NL dispersion correction.
Cite in your paper:
Vydrov, O. A.; Van Voorhis, T. J. Chem. Phys. 2010, 133, 244103
Hujo, W.; Grimme, S. J. Chem. Theory Comput. 2011, 7, 3866 
   

----- Orbital basis set information -----
Your calculation utilizes the basis: def2-TZVPPD
   F. Weigend and R. Ahlrichs, Phys. Chem. Chem. Phys. 7, 3297 (2005).
   D. Rappoport and F. Furche, J. Chem. Phys. 133 134105 (2010).

----- AuxJK basis set information -----
Your calculation utilizes the auxiliary basis: def2/JK
   H-Ba, Hf-Rn: F. Weigend, J. Comput. Chem. 29, 167 (2008).

cite the ECPs for Au [Def2-ECP] as follows:
Ce-Yb(ecp-28): M. Dolg, H. Stoll, H.Preuss, J. Chem. Phys., 1989, 90, 1730-1734.
Y-Cd(ecp-28), Hf-Hg(ecp-46): D. Andrae,U. Haeussermann, M. Dolg, H. Stoll, H. Preuss, Theor. Chim. Acta, 1990, 77, 123-141.
In-Sb(ecp-28), Tl-Bi(ecp-46): B. Metz, H. Stoll, M. Dolg, J. Chem. Phys., 2000, 113, 2563-2569.
Te-Xe(ecp-28), Po-Rn(ecp-46): K. A. Peterson, D. Figgen, E. Goll, H. Stoll, M. Dolg, J. Chem. Phys., 2003, 119, 11113-11123.
Rb(ecp-28), Cs(ecp-46): T. Leininger, A. Nicklass, W. Kuechle, H. Stoll, M. Dolg, A. Bergner, Chem. Phys. Lett., 1996, 255, 274-280.
Sr(ecp-28), Ba(ecp-46): M. Kaupp, P. V. Schleyer, H. Stoll and H. Preuss, J. Chem. Phys., 1991, 94, 1360-1366.
La(ecp-46): M. Dolg, H. Stoll, A. Savin, H. Preuss, Theor. Chim. Acta, 1989, 75, 173-194.
Lu(ecp-28): X. Cao, M. Dolg, J. Chem. Phys., 2001, 115, 7348-7355.

ECP parameters for Au [Def2-ECP] have been obtained from:
TURBOMOLE (7.0.2)

================================================================================
                                        WARNINGS
                       Please study these warnings very carefully!
================================================================================


WARNING: Geometry Optimization
  ===> : Switching off AutoStart
         For restart on a previous wavefunction, please use MOREAD

INFO   : the flag for use of LIBINT has been found!

================================================================================
                                       INPUT FILE
================================================================================
NAME = Au03C1_LIN.in
|  1> #
|  2> # Au03C1_LIN wB97X-V/Def2-TZVPPD
|  3> #
|  4> ! wb97x-v def2-tzvppd def2/jk grid4 nofinalgrid opt xyzfile numfreq numgrad
|  5> 
|  6> *xyz 1 1
|  7> Au       0.000000    0.000000    0.000000 
|  8> Au       0.000000    0.000000    2.576864 
|  9> Au       0.000000    0.000000   -2.576864 
| 10> *
| 11> 
| 12> %maxcore 5000
| 13> 
| 14> %pal
| 15> nprocs = 24
| 16> end
| 17> 
| 18> 
| 19>                          ****END OF INPUT****
================================================================================

                       *****************************
                       * Geometry Optimization Run *
                       *****************************

Geometry optimization settings:
Update method            Update   .... BFGS
Choice of coordinates    CoordSys .... Z-matrix Internals
Initial Hessian          InHess   .... Almoef's Model

Convergence Tolerances:
Energy Change            TolE     ....  5.0000e-06 Eh
Max. Gradient            TolMAXG  ....  3.0000e-04 Eh/bohr
RMS Gradient             TolRMSG  ....  1.0000e-04 Eh/bohr
Max. Displacement        TolMAXD  ....  4.0000e-03 bohr
RMS Displacement         TolRMSD  ....  2.0000e-03 bohr
Strict Convergence                ....  False
------------------------------------------------------------------------------
                        ORCA OPTIMIZATION COORDINATE SETUP
------------------------------------------------------------------------------

The optimization will be done in new redundant internal coordinates
Making redundant internal coordinates   ...  (new redundants) done
Evaluating the initial hessian          ...  (Almloef) done
Evaluating the coordinates              ...  done
Calculating the B-matrix                .... done
Calculating the G-matrix                .... done
Diagonalizing the G-matrix              .... done
The first mode is                       ....    0
The number of degrees of freedom        ....    4

    -----------------------------------------------------------------
                    Redundant Internal Coordinates


    -----------------------------------------------------------------
         Definition                    Initial Value    Approx d2E/dq
    -----------------------------------------------------------------
      1. B(Au  1,Au  0)                  2.5769         0.015465   
      2. B(Au  2,Au  0)                  2.5769         0.015465   
      3. L(Au  1,Au  0,Au  2, 2)       180.0000         0.160215   
      4. L(Au  1,Au  0,Au  2, 1)       180.0000         0.160215   
    -----------------------------------------------------------------

Number of atoms                         .... 3
Number of degrees of freedom            .... 4

         *************************************************************
         *                GEOMETRY OPTIMIZATION CYCLE   1            *
         *************************************************************
---------------------------------
CARTESIAN COORDINATES (ANGSTROEM)
---------------------------------
  Au     0.000000    0.000000    0.000000
  Au     0.000000    0.000000    2.576864
  Au     0.000000    0.000000   -2.576864

----------------------------
CARTESIAN COORDINATES (A.U.)
----------------------------
  NO LB      ZA    FRAG     MASS         X           Y           Z
   0 Au   19.0000*   0   196.966    0.000000    0.000000    0.000000
   1 Au   19.0000*   0   196.966    0.000000    0.000000    4.869567
   2 Au   19.0000*   0   196.966    0.000000    0.000000   -4.869567
* core charge reduced due to ECP

--------------------------------
INTERNAL COORDINATES (ANGSTROEM)
--------------------------------
 Au     0   0   0     0.000000000000     0.00000000     0.00000000
 Au     1   0   0     2.576864000000     0.00000000     0.00000000
 Au     1   2   0     2.576864000000   179.99999915     0.00000000

---------------------------
INTERNAL COORDINATES (A.U.)
---------------------------
 Au     0   0   0     0.000000000000     0.00000000     0.00000000
 Au     1   0   0     4.869567244361     0.00000000     0.00000000
 Au     1   2   0     4.869567244361   179.99999915     0.00000000

---------------------
BASIS SET INFORMATION
---------------------
There are 1 groups of distinct atoms

 Group   1 Type Au  : 8s8p6d2f1g contracted to 6s5p3d2f1g pattern {311111/41111/411/11/1}

Atom   0Au   basis set group =>   1
Atom   1Au   basis set group =>   1
Atom   2Au   basis set group =>   1
----------------------------------
AUXILIARY/JK BASIS SET INFORMATION
----------------------------------
There are 1 groups of distinct atoms

 Group   1 Type Au  : 13s12p11d9f5g3h2i contracted to 13s11p10d8f4g3h2i pattern {1111111111111/21111111111/2111111111/21111111/2111/111/11}

Atom   0Au   basis set group =>   1
Atom   1Au   basis set group =>   1
Atom   2Au   basis set group =>   1
-------------------------
ECP PARAMETER INFORMATION
-------------------------

 Group 1, Type Au ECP Def2-ECP (replacing 60 core electrons, lmax=3)

Atom   0Au   ECP group =>   1
Atom   1Au   ECP group =>   1
Atom   2Au   ECP group =>   1



           ************************************************************
           *        Program running with 24 parallel MPI-processes    *
           *              working on a common directory               *
           ************************************************************
------------------------------------------------------------------------------
                           ORCA GTO INTEGRAL CALCULATION
------------------------------------------------------------------------------

                         BASIS SET STATISTICS AND STARTUP INFO

 # of primitive gaussian shells          ...   75
 # of primitive gaussian functions       ...  255
 # of contracted shells                  ...   51
 # of contracted basis functions         ...  177
 Highest angular momentum                ...    4
 Maximum contraction depth               ...    4
 Integral package used                   ... LIBINT
 Integral threshhold            Thresh   ...  2.500e-11
 Primitive cut-off              TCut     ...  2.500e-12


------------------------------ INTEGRAL EVALUATION ----------------------------


 * One electron integrals 

   ECP integrals                         ... done
 Pre-screening matrix                    ... done
 Shell pair data                         ... done (   0.000 sec)



           ************************************************************
           *        Program running with 24 parallel MPI-processes    *
           *              working on a common directory               *
           ************************************************************
-------------------------------------------------------------------------------
                                 ORCA SCF
-------------------------------------------------------------------------------

------------
SCF SETTINGS
------------
Hamiltonian:
 Density Functional     Method          .... DFT(GTOs)
 Exchange Functional    Exchange        .... WB97X-V
 Correlation Functional Correlation     .... WB97X-V
 Gradients option       PostSCFGGA      .... off
 Hybrid DFT is turned on
   Fraction HF Exchange ScalHFX         ....  0.167000
   Scaling of DF-GGA-X  ScalDFX         ....  0.000000
   Scaling of DF-GGA-C  ScalDFC         ....  1.000000
   Scaling of DF-LDA-C  ScalLDAC        ....  1.000000
   Perturbative correction              ....  0.000000
   Density functional embedding theory  .... OFF
 Long-range corrected/Screened/Range-Separated Hybrid DFT is turned on
   Amount of maximum screened exact exchange              ....  0.833000
   Range separation parameter mu (erf(mu*r12)/r12)        ....  0.300000
   NL short-range parameter             ....  6.000000
   NL long-range parameter              ....  0.010000


General Settings:
 Integral files         IntName         .... Au03C1_LIN
 Hartree-Fock type      HFTyp           .... RHF
 Total Charge           Charge          ....    1
 Multiplicity           Mult            ....    1
 Number of Electrons    NEL             ....   56
 Basis Dimension        Dim             ....  177
 Nuclear Repulsion      ENuc            ....    185.3347442825 Eh

Convergence Acceleration:
 DIIS                   CNVDIIS         .... on
   Start iteration      DIISMaxIt       ....    12
   Startup error        DIISStart       ....  0.200000
   # of expansion vecs  DIISMaxEq       ....     5
   Bias factor          DIISBfac        ....   1.050
   Max. coefficient     DIISMaxC        ....  10.000
 Newton-Raphson         CNVNR           .... off
 SOSCF                  CNVSOSCF        .... off
 Level Shifting         CNVShift        .... on
   Level shift para.    LevelShift      ....    0.2500
   Turn off err/grad.   ShiftErr        ....    0.0010
 Zerner damping         CNVZerner       .... off
 Static damping         CNVDamp         .... on
   Fraction old density DampFac         ....    0.7000
   Max. Damping (<1)    DampMax         ....    0.9800
   Min. Damping (>=0)   DampMin         ....    0.0000
   Turn off err/grad.   DampErr         ....    0.1000
 Fernandez-Rico         CNVRico         .... off

SCF Procedure:
 Maximum # iterations   MaxIter         ....   125
 SCF integral mode      SCFMode         .... Direct
   Integral package                     .... LIBINT
 Reset frequency        DirectResetFreq ....    20
 Integral Threshold     Thresh          ....  2.500e-11 Eh
 Primitive CutOff       TCut            ....  2.500e-12 Eh

Convergence Tolerance:
 Convergence Check Mode ConvCheckMode   .... Total+1el-Energy
 Convergence forced     ConvForced      .... 0
 Energy Change          TolE            ....  1.000e-08 Eh
 1-El. energy change                    ....  1.000e-05 Eh
 DIIS Error             TolErr          ....  5.000e-07


Diagonalization of the overlap matrix:
Smallest eigenvalue                        ... 7.965e-04
Time for diagonalization                   ...    0.007 sec
Threshold for overlap eigenvalues          ... 1.000e-08
Number of eigenvalues below threshold      ... 0
Time for construction of square roots      ...    0.003 sec
Total time needed                          ...    0.011 sec

-------------------
DFT GRID GENERATION
-------------------

General Integration Accuracy     IntAcc      ...  4.670
Radial Grid Type                 RadialGrid  ... Gauss-Chebyshev
Angular Grid (max. acc.)         AngularGrid ... Lebedev-302
Angular grid pruning method      GridPruning ... 3 (G Style)
Weight generation scheme         WeightScheme... Becke
Basis function cutoff            BFCut       ...    1.0000e-11
Integration weight cutoff        WCut        ...    1.0000e-14
Grids for H and He will be reduced by one unit

# of grid points (after initial pruning)     ...  34956 (   0.0 sec)
# of grid points (after weights+screening)   ...  34728 (   0.0 sec)
nearest neighbour list constructed           ...    0.0 sec
Grid point re-assignment to atoms done       ...    0.0 sec
Grid point division into batches done        ...    0.3 sec
Reduced shell lists constructed in    0.3 sec

Total number of grid points                  ...    34728
Total number of batches                      ...      545
Average number of points per batch           ...       63
Average number of grid points per atom       ...    11576
Average number of shells per batch           ...    14.46 (28.35%)
Average number of basis functions per batch  ...    44.38 (25.07%)
Average number of large shells per batch     ...    10.50 (72.62%)
Average number of large basis fcns per batch ...    29.00 (65.35%)
Maximum spatial batch extension              ...  37.74, 37.74,  4.83 au
Average spatial batch extension              ...   0.54,  0.53,  0.19 au

Time for grid setup =    0.436 sec

------------------------------
INITIAL GUESS: MODEL POTENTIAL
------------------------------
Loading Hartree-Fock densities                     ... done
  calling /sw/apps/orca/orca_4_2_0_linux_x86-64_openmpi314/orca Au03C1_LIN_atom79.inp > Au03C1_LIN_atom79.out in order to generate an atomic fitting density for atom 0 (Au with ECP) on-the-fly... 
    atom 0 (Au), assumed electronic state with S=2: 1s2 2s2 2p6 3s2 3p6 4s2 3d10 4p6 5s2 4d10 5p6 6s1 4f14 5d10           ... done
Calculating cut-offs                               ... done
Setting up the integral package                    ... done
Initializing the effective Hamiltonian             ... done
Starting the Coulomb interaction                   ... done (   0.0 sec)
Reading the grid                                   ... done
Mapping shells                                     ... done
Starting the XC term evaluation                    ... done (   0.0 sec)
  promolecular density results
     # of electrons  =    237.007918993
     EX              =   -878.476715074
     EC              =    -18.759534582
     EX+EC           =   -897.236249657
Transforming the Hamiltonian                       ... done (   0.0 sec)
Diagonalizing the Hamiltonian                      ... done (   0.0 sec)
Back transforming the eigenvectors                 ... done (   0.0 sec)
Now organizing SCF variables                       ... done
                      ------------------
                      INITIAL GUESS DONE (   1.6 sec)
                      ------------------
--------------
SCF ITERATIONS
--------------
ITER       Energy         Delta-E        Max-DP      RMS-DP      [F,P]     Damp
               ***  Starting incremental Fock matrix formation  ***
  0   -406.0757350926   0.000000000000 0.11875904  0.00334732  0.4490977 0.7000
  1   -406.3644879254  -0.288752832789 0.09754000  0.00262610  0.3314167 0.7000
  2   -406.5208660870  -0.156378161562 0.07004669  0.00182473  0.2420472 0.7000
                               ***Turning on DIIS***
  3   -406.6166706580  -0.095804571064 0.06953894  0.00134184  0.1742105 0.7000
  4   -406.6820127724  -0.065342114414 0.06756935  0.00115033  0.1242129 0.7000
  5   -406.7282386242  -0.046225851761 0.16559185  0.00296278  0.0865329 0.0000
  6   -406.8414561660  -0.113217541794 0.02524466  0.00039100  0.0099000 0.0000
  7   -406.8425228164  -0.001066650394 0.01870073  0.00030484  0.0065610 0.0000
  8   -406.8430531952  -0.000530378798 0.01803504  0.00024956  0.0043896 0.0000
  9   -406.8433214438  -0.000268248612 0.00703364  0.00012763  0.0024998 0.0000
 10   -406.8434213939  -0.000099950110 0.00471163  0.00008018  0.0010939 0.0000
 11   -406.8434497380  -0.000028344071 0.00365192  0.00006946  0.0006191 0.0000
 12   -406.8434603735  -0.000010635501 0.00147671  0.00001891  0.0003439 0.0000
 13   -406.8434614664  -0.000001092890 0.00119268  0.00001356  0.0001324 0.0000
 14   -406.8434619242  -0.000000457790 0.00082564  0.00000906  0.0001292 0.0000
 15   -406.8434620067  -0.000000082565 0.00017976  0.00000253  0.0001141 0.0000
 16   -406.8434620781  -0.000000071357 0.00021528  0.00000248  0.0000245 0.0000
 17   -406.8434620869  -0.000000008850 0.00002269  0.00000035  0.0000092 0.0000
 18   -406.8434620882  -0.000000001270 0.00001406  0.00000023  0.0000054 0.0000
 19   -406.8434620881   0.000000000124 0.00001241  0.00000026  0.0000017 0.0000
               *** Restarting incremental Fock matrix formation ***
                                   *** Resetting DIIS ***
 20   -406.8434620859   0.000000002181 0.00000539  0.00000009  0.0000015 0.0000
 21   -406.8434620857   0.000000000176 0.00000343  0.00000006  0.0000030 0.0000
                 **** Energy Check signals convergence ****

               *****************************************************
               *                     SUCCESS                       *
               *           SCF CONVERGED AFTER  22 CYCLES          *
               *****************************************************


Setting up the DFT-NL grid :

General Integration Accuracy     IntAcc      ...  4.340
Radial Grid Type                 RadialGrid  ... Gauss-Chebyshev
Angular Grid (max. acc.)         AngularGrid ... Lebedev-110
Angular grid pruning method      GridPruning ... 3 (G Style)
Weight generation scheme         WeightScheme... Becke
Basis function cutoff            BFCut       ...    1.0000e-11
Integration weight cutoff        WCut        ...    1.0000e-14
Grids for H and He will be reduced by one unit

# of grid points (after initial pruning)     ...  10590 (   0.0 sec)
# of grid points (after weights+screening)   ...  10522 (   0.0 sec)
nearest neighbour list constructed           ...    0.0 sec
Grid point re-assignment to atoms done       ...    0.0 sec
Grid point division into batches done        ...    0.0 sec
Reduced shell lists constructed in    0.0 sec

Total number of grid points                  ...    10522
Total number of batches                      ...      167
Average number of points per batch           ...       63
Average number of grid points per atom       ...     3507
Average number of shells per batch           ...    19.12 (37.50%)
Average number of basis functions per batch  ...    61.88 (34.96%)
Average number of large shells per batch     ...    15.75 (82.35%)
Average number of large basis fcns per batch ...    45.75 (73.94%)
Maximum spatial batch extension              ...  26.72, 49.51,  4.65 au
Average spatial batch extension              ...   0.67,  1.04,  0.18 au

Final grid set up in    0.0 sec

-------------------------------------------------------------------------------
                         DFT-NL dispersion correction                          
-------------------------------------------------------------------------------

SC Energy -406.843462085 
NL    Energy 0.210013131 
SC+NL Energy -406.633448954 
NL done in    0.0 sec
-------------------------------------------------------------------------------

----------------
TOTAL SCF ENERGY
----------------

Total Energy       :         -406.63344895 Eh          -11065.05868 eV

Components:
Nuclear Repulsion  :          185.33474428 Eh            5043.21478 eV
Electronic Energy  :         -591.96819324 Eh          -16108.27347 eV
One Electron Energy:        -1071.94245160 Eh          -29169.03703 eV
Two Electron Energy:          479.97425837 Eh           13060.76357 eV

Virial components:
Potential Energy   :         -543.24849352 Eh          -14782.54304 eV
Kinetic Energy     :          136.61504456 Eh            3717.48436 eV
Virial Ratio       :            3.97649099


DFT components:
N(Alpha)           :       27.999994765047 electrons
N(Beta)            :       27.999994765047 electrons
N(Total)           :       55.999989530094 electrons
E(X)               :      -22.402464425491 Eh       
E(C)               :       -2.555721237250 Eh       
NL Energy, E(C,NL) :        0.210013130963 Eh       
E(XC)              :      -24.748172531778 Eh       
DFET-embed. en.    :        0.000000000000 Eh       

---------------
SCF CONVERGENCE
---------------

  Last Energy change         ...    6.1306e-10  Tolerance :   1.0000e-08
  Last MAX-Density change    ...    2.3878e-06  Tolerance :   1.0000e-07
  Last RMS-Density change    ...    5.3589e-08  Tolerance :   5.0000e-09
  Last DIIS Error            ...    1.2210e-06  Tolerance :   5.0000e-07

             **** THE GBW FILE WAS UPDATED (Au03C1_LIN.gbw) ****
             **** DENSITY FILE WAS UPDATED (Au03C1_LIN.scfp) ****
             **** ENERGY FILE WAS UPDATED (Au03C1_LIN.en.tmp) ****
             **** THE GBW FILE WAS UPDATED (Au03C1_LIN.gbw) ****
             **** DENSITY FILE WAS UPDATED (Au03C1_LIN.scfp) ****
----------------
ORBITAL ENERGIES
----------------

  NO   OCC          E(Eh)            E(eV) 
   0   2.0000      -4.575371      -124.5022 
   1   2.0000      -4.515241      -122.8660 
   2   2.0000      -4.515238      -122.8659 
   3   2.0000      -2.761370       -75.1407 
   4   2.0000      -2.756616       -75.0113 
   5   2.0000      -2.727661       -74.2234 
   6   2.0000      -2.702987       -73.5520 
   7   2.0000      -2.702071       -73.5271 
   8   2.0000      -2.695488       -73.3480 
   9   2.0000      -2.695254       -73.3416 
  10   2.0000      -2.675872       -72.8142 
  11   2.0000      -2.675848       -72.8135 
  12   2.0000      -0.775503       -21.1025 
  13   2.0000      -0.719188       -19.5701 
  14   2.0000      -0.697831       -18.9889 
  15   2.0000      -0.692089       -18.8327 
  16   2.0000      -0.691256       -18.8100 
  17   2.0000      -0.672303       -18.2943 
  18   2.0000      -0.654751       -17.8167 
  19   2.0000      -0.645177       -17.5561 
  20   2.0000      -0.642706       -17.4889 
  21   2.0000      -0.641599       -17.4588 
  22   2.0000      -0.641292       -17.4504 
  23   2.0000      -0.627960       -17.0877 
  24   2.0000      -0.627865       -17.0851 
  25   2.0000      -0.608162       -16.5489 
  26   2.0000      -0.582929       -15.8623 
  27   2.0000      -0.509895       -13.8749 
  28   0.0000      -0.422309       -11.4916 
  29   0.0000      -0.232557        -6.3282 
  30   0.0000      -0.148018        -4.0278 
  31   0.0000      -0.142708        -3.8833 
  32   0.0000      -0.122656        -3.3377 
  33   0.0000      -0.090445        -2.4611 
  34   0.0000      -0.086777        -2.3613 
  35   0.0000      -0.023860        -0.6493 
  36   0.0000      -0.019159        -0.5213 
  37   0.0000      -0.006950        -0.1891 
  38   0.0000       0.016158         0.4397 
  39   0.0000       0.029907         0.8138 
  40   0.0000       0.072406         1.9703 
  41   0.0000       0.076860         2.0915 
  42   0.0000       0.079493         2.1631 
  43   0.0000       0.114816         3.1243 
  44   0.0000       0.118918         3.2359 
  45   0.0000       0.130313         3.5460 
  46   0.0000       0.154788         4.2120 
  47   0.0000       0.161766         4.4019 
  48   0.0000       0.168043         4.5727 
  49   0.0000       0.168096         4.5741 
  50   0.0000       0.181129         4.9288 
  51   0.0000       0.217493         5.9183 
  52   0.0000       0.217577         5.9206 
  53   0.0000       0.231698         6.3048 
  54   0.0000       0.231707         6.3051 
  55   0.0000       0.236650         6.4396 
  56   0.0000       0.294092         8.0027 
  57   0.0000       0.294106         8.0030 
  58   0.0000       0.300371         8.1735 
  59   0.0000       0.331493         9.0204 
  60   0.0000       0.335551         9.1308 
  61   0.0000       0.421146        11.4600 
  62   0.0000       0.450400        12.2560 
  63   0.0000       0.456387        12.4189 
  64   0.0000       0.492277        13.3955 
  65   0.0000       0.520402        14.1609 
  66   0.0000       0.703913        19.1545 
  67   0.0000       0.801603        21.8127 
  68   0.0000       0.810300        22.0494 
  69   0.0000       0.910069        24.7642 
  70   0.0000       0.915825        24.9209 
  71   0.0000       0.915997        24.9255 
  72   0.0000       0.942430        25.6448 
  73   0.0000       0.944322        25.6963 
  74   0.0000       0.950670        25.8690 
  75   0.0000       0.959919        26.1207 
  76   0.0000       0.974814        26.5260 
  77   0.0000       0.983507        26.7626 
  78   0.0000       0.984444        26.7881 
  79   0.0000       0.987818        26.8799 
  80   0.0000       1.021107        27.7857 
  81   0.0000       1.021125        27.7862 
  82   0.0000       1.023285        27.8450 
  83   0.0000       1.023300        27.8454 
  84   0.0000       1.024276        27.8720 
  85   0.0000       1.024367        27.8744 
  86   0.0000       1.049570        28.5603 
  87   0.0000       1.085279        29.5320 
  88   0.0000       1.085718        29.5439 
  89   0.0000       1.128537        30.7091 
  90   0.0000       1.139100        30.9965 
  91   0.0000       1.149031        31.2667 
  92   0.0000       1.254564        34.1384 
  93   0.0000       1.263009        34.3682 
  94   0.0000       1.290769        35.1236 
  95   0.0000       1.311662        35.6921 
  96   0.0000       1.321989        35.9732 
  97   0.0000       1.338932        36.4342 
  98   0.0000       1.339109        36.4390 
  99   0.0000       1.340781        36.4845 
 100   0.0000       1.384885        37.6846 
 101   0.0000       1.385040        37.6889 
 102   0.0000       1.401480        38.1362 
 103   0.0000       1.420344        38.6495 
 104   0.0000       1.420554        38.6552 
 105   0.0000       1.507760        41.0282 
 106   0.0000       1.519414        41.3453 
 107   0.0000       1.572521        42.7905 
 108   0.0000       1.587093        43.1870 
 109   0.0000       1.747011        47.5386 
 110   0.0000       1.910580        51.9895 
 111   0.0000       1.959901        53.3316 
 112   0.0000       2.266986        61.6878 
 113   0.0000       2.598472        70.7080 
 114   0.0000       3.304705        89.9256 
 115   0.0000       3.324104        90.4535 
 116   0.0000       3.348809        91.1257 
 117   0.0000       3.349097        91.1336 
 118   0.0000       3.407082        92.7114 
 119   0.0000       3.407107        92.7121 
 120   0.0000       3.453004        93.9610 
 121   0.0000       3.453152        93.9650 
 122   0.0000       3.458293        94.1049 
 123   0.0000       3.458358        94.1067 
 124   0.0000       3.460455        94.1638 
 125   0.0000       3.460460        94.1639 
 126   0.0000       3.501341        95.2763 
 127   0.0000       3.512038        95.5674 
 128   0.0000       3.512165        95.5709 
 129   0.0000       3.516993        95.7022 
 130   0.0000       3.549865        96.5968 
 131   0.0000       3.648057        99.2687 
 132   0.0000       3.711397       100.9922 
 133   0.0000       3.729177       101.4761 
 134   0.0000       3.841567       104.5343 
 135   0.0000       3.939837       107.2084 
 136   0.0000       3.942223       107.2733 
 137   0.0000       3.943653       107.3123 
 138   0.0000       3.945035       107.3499 
 139   0.0000       3.957155       107.6797 
 140   0.0000       3.957838       107.6982 
 141   0.0000       3.958305       107.7110 
 142   0.0000       3.966781       107.9416 
 143   0.0000       3.973490       108.1242 
 144   0.0000       3.987504       108.5055 
 145   0.0000       3.989215       108.5521 
 146   0.0000       3.989628       108.5633 
 147   0.0000       3.989742       108.5664 
 148   0.0000       3.993399       108.6659 
 149   0.0000       3.993541       108.6698 
 150   0.0000       3.993702       108.6741 
 151   0.0000       3.994283       108.6900 
 152   0.0000       4.005881       109.0056 
 153   0.0000       4.005914       109.0065 
 154   0.0000       4.006282       109.0165 
 155   0.0000       4.006304       109.0171 
 156   0.0000       4.018483       109.3485 
 157   0.0000       4.036908       109.8498 
 158   0.0000       4.037476       109.8653 
 159   0.0000       4.053520       110.3019 
 160   0.0000       4.230578       115.1199 
 161   0.0000       4.262932       116.0003 
 162   0.0000      27.020578       735.2673 
 163   0.0000      27.038448       735.7536 
 164   0.0000      27.362331       744.5669 
 165   0.0000      27.377190       744.9712 
 166   0.0000      27.542318       749.4646 
 167   0.0000      27.561200       749.9784 
 168   0.0000      27.884792       758.7838 
 169   0.0000      28.185832       766.9755 
 170   0.0000      30.851344       839.5078 
 171   0.0000      43.754564      1190.6222 
 172   0.0000      44.061215      1198.9666 
 173   0.0000      44.406946      1208.3744 
 174   0.0000     204.917604      5576.0915 
 175   0.0000     205.063156      5580.0522 
 176   0.0000     205.189304      5583.4848 

                    ********************************
                    * MULLIKEN POPULATION ANALYSIS *
                    ********************************

-----------------------
MULLIKEN ATOMIC CHARGES
-----------------------
   0 Au:    0.337141
   1 Au:    0.331430
   2 Au:    0.331429
Sum of atomic charges:    1.0000000

--------------------------------
MULLIKEN REDUCED ORBITAL CHARGES
--------------------------------
  0 Aus       :     3.210105  s :     3.210105
      pz      :     2.326971  p :     6.366979
      px      :     2.016024
      py      :     2.023984
      dz2     :     1.936302  d :     9.068821
      dxz     :     1.778176
      dyz     :     1.354383
      dx2y2   :     2.000007
      dxy     :     1.999952
      f0      :     0.006184  f :     0.016590
      f+1     :     0.004197
      f-1     :     0.005536
      f+2     :     0.000304
      f-2     :     0.000315
      f+3     :     0.000026
      f-3     :     0.000027
      g0      :     0.000105  g :     0.000364
      g+1     :     0.000074
      g-1     :     0.000073
      g+2     :     0.000017
      g-2     :     0.000023
      g+3     :     0.000008
      g-3     :     0.000016
      g+4     :     0.000024
      g-4     :     0.000024
  1 Aus       :     3.264915  s :     3.264915
      pz      :     2.048920  p :     6.059193
      px      :     2.004746
      py      :     2.005527
      dz2     :     1.944001  d :     9.338866
      dxz     :     1.843556
      dyz     :     1.552111
      dx2y2   :     1.999610
      dxy     :     1.999587
      f0      :     0.002336  f :     0.005376
      f+1     :     0.001401
      f-1     :     0.001264
      f+2     :     0.000173
      f-2     :     0.000178
      f+3     :     0.000012
      f-3     :     0.000012
      g0      :     0.000061  g :     0.000220
      g+1     :     0.000047
      g-1     :     0.000047
      g+2     :     0.000014
      g-2     :     0.000016
      g+3     :     0.000005
      g-3     :     0.000007
      g+4     :     0.000011
      g-4     :     0.000011
  2 Aus       :     3.264915  s :     3.264915
      pz      :     2.048920  p :     6.059193
      px      :     2.004746
      py      :     2.005527
      dz2     :     1.944001  d :     9.338867
      dxz     :     1.843556
      dyz     :     1.552111
      dx2y2   :     1.999610
      dxy     :     1.999587
      f0      :     0.002336  f :     0.005376
      f+1     :     0.001401
      f-1     :     0.001264
      f+2     :     0.000173
      f-2     :     0.000178
      f+3     :     0.000012
      f-3     :     0.000012
      g0      :     0.000061  g :     0.000220
      g+1     :     0.000047
      g-1     :     0.000047
      g+2     :     0.000014
      g-2     :     0.000016
      g+3     :     0.000005
      g-3     :     0.000007
      g+4     :     0.000011
      g-4     :     0.000011


                     *******************************
                     * LOEWDIN POPULATION ANALYSIS *
                     *******************************

----------------------
LOEWDIN ATOMIC CHARGES
----------------------
   0 Au:    0.136432
   1 Au:    0.431784
   2 Au:    0.431784

-------------------------------
LOEWDIN REDUCED ORBITAL CHARGES
-------------------------------
  0 Aus       :     2.881511  s :     2.881511
      pz      :     2.771976  p :     6.818388
      px      :     2.019404
      py      :     2.027008
      dz2     :     2.012714  d :     9.135665
      dxz     :     1.773206
      dyz     :     1.349671
      dx2y2   :     2.000065
      dxy     :     2.000010
      f0      :     0.014604  f :     0.027592
      f+1     :     0.005528
      f-1     :     0.006727
      f+2     :     0.000334
      f-2     :     0.000345
      f+3     :     0.000026
      f-3     :     0.000027
      g0      :     0.000141  g :     0.000412
      g+1     :     0.000085
      g-1     :     0.000074
      g+2     :     0.000017
      g-2     :     0.000023
      g+3     :     0.000008
      g-3     :     0.000016
      g+4     :     0.000024
      g-4     :     0.000024
  1 Aus       :     3.047490  s :     3.047490
      pz      :     2.117641  p :     6.129382
      px      :     2.006273
      py      :     2.005468
      dz2     :     1.989762  d :     9.382280
      dxz     :     1.841426
      dyz     :     1.552021
      dx2y2   :     1.999547
      dxy     :     1.999524
      f0      :     0.004616  f :     0.008815
      f+1     :     0.002124
      f-1     :     0.001662
      f+2     :     0.000191
      f-2     :     0.000197
      f+3     :     0.000012
      f-3     :     0.000012
      g0      :     0.000085  g :     0.000249
      g+1     :     0.000052
      g-1     :     0.000047
      g+2     :     0.000014
      g-2     :     0.000016
      g+3     :     0.000005
      g-3     :     0.000007
      g+4     :     0.000011
      g-4     :     0.000011
  2 Aus       :     3.047490  s :     3.047490
      pz      :     2.117641  p :     6.129382
      px      :     2.006273
      py      :     2.005468
      dz2     :     1.989762  d :     9.382280
      dxz     :     1.841426
      dyz     :     1.552021
      dx2y2   :     1.999547
      dxy     :     1.999524
      f0      :     0.004616  f :     0.008815
      f+1     :     0.002124
      f-1     :     0.001662
      f+2     :     0.000191
      f-2     :     0.000197
      f+3     :     0.000012
      f-3     :     0.000012
      g0      :     0.000085  g :     0.000249
      g+1     :     0.000052
      g-1     :     0.000047
      g+2     :     0.000014
      g-2     :     0.000016
      g+3     :     0.000005
      g-3     :     0.000007
      g+4     :     0.000011
      g-4     :     0.000011


                      *****************************
                      * MAYER POPULATION ANALYSIS *
                      *****************************

  NA   - Mulliken gross atomic population
  ZA   - Total nuclear charge
  QA   - Mulliken gross atomic charge
  VA   - Mayer's total valence
  BVA  - Mayer's bonded valence
  FA   - Mayer's free valence

  ATOM       NA         ZA         QA         VA         BVA        FA
  0 Au    18.6629    19.0000     0.3371     2.6944     2.6944    -0.0000
  1 Au    18.6686    19.0000     0.3314     1.8028     1.8028     0.0000
  2 Au    18.6686    19.0000     0.3314     1.8028     1.8028    -0.0000

  Mayer bond orders larger than 0.100000
B(  0-Au,  1-Au) :   1.3472 B(  0-Au,  2-Au) :   1.3472 B(  1-Au,  2-Au) :   0.4556 


-------
TIMINGS
-------

Total SCF time: 0 days 0 hours 0 min 16 sec 

Total time                  ....      16.806 sec
Sum of individual times     ....      16.527 sec  ( 98.3%)

Fock matrix formation       ....      14.768 sec  ( 87.9%)
  XC integration            ....       1.011 sec  (  6.8% of F)
    Basis function eval.    ....       0.099 sec  (  9.8% of XC)
    Density eval.           ....       0.068 sec  (  6.7% of XC)
    XC-Functional eval.     ....       0.049 sec  (  4.9% of XC)
    XC-Potential eval.      ....       0.103 sec  ( 10.2% of XC)
Diagonalization             ....       0.102 sec  (  0.6%)
Density matrix formation    ....       0.016 sec  (  0.1%)
Population analysis         ....       0.005 sec  (  0.0%)
Initial guess               ....       1.117 sec  (  6.6%)
Orbital Transformation      ....       0.000 sec  (  0.0%)
Orbital Orthonormalization  ....       0.000 sec  (  0.0%)
DIIS solution               ....       0.047 sec  (  0.3%)
Grid generation             ....       0.471 sec  (  2.8%)

-------------------------   --------------------
FINAL SINGLE POINT ENERGY      -406.633448954154
-------------------------   --------------------


----------------------------------------------------------------------------
                           ORCA NUMERICAL GRADIENT
                              (24-process run)
----------------------------------------------------------------------------

I state                        ... 1
J state                        ... 0
Number of atoms                ... 3
Derivative's order of accuracy ... 2
Central differences            ... used
Number of displacements        ... 18
Numerical increment            ... 5.000e-03 bohr
Translation invariance         ... used

The output will be reduced. Please look at the following files:
SCF program output             ... >Au03C1_LIN.lastscf
Integral program output        ... >Au03C1_LIN.lastint
Gradient program output        ... >Au03C1_LIN.lastgrad


     Note:   There are more processes than displacements to do
     ===>:   Reducing number of processes to   6

             <<<Displacing   3/coordinate 3 (+)>>>
             <<<Displacing   2/coordinate 3 (+)>>>
             <<<Displacing   3/coordinate 2 (+)>>>
             <<<Displacing   3/coordinate 1 (+)>>>
             <<<Displacing   2/coordinate 1 (+)>>>
             <<<Displacing   2/coordinate 2 (+)>>>
             <<<Displacing   3/coordinate 2 (-)>>>
             <<<Displacing   2/coordinate 2 (-)>>>
             <<<Displacing   2/coordinate 1 (-)>>>
             <<<Displacing   3/coordinate 1 (-)>>>
             <<<Displacing   2/coordinate 3 (-)>>>
             <<<Displacing   3/coordinate 3 (-)>>>

------------------------------
CARTESIAN GRADIENT (NUMERICAL)
-------------------------------
   1   Au  :    0.000000014    0.000000040    0.000000006
   2   Au  :   -0.000000008   -0.000000013    0.039589332
   3   Au  :   -0.000000006   -0.000000027   -0.039589338

Norm of the cartesian gradient     ...    0.055987774
RMS gradient                       ...    0.018662591
MAX gradient                       ...    0.039589338

-------
TIMINGS
-------

Total numerical gradient time      ...      193.030 sec

------------------------------------------------------------------------------
                         ORCA GEOMETRY RELAXATION STEP
------------------------------------------------------------------------------

Reading the OPT-File                    .... done
Getting information on internals        .... done
Copying old internal coords+grads       .... done
Making the new internal coordinates     .... (new redundants).... done
Validating the new internal coordinates .... (new redundants).... done
Calculating the B-matrix                .... done
Calculating the G,G- and P matrices     .... done
Transforming gradient to internals      .... done
Projecting the internal gradient        .... done
Number of atoms                         ....   3
Number of internal coordinates          ....   4
Current Energy                          ....  -406.633448954 Eh
Current gradient norm                   ....     0.055987774 Eh/bohr
Maximum allowed component of the step   ....  0.300
Current trust radius                    ....  0.300
Evaluating the initial hessian          ....  (Almloef) done
Projecting the Hessian                  .... done
Forming the augmented Hessian           .... done
Diagonalizing the augmented Hessian     .... done
Last element of RFO vector              ....  0.753927146
Lowest eigenvalues of augmented Hessian:
 -0.048786701  0.015465048  0.064251749  0.160215172
Length of the computed step             ....  0.871381324
Warning: the length of the step is outside the trust region - taking restricted step instead
The input lambda is                     ....    -0.048787
   iter:   1  x=   -0.077105  g=   23.635323 f(x)=     0.669305
   iter:   2  x=   -0.112002  g=    7.903309 f(x)=     0.275804
   iter:   3  x=   -0.146004  g=    3.027074 f(x)=     0.102926
   iter:   4  x=   -0.166303  g=    1.489191 f(x)=     0.030229
   iter:   5  x=   -0.170973  g=    1.043917 f(x)=     0.004875
   iter:   6  x=   -0.171161  g=    0.967418 f(x)=     0.000182
   iter:   7  x=   -0.171161  g=    0.964501 f(x)=     0.000000
   iter:   8  x=   -0.171161  g=    0.964496 f(x)=     0.000000
   iter:   9  x=   -0.171161  g=    0.964496 f(x)=     0.000000
The output lambda is                    ....    -0.171161 (9 iterations)
The final length of the internal step   ....  0.300000000
Converting the step to cartesian space:
 Initial RMS(Int)=    0.1500000000
Transforming coordinates:
 Iter   0:  RMS(Cart)=    0.1000000000 RMS(Int)=    0.1500000000
 Iter   1:  RMS(Cart)=    0.0000000044 RMS(Int)=    0.0000000082
done
Storing new coordinates                 .... done

                                .--------------------.
          ----------------------|Geometry convergence|-------------------------
          Item                value                   Tolerance       Converged
          ---------------------------------------------------------------------
          RMS gradient        0.0279938872            0.0001000000      NO
          MAX gradient        0.0395893378            0.0003000000      NO
          RMS step            0.1500000000            0.0020000000      NO
          MAX step            0.2121320498            0.0040000000      NO
          ........................................................
          Max(Bonds)      0.1123      Max(Angles)    0.00
          Max(Dihed)        0.00      Max(Improp)    0.00
          ---------------------------------------------------------------------

The optimization has not yet converged - more geometry cycles are needed


    ---------------------------------------------------------------------------
                         Redundant Internal Coordinates
                            (Angstroem and degrees)

        Definition                    Value    dE/dq     Step     New-Value
    ----------------------------------------------------------------------------
     1. B(Au  1,Au  0)                2.5769  0.039589 -0.1123    2.4646   
     2. B(Au  2,Au  0)                2.5769  0.039589 -0.1123    2.4646   
     3. L(Au  1,Au  0,Au  2, 2)       180.00 -0.000000    0.00    180.00   
     4. L(Au  1,Au  0,Au  2, 1)       180.00  0.000000   -0.00    180.00   
    ----------------------------------------------------------------------------

         *************************************************************
         *                GEOMETRY OPTIMIZATION CYCLE   2            *
         *************************************************************
---------------------------------
CARTESIAN COORDINATES (ANGSTROEM)
---------------------------------
  Au    -0.000000   -0.000000   -0.000000
  Au     0.000000    0.000000    2.464609
  Au     0.000000    0.000000   -2.464609

----------------------------
CARTESIAN COORDINATES (A.U.)
----------------------------
  NO LB      ZA    FRAG     MASS         X           Y           Z
   0 Au   19.0000*   0   196.966   -0.000000   -0.000000   -0.000000
   1 Au   19.0000*   0   196.966    0.000000    0.000000    4.657435
   2 Au   19.0000*   0   196.966    0.000000    0.000000   -4.657435
* core charge reduced due to ECP

--------------------------------
INTERNAL COORDINATES (ANGSTROEM)
--------------------------------
 Au     0   0   0     0.000000000000     0.00000000     0.00000000
 Au     1   0   0     2.464608570440     0.00000000     0.00000000
 Au     1   2   0     2.464608554097   179.99999730     0.00000000

---------------------------
INTERNAL COORDINATES (A.U.)
---------------------------
 Au     0   0   0     0.000000000000     0.00000000     0.00000000
 Au     1   0   0     4.657435225447     0.00000000     0.00000000
 Au     1   2   0     4.657435194562   179.99999730     0.00000000



           ************************************************************
           *        Program running with 24 parallel MPI-processes    *
           *              working on a common directory               *
           ************************************************************


           ************************************************************
           *        Program running with 24 parallel MPI-processes    *
           *              working on a common directory               *
           ************************************************************

Diagonalization of the overlap matrix:
Smallest eigenvalue                        ... 5.758e-04
Time for diagonalization                   ...    0.007 sec
Threshold for overlap eigenvalues          ... 1.000e-08
Number of eigenvalues below threshold      ... 0
Time for construction of square roots      ...    0.004 sec
Total time needed                          ...    0.011 sec

-------------------
DFT GRID GENERATION
-------------------

General Integration Accuracy     IntAcc      ...  4.670
Radial Grid Type                 RadialGrid  ... Gauss-Chebyshev
Angular Grid (max. acc.)         AngularGrid ... Lebedev-302
Angular grid pruning method      GridPruning ... 3 (G Style)
Weight generation scheme         WeightScheme... Becke
Basis function cutoff            BFCut       ...    1.0000e-11
Integration weight cutoff        WCut        ...    1.0000e-14
Grids for H and He will be reduced by one unit

# of grid points (after initial pruning)     ...  34956 (   0.0 sec)
# of grid points (after weights+screening)   ...  34728 (   0.0 sec)
nearest neighbour list constructed           ...    0.0 sec
Grid point re-assignment to atoms done       ...    0.0 sec
Grid point division into batches done        ...    0.3 sec
Reduced shell lists constructed in    0.3 sec

Total number of grid points                  ...    34728
Total number of batches                      ...      543
Average number of points per batch           ...       63
Average number of grid points per atom       ...    11576
Average number of shells per batch           ...    15.17 (29.74%)
Average number of basis functions per batch  ...    48.58 (27.45%)
Average number of large shells per batch     ...    10.50 (69.23%)
Average number of large basis fcns per batch ...    28.83 (59.35%)
Maximum spatial batch extension              ...  37.74, 37.74,  4.61 au
Average spatial batch extension              ...   0.53,  0.54,  0.18 au

Time for grid setup =    0.397 sec

--------------
SCF ITERATIONS
--------------
ITER       Energy         Delta-E        Max-DP      RMS-DP      [F,P]     Damp
               ***  Starting incremental Fock matrix formation  ***
  0   -406.8532390024   0.000000000000 0.00677330  0.00015800  0.2129476 0.7000
  1   -406.8537992955  -0.000560293103 0.00646670  0.00014689  0.1493250 0.7000
                               ***Turning on DIIS***
  2   -406.8542085160  -0.000409220522 0.00518561  0.00011769  0.1046299 0.7000
  3   -406.8545082171  -0.000299701048 0.01602607  0.00034095  0.0733195 0.0000
  4   -406.8552826257  -0.000774408611 0.00602971  0.00009058  0.0007914 0.0000
  5   -406.8553045724  -0.000021946724 0.00237477  0.00003524  0.0006246 0.0000
  6   -406.8553076404  -0.000003067989 0.00271094  0.00003291  0.0006045 0.0000
  7   -406.8553113118  -0.000003671349 0.00081786  0.00001221  0.0003284 0.0000
  8   -406.8553118984  -0.000000586688 0.00014731  0.00000444  0.0000883 0.0000
  9   -406.8553120225  -0.000000124014 0.00023988  0.00000538  0.0000531 0.0000
 10   -406.8553121941  -0.000000171664 0.00029277  0.00000642  0.0000958 0.0000
 11   -406.8553120078   0.000000186290 0.00019351  0.00000430  0.0000437 0.0000
 12   -406.8553119639   0.000000043910 0.00004902  0.00000121  0.0000093 0.0000
 13   -406.8553119623   0.000000001590 0.00000909  0.00000014  0.0000060 0.0000
 14   -406.8553119622   0.000000000121 0.00001857  0.00000021  0.0000044 0.0000
 15   -406.8553119614   0.000000000778 0.00000471  0.00000007  0.0000016 0.0000
 16   -406.8553119612   0.000000000250 0.00000383  0.00000009  0.0000016 0.0000
                 **** Energy Check signals convergence ****

               *****************************************************
               *                     SUCCESS                       *
               *           SCF CONVERGED AFTER  17 CYCLES          *
               *****************************************************


Setting up the DFT-NL grid :

General Integration Accuracy     IntAcc      ...  4.340
Radial Grid Type                 RadialGrid  ... Gauss-Chebyshev
Angular Grid (max. acc.)         AngularGrid ... Lebedev-110
Angular grid pruning method      GridPruning ... 3 (G Style)
Weight generation scheme         WeightScheme... Becke
Basis function cutoff            BFCut       ...    1.0000e-11
Integration weight cutoff        WCut        ...    1.0000e-14
Grids for H and He will be reduced by one unit

# of grid points (after initial pruning)     ...  10590 (   0.0 sec)
# of grid points (after weights+screening)   ...  10518 (   0.0 sec)
nearest neighbour list constructed           ...    0.0 sec
Grid point re-assignment to atoms done       ...    0.0 sec
Grid point division into batches done        ...    0.0 sec
Reduced shell lists constructed in    0.0 sec

Total number of grid points                  ...    10518
Total number of batches                      ...      166
Average number of points per batch           ...       63
Average number of grid points per atom       ...     3506
Average number of shells per batch           ...    20.00 (39.22%)
Average number of basis functions per batch  ...    65.75 (37.15%)
Average number of large shells per batch     ...    16.25 (81.25%)
Average number of large basis fcns per batch ...    49.25 (74.90%)
Maximum spatial batch extension              ...  26.72, 49.51,  4.64 au
Average spatial batch extension              ...   0.68,  1.04,  0.19 au

Final grid set up in    0.0 sec

-------------------------------------------------------------------------------
                         DFT-NL dispersion correction                          
-------------------------------------------------------------------------------

SC Energy -406.855311961 
NL    Energy 0.209036726 
SC+NL Energy -406.646275234 
NL done in    0.0 sec
-------------------------------------------------------------------------------
Total Energy       :         -406.64627523 Eh          -11065.40770 eV
  Last Energy change         ...    4.3389e-10  Tolerance :   1.0000e-08
  Last MAX-Density change    ...    2.5374e-06  Tolerance :   1.0000e-07
             **** THE GBW FILE WAS UPDATED (Au03C1_LIN.gbw) ****
             **** DENSITY FILE WAS UPDATED (Au03C1_LIN.scfp) ****
             **** ENERGY FILE WAS UPDATED (Au03C1_LIN.en.tmp) ****
             **** THE GBW FILE WAS UPDATED (Au03C1_LIN.gbw) ****
             **** DENSITY FILE WAS UPDATED (Au03C1_LIN.scfp) ****
Total SCF time: 0 days 0 hours 0 min 12 sec 

-------------------------   --------------------
FINAL SINGLE POINT ENERGY      -406.646275234247
-------------------------   --------------------


----------------------------------------------------------------------------
                           ORCA NUMERICAL GRADIENT
                              (24-process run)
----------------------------------------------------------------------------

I state                        ... 1
J state                        ... 0
Number of atoms                ... 3
Derivative's order of accuracy ... 2
Central differences            ... used
Number of displacements        ... 18
Numerical increment            ... 5.000e-03 bohr
Translation invariance         ... used

The output will be reduced. Please look at the following files:
SCF program output             ... >Au03C1_LIN.lastscf
Integral program output        ... >Au03C1_LIN.lastint
Gradient program output        ... >Au03C1_LIN.lastgrad


     Note:   There are more processes than displacements to do
     ===>:   Reducing number of processes to   6

             <<<Displacing   3/coordinate 3 (+)>>>
             <<<Displacing   2/coordinate 1 (+)>>>
             <<<Displacing   3/coordinate 2 (+)>>>
             <<<Displacing   2/coordinate 2 (+)>>>
             <<<Displacing   2/coordinate 3 (+)>>>
             <<<Displacing   3/coordinate 1 (+)>>>
             <<<Displacing   2/coordinate 1 (-)>>>
             <<<Displacing   3/coordinate 1 (-)>>>
             <<<Displacing   2/coordinate 2 (-)>>>
             <<<Displacing   2/coordinate 3 (-)>>>
             <<<Displacing   3/coordinate 3 (-)>>>
             <<<Displacing   3/coordinate 2 (-)>>>

------------------------------
CARTESIAN GRADIENT (NUMERICAL)
-------------------------------
   1   Au  :    0.000000945    0.000000534    0.000000002
   2   Au  :    0.000000096    0.000000010    0.018772987
   3   Au  :   -0.000001041   -0.000000544   -0.018772989

Norm of the cartesian gradient     ...    0.026549014
RMS gradient                       ...    0.008849671
MAX gradient                       ...    0.018772989

-------
TIMINGS
-------

Total numerical gradient time      ...      267.055 sec

------------------------------------------------------------------------------
                         ORCA GEOMETRY RELAXATION STEP
------------------------------------------------------------------------------

Reading the OPT-File                    .... done
Getting information on internals        .... done
Copying old internal coords+grads       .... done
Making the new internal coordinates     .... (new redundants).... done
Validating the new internal coordinates .... (new redundants).... done
Calculating the B-matrix                .... done
Calculating the G,G- and P matrices     .... done
Transforming gradient to internals      .... done
Projecting the internal gradient        .... done
Number of atoms                         ....   3
Number of internal coordinates          ....   4
Current Energy                          ....  -406.646275234 Eh
Current gradient norm                   ....     0.026549014 Eh/bohr
Maximum allowed component of the step   ....  0.300
Current trust radius                    ....  0.300
Updating the Hessian (BFGS)             .... done
Forming the augmented Hessian           .... done
Diagonalizing the augmented Hessian     .... done
Last element of RFO vector              ....  0.969406884
Lowest eigenvalues of augmented Hessian:
 -0.006722362  0.015465048  0.104851563  0.160215172
Length of the computed step             ....  0.253205703
The final length of the internal step   ....  0.253205703
Converting the step to cartesian space:
 Initial RMS(Int)=    0.1266028516
Transforming coordinates:
 Iter   0:  RMS(Cart)=    0.0844019010 RMS(Int)=    0.1266028515
 Iter   1:  RMS(Cart)=    0.0000006355 RMS(Int)=    0.0000005209
 Iter   2:  RMS(Cart)=    0.0000004938 RMS(Int)=    0.0000004054
 Iter   3:  RMS(Cart)=    0.0000003834 RMS(Int)=    0.0000003144
 Iter   4:  RMS(Cart)=    0.0000002978 RMS(Int)=    0.0000002444
 Iter   5:  RMS(Cart)=    0.0000002313 RMS(Int)=    0.0000001898
 Iter   6:  RMS(Cart)=    0.0000001797 RMS(Int)=    0.0000001474
 Iter   7:  RMS(Cart)=    0.0000001396 RMS(Int)=    0.0000001145
 Iter   8:  RMS(Cart)=    0.0000001084 RMS(Int)=    0.0000000890
 Iter   9:  RMS(Cart)=    0.0000000842 RMS(Int)=    0.0000000690
done
Storing new coordinates                 .... done

                                .--------------------.
          ----------------------|Geometry convergence|-------------------------
          Item                value                   Tolerance       Converged
          ---------------------------------------------------------------------
          Energy change      -0.0128262801            0.0000050000      NO
          RMS gradient        0.0132745069            0.0001000000      NO
          MAX gradient        0.0187729887            0.0003000000      NO
          RMS step            0.1266028516            0.0020000000      NO
          MAX step            0.1790434857            0.0040000000      NO
          ........................................................
          Max(Bonds)      0.0947      Max(Angles)    0.00
          Max(Dihed)        0.00      Max(Improp)    0.00
          ---------------------------------------------------------------------

The optimization has not yet converged - more geometry cycles are needed


    ---------------------------------------------------------------------------
                         Redundant Internal Coordinates
                            (Angstroem and degrees)

        Definition                    Value    dE/dq     Step     New-Value
    ----------------------------------------------------------------------------
     1. B(Au  1,Au  0)                2.4646  0.018773 -0.0947    2.3699   
     2. B(Au  2,Au  0)                2.4646  0.018773 -0.0947    2.3699   
     3. L(Au  1,Au  0,Au  2, 2)       180.00 -0.000000    0.00    180.00   
     4. L(Au  1,Au  0,Au  2, 1)       180.00  0.000000   -0.00    180.00   
    ----------------------------------------------------------------------------

         *************************************************************
         *                GEOMETRY OPTIMIZATION CYCLE   3            *
         *************************************************************


           ************************************************************
           *        Program running with 24 parallel MPI-processes    *
           *              working on a common directory               *
           ************************************************************


           ************************************************************
           *        Program running with 24 parallel MPI-processes    *
           *              working on a common directory               *
           ************************************************************

Diagonalization of the overlap matrix:
Smallest eigenvalue                        ... 4.350e-04
Time for diagonalization                   ...    0.008 sec
Threshold for overlap eigenvalues          ... 1.000e-08
Number of eigenvalues below threshold      ... 0
Time for construction of square roots      ...    0.004 sec
Total time needed                          ...    0.012 sec

-------------------
DFT GRID GENERATION
-------------------

General Integration Accuracy     IntAcc      ...  4.670
Radial Grid Type                 RadialGrid  ... Gauss-Chebyshev
Angular Grid (max. acc.)         AngularGrid ... Lebedev-302
Angular grid pruning method      GridPruning ... 3 (G Style)
Weight generation scheme         WeightScheme... Becke
Basis function cutoff            BFCut       ...    1.0000e-11
Integration weight cutoff        WCut        ...    1.0000e-14
Grids for H and He will be reduced by one unit

# of grid points (after initial pruning)     ...  34956 (   0.0 sec)
# of grid points (after weights+screening)   ...  34708 (   0.0 sec)
nearest neighbour list constructed           ...    0.0 sec
Grid point re-assignment to atoms done       ...    0.0 sec
Grid point division into batches done        ...    0.4 sec
Reduced shell lists constructed in    0.4 sec

Total number of grid points                  ...    34708
Total number of batches                      ...      544
Average number of points per batch           ...       63
Average number of grid points per atom       ...    11569
Average number of shells per batch           ...    15.67 (30.72%)
Average number of basis functions per batch  ...    50.17 (28.34%)
Average number of large shells per batch     ...    10.75 (68.62%)
Average number of large basis fcns per batch ...    29.58 (58.97%)
Maximum spatial batch extension              ...  37.74, 37.74,  4.39 au
Average spatial batch extension              ...   0.52,  0.52,  0.18 au

Time for grid setup =    0.409 sec

--------------
SCF ITERATIONS
--------------
ITER       Energy         Delta-E        Max-DP      RMS-DP      [F,P]     Damp
               ***  Starting incremental Fock matrix formation  ***
  0   -406.8542637741   0.000000000000 0.00669646  0.00017107  0.1951776 0.7000
  1   -406.8548081067  -0.000544332585 0.00621528  0.00016040  0.1368564 0.7000
                               ***Turning on DIIS***
  2   -406.8552041370  -0.000396030336 0.01618814  0.00042816  0.0958886 0.0000
  3   -406.8562101051  -0.001005968038 0.00490469  0.00009895  0.0014898 0.0000
  4   -406.8562478412  -0.000037736197 0.00302661  0.00004719  0.0012248 0.0000
  5   -406.8562609879  -0.000013146683 0.00390882  0.00007294  0.0005229 0.0000
  6   -406.8562702781  -0.000009290177 0.00152687  0.00002053  0.0003825 0.0000
  7   -406.8562714576  -0.000001179451 0.00090270  0.00001279  0.0003638 0.0000
  8   -406.8562721553  -0.000000697709 0.00020511  0.00000379  0.0000699 0.0000
  9   -406.8562722112  -0.000000055951 0.00010056  0.00000244  0.0000205 0.0000
 10   -406.8562722404  -0.000000029211 0.00003460  0.00000078  0.0000359 0.0000
 11   -406.8562722527  -0.000000012224 0.00007285  0.00000161  0.0000414 0.0000
 12   -406.8562722293   0.000000023372 0.00007873  0.00000182  0.0000299 0.0000
 13   -406.8562722125   0.000000016741 0.00005492  0.00000128  0.0000176 0.0000
 14   -406.8562722065   0.000000006046 0.00005080  0.00000119  0.0000097 0.0000
 15   -406.8562722052   0.000000001308 0.00001601  0.00000026  0.0000029 0.0000
                 **** Energy Check signals convergence ****

               *****************************************************
               *                     SUCCESS                       *
               *           SCF CONVERGED AFTER  16 CYCLES          *
               *****************************************************


Setting up the DFT-NL grid :

General Integration Accuracy     IntAcc      ...  4.340
Radial Grid Type                 RadialGrid  ... Gauss-Chebyshev
Angular Grid (max. acc.)         AngularGrid ... Lebedev-110
Angular grid pruning method      GridPruning ... 3 (G Style)
Weight generation scheme         WeightScheme... Becke
Basis function cutoff            BFCut       ...    1.0000e-11
Integration weight cutoff        WCut        ...    1.0000e-14
Grids for H and He will be reduced by one unit

# of grid points (after initial pruning)     ...  10590 (   0.0 sec)
# of grid points (after weights+screening)   ...  10518 (   0.0 sec)
nearest neighbour list constructed           ...    0.0 sec
Grid point re-assignment to atoms done       ...    0.0 sec
Grid point division into batches done        ...    0.0 sec
Reduced shell lists constructed in    0.0 sec

Total number of grid points                  ...    10518
Total number of batches                      ...      166
Average number of points per batch           ...       63
Average number of grid points per atom       ...     3506
Average number of shells per batch           ...    21.75 (42.65%)
Average number of basis functions per batch  ...    72.00 (40.68%)
Average number of large shells per batch     ...    16.50 (75.86%)
Average number of large basis fcns per batch ...    51.00 (70.83%)
Maximum spatial batch extension              ...  27.21, 49.51,  4.32 au
Average spatial batch extension              ...   0.65,  1.03,  0.16 au

Final grid set up in    0.0 sec

-------------------------------------------------------------------------------
                         DFT-NL dispersion correction                          
-------------------------------------------------------------------------------

SC Energy -406.856272205 
NL    Energy 0.208151625 
SC+NL Energy -406.648120581 
NL done in    0.0 sec
-------------------------------------------------------------------------------
Total Energy       :         -406.64812058 Eh          -11065.45792 eV
  Last Energy change         ...   -3.0695e-11  Tolerance :   1.0000e-08
  Last MAX-Density change    ...    9.1254e-06  Tolerance :   1.0000e-07
             **** THE GBW FILE WAS UPDATED (Au03C1_LIN.gbw) ****
             **** DENSITY FILE WAS UPDATED (Au03C1_LIN.scfp) ****
             **** ENERGY FILE WAS UPDATED (Au03C1_LIN.en.tmp) ****
             **** THE GBW FILE WAS UPDATED (Au03C1_LIN.gbw) ****
             **** DENSITY FILE WAS UPDATED (Au03C1_LIN.scfp) ****
Total SCF time: 0 days 0 hours 0 min 13 sec 

-------------------------   --------------------
FINAL SINGLE POINT ENERGY      -406.648120580545
-------------------------   --------------------


----------------------------------------------------------------------------
                           ORCA NUMERICAL GRADIENT
                              (24-process run)
----------------------------------------------------------------------------

I state                        ... 1
J state                        ... 0
Number of atoms                ... 3
Derivative's order of accuracy ... 2
Central differences            ... used
Number of displacements        ... 18
Numerical increment            ... 5.000e-03 bohr
Translation invariance         ... used

The output will be reduced. Please look at the following files:
SCF program output             ... >Au03C1_LIN.lastscf
Integral program output        ... >Au03C1_LIN.lastint
Gradient program output        ... >Au03C1_LIN.lastgrad


     Note:   There are more processes than displacements to do
     ===>:   Reducing number of processes to   6

             <<<Displacing   2/coordinate 1 (+)>>>
             <<<Displacing   2/coordinate 3 (+)>>>
             <<<Displacing   3/coordinate 2 (+)>>>
             <<<Displacing   2/coordinate 2 (+)>>>
             <<<Displacing   3/coordinate 3 (+)>>>
             <<<Displacing   3/coordinate 1 (+)>>>
             <<<Displacing   2/coordinate 1 (-)>>>
             <<<Displacing   3/coordinate 1 (-)>>>
             <<<Displacing   2/coordinate 3 (-)>>>
             <<<Displacing   3/coordinate 3 (-)>>>
             <<<Displacing   2/coordinate 2 (-)>>>
             <<<Displacing   3/coordinate 2 (-)>>>

------------------------------
CARTESIAN GRADIENT (NUMERICAL)
-------------------------------
   1   Au  :   -0.000004944    0.000002337   -0.000000019
   2   Au  :    0.000002476   -0.000002315   -0.010684459
   3   Au  :    0.000002467   -0.000000023    0.010684478

Norm of the cartesian gradient     ...    0.015110122
RMS gradient                       ...    0.005036707
MAX gradient                       ...    0.010684478

-------
TIMINGS
-------

Total numerical gradient time      ...      271.804 sec

------------------------------------------------------------------------------
                         ORCA GEOMETRY RELAXATION STEP
------------------------------------------------------------------------------

Reading the OPT-File                    .... done
Getting information on internals        .... done
Copying old internal coords+grads       .... done
Making the new internal coordinates     .... (new redundants).... done
Validating the new internal coordinates .... (new redundants).... done
Calculating the B-matrix                .... done
Calculating the G,G- and P matrices     .... done
Transforming gradient to internals      .... done
Projecting the internal gradient        .... done
Number of atoms                         ....   3
Number of internal coordinates          ....   4
Current Energy                          ....  -406.648120581 Eh
Current gradient norm                   ....     0.015110122 Eh/bohr
Maximum allowed component of the step   ....  0.300
Current trust radius                    ....  0.300
Updating the Hessian (BFGS)             .... done
Forming the augmented Hessian           .... done
Diagonalizing the augmented Hessian     .... done
Last element of RFO vector              ....  0.995878024
Lowest eigenvalues of augmented Hessian:
 -0.001376200  0.015465048  0.160215154  0.160215172
Length of the computed step             ....  0.091078021
The final length of the internal step   ....  0.091078021
Converting the step to cartesian space:
 Initial RMS(Int)=    0.0455390103
Transforming coordinates:
 Iter   0:  RMS(Cart)=    0.0303593400 RMS(Int)=    0.0455390100
 Iter   1:  RMS(Cart)=    0.0000012064 RMS(Int)=    0.0000009760
 Iter   2:  RMS(Cart)=    0.0000009408 RMS(Int)=    0.0000007607
 Iter   3:  RMS(Cart)=    0.0000007338 RMS(Int)=    0.0000005934
 Iter   4:  RMS(Cart)=    0.0000005723 RMS(Int)=    0.0000004629
 Iter   5:  RMS(Cart)=    0.0000004463 RMS(Int)=    0.0000003610
 Iter   6:  RMS(Cart)=    0.0000003480 RMS(Int)=    0.0000002815
 Iter   7:  RMS(Cart)=    0.0000002714 RMS(Int)=    0.0000002195
 Iter   8:  RMS(Cart)=    0.0000002117 RMS(Int)=    0.0000001712
 Iter   9:  RMS(Cart)=    0.0000001651 RMS(Int)=    0.0000001334
 Iter  10:  RMS(Cart)=    0.0000001287 RMS(Int)=    0.0000001042
 Iter  11:  RMS(Cart)=    0.0000001004 RMS(Int)=    0.0000000812
 Iter  12:  RMS(Cart)=    0.0000000783 RMS(Int)=    0.0000000633
done
Storing new coordinates                 .... done

                                .--------------------.
          ----------------------|Geometry convergence|-------------------------
          Item                value                   Tolerance       Converged
          ---------------------------------------------------------------------
          Energy change      -0.0018453463            0.0000050000      NO
          RMS gradient        0.0075550604            0.0001000000      NO
          MAX gradient        0.0106844781            0.0003000000      NO
          RMS step            0.0455390103            0.0020000000      NO
          MAX step            0.0644022179            0.0040000000      NO
          ........................................................
          Max(Bonds)      0.0341      Max(Angles)    0.00
          Max(Dihed)        0.00      Max(Improp)    0.00
          ---------------------------------------------------------------------

The optimization has not yet converged - more geometry cycles are needed


    ---------------------------------------------------------------------------
                         Redundant Internal Coordinates
                            (Angstroem and degrees)

        Definition                    Value    dE/dq     Step     New-Value
    ----------------------------------------------------------------------------
     1. B(Au  1,Au  0)                2.3699 -0.010684  0.0341    2.4039   
     2. B(Au  2,Au  0)                2.3699 -0.010684  0.0341    2.4039   
     3. L(Au  1,Au  0,Au  2, 2)       180.00  0.000002   -0.00    180.00   
     4. L(Au  1,Au  0,Au  2, 1)       180.00  0.000001   -0.00    180.00   
    ----------------------------------------------------------------------------

         *************************************************************
         *                GEOMETRY OPTIMIZATION CYCLE   4            *
         *************************************************************


           ************************************************************
           *        Program running with 24 parallel MPI-processes    *
           *              working on a common directory               *
           ************************************************************


           ************************************************************
           *        Program running with 24 parallel MPI-processes    *
           *              working on a common directory               *
           ************************************************************

Diagonalization of the overlap matrix:
Smallest eigenvalue                        ... 4.814e-04
Time for diagonalization                   ...    0.007 sec
Threshold for overlap eigenvalues          ... 1.000e-08
Number of eigenvalues below threshold      ... 0
Time for construction of square roots      ...    0.003 sec
Total time needed                          ...    0.011 sec

-------------------
DFT GRID GENERATION
-------------------

General Integration Accuracy     IntAcc      ...  4.670
Radial Grid Type                 RadialGrid  ... Gauss-Chebyshev
Angular Grid (max. acc.)         AngularGrid ... Lebedev-302
Angular grid pruning method      GridPruning ... 3 (G Style)
Weight generation scheme         WeightScheme... Becke
Basis function cutoff            BFCut       ...    1.0000e-11
Integration weight cutoff        WCut        ...    1.0000e-14
Grids for H and He will be reduced by one unit

# of grid points (after initial pruning)     ...  34956 (   0.0 sec)
# of grid points (after weights+screening)   ...  34708 (   0.0 sec)
nearest neighbour list constructed           ...    0.0 sec
Grid point re-assignment to atoms done       ...    0.0 sec
Grid point division into batches done        ...    0.3 sec
Reduced shell lists constructed in    0.3 sec

Total number of grid points                  ...    34708
Total number of batches                      ...      544
Average number of points per batch           ...       63
Average number of grid points per atom       ...    11569
Average number of shells per batch           ...    15.67 (30.72%)
Average number of basis functions per batch  ...    50.17 (28.34%)
Average number of large shells per batch     ...    10.58 (67.55%)
[...]
 109   0.0000       1.931990        52.5721 
 110   0.0000       1.966719        53.5171 
 111   0.0000       2.082138        56.6579 
 112   0.0000       2.378707        64.7279 
 113   0.0000       2.705364        73.6167 
 114   0.0000       3.318799        90.3091 
 115   0.0000       3.318896        90.3118 
 116   0.0000       3.339652        90.8765 
 117   0.0000       3.359249        91.4098 
 118   0.0000       3.397403        92.4480 
 119   0.0000       3.397523        92.4513 
 120   0.0000       3.443352        93.6984 
 121   0.0000       3.443500        93.7024 
 122   0.0000       3.451380        93.9168 
 123   0.0000       3.451448        93.9187 
 124   0.0000       3.457575        94.0854 
 125   0.0000       3.457582        94.0856 
 126   0.0000       3.494835        95.0993 
 127   0.0000       3.511193        95.5444 
 128   0.0000       3.545821        96.4867 
 129   0.0000       3.545928        96.4896 
 130   0.0000       3.651486        99.3620 
 131   0.0000       3.705738       100.8383 
 132   0.0000       3.721743       101.2738 
 133   0.0000       3.738674       101.7345 
 134   0.0000       3.760627       102.3319 
 135   0.0000       3.905040       106.2615 
 136   0.0000       3.927831       106.8817 
 137   0.0000       3.934560       107.0648 
 138   0.0000       3.937273       107.1387 
 139   0.0000       3.938296       107.1665 
 140   0.0000       3.940449       107.2251 
 141   0.0000       3.948061       107.4322 
 142   0.0000       3.952781       107.5606 
 143   0.0000       3.953161       107.5710 
 144   0.0000       3.986408       108.4757 
 145   0.0000       3.986429       108.4763 
 146   0.0000       3.986571       108.4801 
 147   0.0000       3.986708       108.4839 
 148   0.0000       3.988012       108.5193 
 149   0.0000       3.988466       108.5317 
 150   0.0000       3.989626       108.5632 
 151   0.0000       3.989924       108.5713 
 152   0.0000       4.000286       108.8533 
 153   0.0000       4.000440       108.8575 
 154   0.0000       4.000519       108.8596 
 155   0.0000       4.000666       108.8637 
 156   0.0000       4.124425       112.2313 
 157   0.0000       4.144225       112.7701 
 158   0.0000       4.156349       113.1000 
 159   0.0000       4.174096       113.5829 
 160   0.0000       4.433190       120.6332 
 161   0.0000       4.490980       122.2058 
 162   0.0000      26.981415       734.2016 
 163   0.0000      26.999673       734.6985 
 164   0.0000      27.398436       745.5493 
 165   0.0000      27.413553       745.9607 
 166   0.0000      27.723756       754.4018 
 167   0.0000      27.742807       754.9202 
 168   0.0000      28.193289       767.1784 
 169   0.0000      29.305126       797.4330 
 170   0.0000      33.217028       903.8813 
 171   0.0000      43.790030      1191.5873 
 172   0.0000      44.166361      1201.8278 
 173   0.0000      44.505552      1211.0576 
 174   0.0000     204.930907      5576.4535 
 175   0.0000     205.104502      5581.1772 
 176   0.0000     205.222688      5584.3933 

                    ********************************
                    * MULLIKEN POPULATION ANALYSIS *
                    ********************************

-----------------------
MULLIKEN ATOMIC CHARGES
-----------------------
   0 Au:    0.352963
   1 Au:    0.323527
   2 Au:    0.323510
Sum of atomic charges:    1.0000000

--------------------------------
MULLIKEN REDUCED ORBITAL CHARGES
--------------------------------
  0 Aus       :     3.277403  s :     3.277403
      pz      :     2.262816  p :     6.319810
      px      :     2.023373
      py      :     2.033621
      dz2     :     1.907809  d :     9.019339
      dxz     :     1.768709
      dyz     :     1.343227
      dx2y2   :     1.999816
      dxy     :     1.999778
      f0      :     0.009985  f :     0.029759
      f+1     :     0.008096
      f-1     :     0.010137
      f+2     :     0.000737
      f-2     :     0.000750
      f+3     :     0.000027
      f-3     :     0.000028
      g0      :     0.000245  g :     0.000726
      g+1     :     0.000168
      g-1     :     0.000170
      g+2     :     0.000032
      g-2     :     0.000038
      g+3     :     0.000008
      g-3     :     0.000016
      g+4     :     0.000025
      g-4     :     0.000025
  1 Aus       :     3.309689  s :     3.309689
      pz      :     2.034193  p :     6.049377
      px      :     2.007250
      py      :     2.007935
      dz2     :     1.923055  d :     9.307126
      dxz     :     1.838654
      dyz     :     1.546767
      dx2y2   :     1.999331
      dxy     :     1.999320
      f0      :     0.003824  f :     0.009876
      f+1     :     0.002809
      f-1     :     0.002559
      f+2     :     0.000326
      f-2     :     0.000333
      f+3     :     0.000013
      f-3     :     0.000013
      g0      :     0.000129  g :     0.000404
      g+1     :     0.000095
      g-1     :     0.000098
      g+2     :     0.000022
      g-2     :     0.000025
      g+3     :     0.000005
      g-3     :     0.000008
      g+4     :     0.000012
      g-4     :     0.000012
  2 Aus       :     3.309689  s :     3.309689
      pz      :     2.034195  p :     6.049378
      px      :     2.007249
      py      :     2.007934
      dz2     :     1.923059  d :     9.307144
      dxz     :     1.838658
      dyz     :     1.546777
      dx2y2   :     1.999331
      dxy     :     1.999320
      f0      :     0.003824  f :     0.009875
      f+1     :     0.002809
      f-1     :     0.002559
      f+2     :     0.000326
      f-2     :     0.000333
      f+3     :     0.000013
      f-3     :     0.000013
      g0      :     0.000129  g :     0.000404
      g+1     :     0.000095
      g-1     :     0.000098
      g+2     :     0.000022
      g-2     :     0.000025
      g+3     :     0.000005
      g-3     :     0.000008
      g+4     :     0.000012
      g-4     :     0.000012


                     *******************************
                     * LOEWDIN POPULATION ANALYSIS *
                     *******************************

----------------------
LOEWDIN ATOMIC CHARGES
----------------------
   0 Au:    0.098864
   1 Au:    0.450576
   2 Au:    0.450560

-------------------------------
LOEWDIN REDUCED ORBITAL CHARGES
-------------------------------
  0 Aus       :     2.843971  s :     2.843971
      pz      :     2.830110  p :     6.892998
      px      :     2.026629
      py      :     2.036259
      dz2     :     2.011305  d :     9.111922
      dxz     :     1.762345
      dyz     :     1.338646
      dx2y2   :     1.999832
      dxy     :     1.999794
      f0      :     0.023748  f :     0.051351
      f+1     :     0.011953
      f-1     :     0.013825
      f+2     :     0.000878
      f-2     :     0.000892
      f+3     :     0.000027
      f-3     :     0.000028
      g0      :     0.000341  g :     0.000894
      g+1     :     0.000217
      g-1     :     0.000189
      g+2     :     0.000034
      g-2     :     0.000040
      g+3     :     0.000008
      g-3     :     0.000016
      g+4     :     0.000025
      g-4     :     0.000025
  1 Aus       :     3.029297  s :     3.029297
      pz      :     2.124018  p :     6.140280
      px      :     2.009077
      py      :     2.007185
      dz2     :     1.983478  d :     9.361779
      dxz     :     1.834469
      dyz     :     1.545499
      dx2y2   :     1.999172
      dxy     :     1.999161
      f0      :     0.008300  f :     0.017570
      f+1     :     0.004746
      f-1     :     0.003685
      f+2     :     0.000404
      f-2     :     0.000411
      f+3     :     0.000013
      f-3     :     0.000013
      g0      :     0.000190  g :     0.000499
      g+1     :     0.000118
      g-1     :     0.000107
      g+2     :     0.000023
      g-2     :     0.000026
      g+3     :     0.000005
      g-3     :     0.000008
      g+4     :     0.000012
      g-4     :     0.000012
  2 Aus       :     3.029303  s :     3.029303
      pz      :     2.124015  p :     6.140276
      px      :     2.009076
      py      :     2.007185
      dz2     :     1.983478  d :     9.361794
      dxz     :     1.834474
      dyz     :     1.545510
      dx2y2   :     1.999172
      dxy     :     1.999161
      f0      :     0.008299  f :     0.017567
      f+1     :     0.004745
      f-1     :     0.003684
      f+2     :     0.000404
      f-2     :     0.000411
      f+3     :     0.000013
      f-3     :     0.000013
      g0      :     0.000190  g :     0.000499
      g+1     :     0.000118
      g-1     :     0.000107
      g+2     :     0.000023
      g-2     :     0.000026
      g+3     :     0.000005
      g-3     :     0.000008
      g+4     :     0.000012
      g-4     :     0.000012


                      *****************************
                      * MAYER POPULATION ANALYSIS *
                      *****************************

  NA   - Mulliken gross atomic population
  ZA   - Total nuclear charge
  QA   - Mulliken gross atomic charge
  VA   - Mayer's total valence
  BVA  - Mayer's bonded valence
  FA   - Mayer's free valence

  ATOM       NA         ZA         QA         VA         BVA        FA
  0 Au    18.6470    19.0000     0.3530     2.6596     2.6596    -0.0000
  1 Au    18.6765    19.0000     0.3235     1.7791     1.7791    -0.0000
  2 Au    18.6765    19.0000     0.3235     1.7791     1.7791    -0.0000

  Mayer bond orders larger than 0.100000
B(  0-Au,  1-Au) :   1.3298 B(  0-Au,  2-Au) :   1.3298 B(  1-Au,  2-Au) :   0.4493 


-------
TIMINGS
-------

Total SCF time: 0 days 0 hours 0 min 6 sec 

Total time                  ....       6.579 sec
Sum of individual times     ....       6.297 sec  ( 95.7%)

Fock matrix formation       ....       5.808 sec  ( 88.3%)
  XC integration            ....       0.251 sec  (  4.3% of F)
    Basis function eval.    ....       0.040 sec  ( 16.0% of XC)
    Density eval.           ....       0.029 sec  ( 11.4% of XC)
    XC-Functional eval.     ....       0.019 sec  (  7.6% of XC)
    XC-Potential eval.      ....       0.035 sec  ( 13.8% of XC)
Diagonalization             ....       0.039 sec  (  0.6%)
Density matrix formation    ....       0.006 sec  (  0.1%)
Population analysis         ....       0.005 sec  (  0.1%)
Initial guess               ....       0.012 sec  (  0.2%)
Orbital Transformation      ....       0.000 sec  (  0.0%)
Orbital Orthonormalization  ....       0.007 sec  (  0.1%)
DIIS solution               ....       0.015 sec  (  0.2%)
Grid generation             ....       0.412 sec  (  6.3%)

-------------------------   --------------------
FINAL SINGLE POINT ENERGY      -406.648704911924
-------------------------   --------------------

                                *** OPTIMIZATION RUN DONE ***

                            ***************************************
                            *     ORCA property calculations      *
                            ***************************************

                                    ---------------------
                                    Active property flags
                                    ---------------------
   (+) Dipole Moment


------------------------------------------------------------------------------
                       ORCA ELECTRIC PROPERTIES CALCULATION
------------------------------------------------------------------------------

Dipole Moment Calculation                       ... on
Quadrupole Moment Calculation                   ... off
Polarizability Calculation                      ... off
GBWName                                         ... Au03C1_LIN.gbw
Electron density file                           ... Au03C1_LIN.scfp
The origin for moment calculation is the CENTER OF MASS  = ( 0.000000,  0.000000  0.000000)

-------------
DIPOLE MOMENT
-------------
                                X             Y             Z
Electronic contribution:     -0.00005       0.00002       0.00007
Nuclear contribution   :      0.00000       0.00000      -0.00000
                        -----------------------------------------
Total Dipole Moment    :     -0.00005       0.00002       0.00007
                        -----------------------------------------
Magnitude (a.u.)       :      0.00009
Magnitude (Debye)      :      0.00023



--------------------
Rotational spectrum 
--------------------
 
Rotational constants in cm-1: 16223475.208194     0.007432     0.007432 
Rotational constants in MHz : 486367550996.650330   222.817658   222.817658 

 Dipole components along the rotational axes: 
x,y,z [a.u.] :     0.000069     0.000057    -0.000008 
x,y,z [Debye]:     0.000176     0.000144    -0.000022 

 

----------------------------------------------------------------------------
                           ORCA NUMERICAL FREQUENCIES
                              (24-process run)
----------------------------------------------------------------------------

Number of atoms                ... 3
Central differences            ... used
Number of displacements        ... 18
Numerical increment            ... 5.000e-03 bohr
IR-spectrum generation         ... on
Raman-spectrum generation      ... off
Surface Crossing Hessian       ... off

 WARNING: There are more processes than displacements to do
  ====> : Reducing number of processes to   9

The output will be reduced. Please look at the following files:
SCF program output             ... >Au03C1_LIN.lastscf
Integral program output        ... >Au03C1_LIN.lastint
Gradient program output        ... >Au03C1_LIN.lastgrad
Dipole moment program output   ... >Au03C1_LIN.lastmom
AutoCI program output          ... >Au03C1_LIN.lastautoci


         <<< Energy and Gradient at the input geometry >>>

        <<< Energy and Gradient at displaced geometries >>>
             <<<Displacing   3/coordinate 2 (+)>>>
             <<<Displacing   1/coordinate 2 (+)>>>
             <<<Displacing   1/coordinate 1 (+)>>>
             <<<Displacing   2/coordinate 2 (+)>>>
             <<<Displacing   1/coordinate 3 (+)>>>
             <<<Displacing   2/coordinate 3 (+)>>>
             <<<Displacing   2/coordinate 1 (+)>>>
             <<<Displacing   3/coordinate 3 (+)>>>
             <<<Displacing   3/coordinate 1 (+)>>>
             <<<Displacing   1/coordinate 3 (-)>>>
             <<<Displacing   2/coordinate 3 (-)>>>
             <<<Displacing   2/coordinate 2 (-)>>>
             <<<Displacing   3/coordinate 2 (-)>>>
             <<<Displacing   3/coordinate 3 (-)>>>
             <<<Displacing   3/coordinate 1 (-)>>>
             <<<Displacing   1/coordinate 2 (-)>>>
             <<<Displacing   2/coordinate 1 (-)>>>
             <<<Displacing   1/coordinate 1 (-)>>>

-----------------------
VIBRATIONAL FREQUENCIES
-----------------------

Scaling factor for frequencies =  1.000000000 (already applied!)

   0:         0.00 cm**-1
   1:         0.00 cm**-1
   2:         0.00 cm**-1
   3:         0.00 cm**-1
   4:         0.00 cm**-1
   5:         0.00 cm**-1
   6:        45.73 cm**-1
   7:       154.33 cm**-1
   8:       262.18 cm**-1


------------
NORMAL MODES
------------

These modes are the cartesian displacements weighted by the diagonal matrix
M(i,i)=1/sqrt(m[i]) where m[i] is the mass of the displaced atom
Thus, these vectors are normalized but *not* orthogonal

                  0          1          2          3          4          5    
      0       0.000000   0.000000   0.000000   0.000000   0.000000   0.000000
      1       0.000000   0.000000   0.000000   0.000000   0.000000   0.000000
      2       0.000000   0.000000   0.000000   0.000000   0.000000   0.000000
      3       0.000000   0.000000   0.000000   0.000000   0.000000   0.000000
      4       0.000000   0.000000   0.000000   0.000000   0.000000   0.000000
      5       0.000000   0.000000   0.000000   0.000000   0.000000   0.000000
      6       0.000000   0.000000   0.000000   0.000000   0.000000   0.000000
      7       0.000000   0.000000   0.000000   0.000000   0.000000   0.000000
      8       0.000000   0.000000   0.000000   0.000000   0.000000   0.000000
                   6          7          8    
      0      -0.805628  -0.012832   0.000003
      1       0.132138   0.002105  -0.000000
      2       0.000005  -0.000470  -0.816496
      3       0.402817   0.006416  -0.000016
      4      -0.066069  -0.001052   0.000003
      5      -0.011263   0.707252   0.407841
      6       0.402811   0.006416   0.000014
      7      -0.066068  -0.001052  -0.000002
      8       0.011258  -0.706782   0.408656


-----------
IR SPECTRUM  
-----------

 Mode    freq (cm**-1)   T**2         TX         TY         TZ
-------------------------------------------------------------------
   6:        45.73    0.427026  (  0.652082   0.042580  -0.001158)
   7:       154.33    0.000094  (  0.008820   0.003452  -0.002115)
   8:       262.18   13.253510  (  0.000004  -0.000015  -3.640537)

The first frequency considered to be a vibration is 6
The total number of vibrations considered is 3


--------------------------
THERMOCHEMISTRY AT 298.15K
--------------------------

Temperature         ... 298.15 K
Pressure            ... 1.00 atm
Total Mass          ... 590.90 AMU

Throughout the following assumptions are being made:
  (1) The electronic state is orbitally nondegenerate
  (2) There are no thermally accessible electronically excited states
  (3) Hindered rotations indicated by low frequency modes are not
      treated as such but are treated as vibrations and this may
      cause some error
  (4) All equations used are the standard statistical mechanics
      equations for an ideal gas
  (5) All vibrations are strictly harmonic

freq.      45.73  E(vib)   ...       0.53 
freq.     154.33  E(vib)   ...       0.40 
freq.     262.18  E(vib)   ...       0.29 

------------
INNER ENERGY
------------

The inner energy is: U= E(el) + E(ZPE) + E(vib) + E(rot) + E(trans)
    E(el)   - is the total energy from the electronic structure calculation
              = E(kin-el) + E(nuc-el) + E(el-el) + E(nuc-nuc)
    E(ZPE)  - the the zero temperature vibrational energy from the frequency calculation
    E(vib)  - the the finite temperature correction to E(ZPE) due to population
              of excited vibrational states
    E(rot)  - is the rotational thermal energy
    E(trans)- is the translational thermal energy

Summary of contributions to the inner energy U:
Electronic energy                ...   -406.64870491 Eh
Zero point energy                ...      0.00105304 Eh       0.66 kcal/mol
Thermal vibrational correction   ...      0.00194936 Eh       1.22 kcal/mol
Thermal rotational correction    ...      0.00141627 Eh       0.89 kcal/mol
Thermal translational correction ...      0.00141627 Eh       0.89 kcal/mol
-----------------------------------------------------------------------
Total thermal energy                   -406.64286997 Eh


Summary of corrections to the electronic energy:
(perhaps to be used in another calculation)
Total thermal correction                  0.00478190 Eh       3.00 kcal/mol
Non-thermal (ZPE) correction              0.00105304 Eh       0.66 kcal/mol
-----------------------------------------------------------------------
Total correction                          0.00583494 Eh       3.66 kcal/mol


--------
ENTHALPY
--------

The enthalpy is H = U + kB*T
                kB is Boltzmann's constant
Total free energy                 ...   -406.64286997 Eh 
Thermal Enthalpy correction       ...      0.00094421 Eh       0.59 kcal/mol
-----------------------------------------------------------------------
Total Enthalpy                    ...   -406.64192576 Eh

[file orca_tools/Tool-Symmetry/symmain.cpp, line 3070]: Error (ORCA_SYM): TMoleculeSymmetry::CleanUp molecule is linear but not aligned to z axis!

[file orca_tools/Tool-Symmetry/symmain.cpp, line 3070]: Error (ORCA_SYM): TMoleculeSymmetry::CleanUp molecule is linear but not aligned to z axis!

