
                                 *****************
                                 * O   R   C   A *
                                 *****************

           --- An Ab Initio, DFT and Semiempirical electronic structure package ---

                  #######################################################
                  #                        -***-                        #
                  #          Department of theory and spectroscopy      #
                  #               Directorship: Frank Neese             #
                  #        Max Planck Institute fuer Kohlenforschung    #
                  #                Kaiser Wilhelm Platz 1               #
                  #                 D-45470 Muelheim/Ruhr               #
                  #                      Germany                        #
                  #                                                     #
                  #                  All rights reserved                #
                  #                        -***-                        #
                  #######################################################


                         Program Version 4.2.0 -  RELEASE  -


 With contributions from (in alphabetic order):
   Daniel Aravena         : Magnetic Suceptibility
   Michael Atanasov       : Ab Initio Ligand Field Theory (pilot matlab implementation)
   Alexander A. Auer      : GIAO ZORA, VPT2
   Ute Becker             : Parallelization
   Giovanni Bistoni       : ED, misc. LED, open-shell LED, HFLED
   Martin Brehm           : Molecular dynamics
   Dmytro Bykov           : SCF Hessian
   Vijay G. Chilkuri      : MRCI spin determinant printing, contributions to CSF-ICE
   Dipayan Datta          : RHF DLPNO-CCSD density
   Achintya Kumar Dutta   : EOM-CC, STEOM-CC
   Dmitry Ganyushin       : Spin-Orbit,Spin-Spin,Magnetic field MRCI
   Miquel Garcia          : C-PCM Hessian, Gaussian charge scheme
   Yang Guo               : DLPNO-NEVPT2, CIM, IAO-localization
   Andreas Hansen         : Spin unrestricted coupled pair/coupled cluster methods
   Benjamin Helmich-Paris : CASSCF linear response (MC-RPA)
   Lee Huntington         : MR-EOM, pCC
   Robert Izsak           : Overlap fitted RIJCOSX, COSX-SCS-MP3, EOM
   Christian Kollmar      : KDIIS, OOCD, Brueckner-CCSD(T), CCSD density
   Simone Kossmann        : Meta GGA functionals, TD-DFT gradient, OOMP2, MP2 Hessian
   Martin Krupicka        : AUTO-CI
   Lucas Lang             : DCDCAS
   Dagmar Lenk            : GEPOL surface, SMD
   Dimitrios Liakos       : Extrapolation schemes; Compound Job, initial MDCI parallelization
   Dimitrios Manganas     : Further ROCIS development; embedding schemes
   Dimitrios Pantazis     : SARC Basis sets
   Taras Petrenko         : DFT Hessian,TD-DFT gradient, ASA, ECA, R-Raman, ABS, FL, XAS/XES, NRVS
   Peter Pinski           : DLPNO-MP2, DLPNO-MP2 Gradient
   Christoph Reimann      : Effective Core Potentials
   Marius Retegan         : Local ZFS, SOC
   Christoph Riplinger    : Optimizer, TS searches, QM/MM, DLPNO-CCSD(T), (RO)-DLPNO pert. Triples
   Tobias Risthaus        : Range-separated hybrids, TD-DFT gradient, RPA, STAB
   Michael Roemelt        : Original ROCIS implementation
   Masaaki Saitow         : Open-shell DLPNO-CCSD energy and density
   Barbara Sandhoefer     : DKH picture change effects
   Avijit Sen             : IP-ROCIS
   Kantharuban Sivalingam : CASSCF convergence, NEVPT2, FIC-MRCI
   Bernardo de Souza      : ESD, SOC TD-DFT
   Georgi Stoychev        : AutoAux, RI-MP2 NMR
   Willem Van den Heuvel  : Paramagnetic NMR
   Boris Wezisla          : Elementary symmetry handling
   Frank Wennmohs         : Technical directorship


 We gratefully acknowledge several colleagues who have allowed us to
 interface, adapt or use parts of their codes:
   Stefan Grimme, W. Hujo, H. Kruse,             : VdW corrections, initial TS optimization,
                  C. Bannwarth                     DFT functionals, gCP, sTDA/sTD-DF
   Ed Valeev, F. Pavosevic, A. Kumar             : LibInt (2-el integral package), F12 methods
   Garnet Chan, S. Sharma, J. Yang, R. Olivares  : DMRG
   Ulf Ekstrom                                   : XCFun DFT Library
   Mihaly Kallay                                 : mrcc  (arbitrary order and MRCC methods)
   Andreas Klamt, Michael Diedenhofen            : otool_cosmo (COSMO solvation model)
   Jiri Pittner, Ondrej Demel                    : Mk-CCSD
   Frank Weinhold                                : gennbo (NPA and NBO analysis)
   Christopher J. Cramer and Donald G. Truhlar   : smd solvation model
   Lars Goerigk                                  : TD-DFT with DH, B97 family of functionals
   V. Asgeirsson, H. Jonsson                     : NEB implementation
   FAccTs GmbH                                   : IRC, NEB, NEB-TS, Multilevel, MM, QM/MM, CI optimization
   S Lehtola, MJT Oliveira, MAL Marques          : LibXC Library


 Your calculation uses the libint2 library for the computation of 2-el integrals
 For citations please refer to: http://libint.valeyev.net

 Your ORCA version has been built with support for libXC version: 4.2.3
 For citations please refer to: https://tddft.org/programs/libxc/

 This ORCA versions uses:
   CBLAS   interface :  Fast vector & matrix operations
   LAPACKE interface :  Fast linear algebra routines
   SCALAPACK package :  Parallel linear algebra routines


Your calculation utilizes the DFT-NL dispersion correction.
Cite in your paper:
Vydrov, O. A.; Van Voorhis, T. J. Chem. Phys. 2010, 133, 244103
Hujo, W.; Grimme, S. J. Chem. Theory Comput. 2011, 7, 3866 
   

----- Orbital basis set information -----
Your calculation utilizes the basis: def2-TZVPPD
   F. Weigend and R. Ahlrichs, Phys. Chem. Chem. Phys. 7, 3297 (2005).
   D. Rappoport and F. Furche, J. Chem. Phys. 133 134105 (2010).

----- AuxJK basis set information -----
Your calculation utilizes the auxiliary basis: def2/JK
   H-Ba, Hf-Rn: F. Weigend, J. Comput. Chem. 29, 167 (2008).

================================================================================
                                        WARNINGS
                       Please study these warnings very carefully!
================================================================================


WARNING: Geometry Optimization
  ===> : Switching off AutoStart
         For restart on a previous wavefunction, please use MOREAD

INFO   : the flag for use of LIBINT has been found!

================================================================================
                                       INPUT FILE
================================================================================
NAME = Cu01N0_H.in
|  1> #
|  2> # Cu01N0_H wB97X-V/Def2-TZVPPD
|  3> #
|  4> ! wb97x-v def2-tzvppd def2/jk grid4 nofinalgrid opt xyzfile numfreq numgrad
|  5> 
|  6> *xyz 0 1
|  7> Cu       0.000000    0.000000    0.048513 
|  8> H        0.000000    0.000000   -1.406870 
|  9> *
| 10> 
| 11> %maxcore 5000
| 12> 
| 13> %pal
| 14> nprocs = 24
| 15> end
| 16> 
| 17> 
| 18>                          ****END OF INPUT****
================================================================================

                       *****************************
                       * Geometry Optimization Run *
                       *****************************

Geometry optimization settings:
Update method            Update   .... BFGS
Choice of coordinates    CoordSys .... Z-matrix Internals
Initial Hessian          InHess   .... Almoef's Model

Convergence Tolerances:
Energy Change            TolE     ....  5.0000e-06 Eh
Max. Gradient            TolMAXG  ....  3.0000e-04 Eh/bohr
RMS Gradient             TolRMSG  ....  1.0000e-04 Eh/bohr
Max. Displacement        TolMAXD  ....  4.0000e-03 bohr
RMS Displacement         TolRMSD  ....  2.0000e-03 bohr
Strict Convergence                ....  False
------------------------------------------------------------------------------
                        ORCA OPTIMIZATION COORDINATE SETUP
------------------------------------------------------------------------------

The optimization will be done in new redundant internal coordinates
Making redundant internal coordinates   ...  (new redundants) done
Evaluating the initial hessian          ...  (Almloef) done
Evaluating the coordinates              ...  done
Calculating the B-matrix                .... done
Calculating the G-matrix                .... done
Diagonalizing the G-matrix              .... done
The first mode is                       ....    0
The number of degrees of freedom        ....    1

    -----------------------------------------------------------------
                    Redundant Internal Coordinates


    -----------------------------------------------------------------
         Definition                    Initial Value    Approx d2E/dq
    -----------------------------------------------------------------
      1. B(H   1,Cu  0)                  1.4554         0.951925   
    -----------------------------------------------------------------

Number of atoms                         .... 2
Number of degrees of freedom            .... 1

         *************************************************************
         *                GEOMETRY OPTIMIZATION CYCLE   1            *
         *************************************************************
---------------------------------
CARTESIAN COORDINATES (ANGSTROEM)
---------------------------------
  Cu     0.000000    0.000000    0.048513
  H      0.000000    0.000000   -1.406870

----------------------------
CARTESIAN COORDINATES (A.U.)
----------------------------
  NO LB      ZA    FRAG     MASS         X           Y           Z
   0 Cu   29.0000    0    63.550    0.000000    0.000000    0.091676
   1 H     1.0000    0     1.008    0.000000    0.000000   -2.658599

--------------------------------
INTERNAL COORDINATES (ANGSTROEM)
--------------------------------
 Cu     0   0   0     0.000000000000     0.00000000     0.00000000
 H      1   0   0     1.455383000000     0.00000000     0.00000000

---------------------------
INTERNAL COORDINATES (A.U.)
---------------------------
 Cu     0   0   0     0.000000000000     0.00000000     0.00000000
 H      1   0   0     2.750275289965     0.00000000     0.00000000

---------------------
BASIS SET INFORMATION
---------------------
There are 2 groups of distinct atoms

 Group   1 Type Cu  : 17s13p7d2f1g contracted to 6s6p4d2f1g pattern {842111/631111/4111/11/1}
 Group   2 Type H   : 5s3p1d contracted to 3s3p1d pattern {311/111/1}

Atom   0Cu   basis set group =>   1
Atom   1H    basis set group =>   2
----------------------------------
AUXILIARY/JK BASIS SET INFORMATION
----------------------------------
There are 2 groups of distinct atoms

 Group   1 Type Cu  : 19s14p12d10f7g3h1i contracted to 16s13p11d9f5g3h1i pattern {4111111111111111/2111111111111/21111111111/211111111/31111/111/1}
 Group   2 Type H   : 4s2p2d contracted to 2s2p2d pattern {31/11/11}

Atom   0Cu   basis set group =>   1
Atom   1H    basis set group =>   2


           ************************************************************
           *        Program running with 24 parallel MPI-processes    *
           *              working on a common directory               *
           ************************************************************
------------------------------------------------------------------------------
                           ORCA GTO INTEGRAL CALCULATION
------------------------------------------------------------------------------

                         BASIS SET STATISTICS AND STARTUP INFO

 # of primitive gaussian shells          ...   49
 # of primitive gaussian functions       ...  133
 # of contracted shells                  ...   26
 # of contracted basis functions         ...   84
 Highest angular momentum                ...    4
 Maximum contraction depth               ...    8
 Integral package used                   ... LIBINT
 Integral threshhold            Thresh   ...  2.500e-11
 Primitive cut-off              TCut     ...  2.500e-12


------------------------------ INTEGRAL EVALUATION ----------------------------


 * One electron integrals 
 Pre-screening matrix                    ... done
 Shell pair data                         ... done (   0.000 sec)



           ************************************************************
           *        Program running with 24 parallel MPI-processes    *
           *              working on a common directory               *
           ************************************************************
-------------------------------------------------------------------------------
                                 ORCA SCF
-------------------------------------------------------------------------------

------------
SCF SETTINGS
------------
Hamiltonian:
 Density Functional     Method          .... DFT(GTOs)
 Exchange Functional    Exchange        .... WB97X-V
 Correlation Functional Correlation     .... WB97X-V
 Gradients option       PostSCFGGA      .... off
 Hybrid DFT is turned on
   Fraction HF Exchange ScalHFX         ....  0.167000
   Scaling of DF-GGA-X  ScalDFX         ....  0.000000
   Scaling of DF-GGA-C  ScalDFC         ....  1.000000
   Scaling of DF-LDA-C  ScalLDAC        ....  1.000000
   Perturbative correction              ....  0.000000
   Density functional embedding theory  .... OFF
 Long-range corrected/Screened/Range-Separated Hybrid DFT is turned on
   Amount of maximum screened exact exchange              ....  0.833000
   Range separation parameter mu (erf(mu*r12)/r12)        ....  0.300000
   NL short-range parameter             ....  6.000000
   NL long-range parameter              ....  0.010000


General Settings:
 Integral files         IntName         .... Cu01N0_H
 Hartree-Fock type      HFTyp           .... RHF
 Total Charge           Charge          ....    0
 Multiplicity           Mult            ....    1
 Number of Electrons    NEL             ....   30
 Basis Dimension        Dim             ....   84
 Nuclear Repulsion      ENuc            ....     10.5443989937 Eh

Convergence Acceleration:
 DIIS                   CNVDIIS         .... on
   Start iteration      DIISMaxIt       ....    12
   Startup error        DIISStart       ....  0.200000
   # of expansion vecs  DIISMaxEq       ....     5
   Bias factor          DIISBfac        ....   1.050
   Max. coefficient     DIISMaxC        ....  10.000
 Newton-Raphson         CNVNR           .... off
 SOSCF                  CNVSOSCF        .... off
 Level Shifting         CNVShift        .... on
   Level shift para.    LevelShift      ....    0.2500
   Turn off err/grad.   ShiftErr        ....    0.0010
 Zerner damping         CNVZerner       .... off
 Static damping         CNVDamp         .... on
   Fraction old density DampFac         ....    0.7000
   Max. Damping (<1)    DampMax         ....    0.9800
   Min. Damping (>=0)   DampMin         ....    0.0000
   Turn off err/grad.   DampErr         ....    0.1000
 Fernandez-Rico         CNVRico         .... off

SCF Procedure:
 Maximum # iterations   MaxIter         ....   125
 SCF integral mode      SCFMode         .... Direct
   Integral package                     .... LIBINT
 Reset frequency        DirectResetFreq ....    20
 Integral Threshold     Thresh          ....  2.500e-11 Eh
 Primitive CutOff       TCut            ....  2.500e-12 Eh

Convergence Tolerance:
 Convergence Check Mode ConvCheckMode   .... Total+1el-Energy
 Convergence forced     ConvForced      .... 0
 Energy Change          TolE            ....  1.000e-08 Eh
 1-El. energy change                    ....  1.000e-05 Eh
 DIIS Error             TolErr          ....  5.000e-07


Diagonalization of the overlap matrix:
Smallest eigenvalue                        ... 1.990e-03
Time for diagonalization                   ...    0.002 sec
Threshold for overlap eigenvalues          ... 1.000e-08
Number of eigenvalues below threshold      ... 0
Time for construction of square roots      ...    0.003 sec
Total time needed                          ...    0.005 sec

-------------------
DFT GRID GENERATION
-------------------

General Integration Accuracy     IntAcc      ...  4.670
Radial Grid Type                 RadialGrid  ... Gauss-Chebyshev
Angular Grid (max. acc.)         AngularGrid ... Lebedev-302
Angular grid pruning method      GridPruning ... 3 (G Style)
Weight generation scheme         WeightScheme... Becke
Basis function cutoff            BFCut       ...    1.0000e-11
Integration weight cutoff        WCut        ...    1.0000e-14
Grids for H and He will be reduced by one unit

# of grid points (after initial pruning)     ...  12950 (   0.0 sec)
# of grid points (after weights+screening)   ...  12913 (   0.0 sec)
nearest neighbour list constructed           ...    0.0 sec
Grid point re-assignment to atoms done       ...    0.0 sec
Grid point division into batches done        ...    0.1 sec
Reduced shell lists constructed in    0.1 sec

Total number of grid points                  ...    12913
Total number of batches                      ...      202
Average number of points per batch           ...       63
Average number of grid points per atom       ...     6456
Average number of shells per batch           ...     6.10 (23.46%)
Average number of basis functions per batch  ...    14.90 (17.74%)
Average number of large shells per batch     ...     4.40 (72.13%)
Average number of large basis fcns per batch ...    12.60 (84.56%)
Maximum spatial batch extension              ...  28.79, 26.18, 17.10 au
Average spatial batch extension              ...   0.94,  0.87,  0.65 au

Time for grid setup =    0.104 sec

------------------------------
INITIAL GUESS: MODEL POTENTIAL
------------------------------
Loading Hartree-Fock densities                     ... done
Calculating cut-offs                               ... done
Setting up the integral package                    ... done
Initializing the effective Hamiltonian             ... done
Starting the Coulomb interaction                   ... done (   0.0 sec)
Reading the grid                                   ... done
Mapping shells                                     ... done
Starting the XC term evaluation                    ... done (   0.0 sec)
  promolecular density results
     # of electrons  =     29.999530787
     EX              =    -50.475560450
     EC              =     -1.817082089
     EX+EC           =    -52.292642540
Transforming the Hamiltonian                       ... done (   0.0 sec)
Diagonalizing the Hamiltonian                      ... done (   0.0 sec)
Back transforming the eigenvectors                 ... done (   0.0 sec)
Now organizing SCF variables                       ... done
                      ------------------
                      INITIAL GUESS DONE (   0.2 sec)
                      ------------------
--------------
SCF ITERATIONS
--------------
ITER       Energy         Delta-E        Max-DP      RMS-DP      [F,P]     Damp
               ***  Starting incremental Fock matrix formation  ***
  0  -1639.3279559317   0.000000000000 0.68359980  0.01464086  1.4726352 0.7000
  1  -1640.2274610149  -0.899505083221 0.32020279  0.00647213  0.3757683 0.7000
  2  -1640.4756967875  -0.248235772646 0.12285723  0.00371722  0.2247748 0.7000
  3  -1640.6370787279  -0.161381940408 0.18236746  0.00442836  0.2065263 0.7000
                               ***Turning on DIIS***
  4  -1640.7563216148  -0.119242886898 0.18790188  0.00398172  0.1325441 0.7000
  5  -1640.8406825605  -0.084360945674 0.61607895  0.01194328  0.0810761 0.0000
  6  -1641.0438173592  -0.203134798692 0.24506447  0.00405289  0.0321342 0.0000
  7  -1641.0455573289  -0.001739969651 0.02199265  0.00047749  0.0481701 0.0000
  8  -1641.0481969661  -0.002639637203 0.04123266  0.00068346  0.0124462 0.0000
  9  -1641.0491737274  -0.000976761298 0.02333565  0.00045879  0.0092857 0.0000
 10  -1641.0497763864  -0.000602659055 0.01381006  0.00034250  0.0059889 0.0000
 11  -1641.0500571100  -0.000280723563 0.00645140  0.00018497  0.0035383 0.0000
 12  -1641.0501514170  -0.000094307056 0.00500414  0.00013373  0.0020392 0.0000
 13  -1641.0501875570  -0.000036139951 0.00431608  0.00011253  0.0009548 0.0000
 14  -1641.0501990326  -0.000011475624 0.00035129  0.00001246  0.0002028 0.0000
 15  -1641.0501992410  -0.000000208374 0.00041633  0.00001282  0.0001660 0.0000
 16  -1641.0501993608  -0.000000119867 0.00009887  0.00000312  0.0001073 0.0000
 17  -1641.0501993826  -0.000000021739 0.00002400  0.00000086  0.0000127 0.0000
 18  -1641.0501993839  -0.000000001284 0.00001330  0.00000038  0.0000038 0.0000
                            ***DIIS convergence achieved***

               *****************************************************
               *                     SUCCESS                       *
               *           SCF CONVERGED AFTER  19 CYCLES          *
               *****************************************************


Setting up the DFT-NL grid :

General Integration Accuracy     IntAcc      ...  4.340
Radial Grid Type                 RadialGrid  ... Gauss-Chebyshev
Angular Grid (max. acc.)         AngularGrid ... Lebedev-110
Angular grid pruning method      GridPruning ... 3 (G Style)
Weight generation scheme         WeightScheme... Becke
Basis function cutoff            BFCut       ...    1.0000e-11
Integration weight cutoff        WCut        ...    1.0000e-14
Grids for H and He will be reduced by one unit

# of grid points (after initial pruning)     ...   3706 (   0.0 sec)
# of grid points (after weights+screening)   ...   3681 (   0.0 sec)
nearest neighbour list constructed           ...    0.0 sec
Grid point re-assignment to atoms done       ...    0.0 sec
Grid point division into batches done        ...    0.0 sec
Reduced shell lists constructed in    0.0 sec

Total number of grid points                  ...     3681
Total number of batches                      ...       58
Average number of points per batch           ...       63
Average number of grid points per atom       ...     1840
Average number of shells per batch           ...     8.50 (32.69%)
Average number of basis functions per batch  ...    22.50 (26.79%)
Average number of large shells per batch     ...     7.25 (85.29%)
Average number of large basis fcns per batch ...    19.75 (87.78%)
Maximum spatial batch extension              ...  34.10, 26.34, 18.34 au
Average spatial batch extension              ...   1.21,  1.23,  0.81 au

Final grid set up in    0.0 sec

-------------------------------------------------------------------------------
                         DFT-NL dispersion correction                          
-------------------------------------------------------------------------------

SC Energy -1641.050199384 
NL    Energy 0.127564289 
SC+NL Energy -1640.922635095 
NL done in    0.0 sec
-------------------------------------------------------------------------------

----------------
TOTAL SCF ENERGY
----------------

Total Energy       :        -1640.92263509 Eh          -44651.77495 eV

Components:
Nuclear Repulsion  :           10.54439899 Eh             286.92768 eV
Electronic Energy  :        -1651.46703409 Eh          -44938.70264 eV
One Electron Energy:        -2308.78248210 Eh          -62825.16531 eV
Two Electron Energy:          657.31544802 Eh           17886.46267 eV

Virial components:
Potential Energy   :        -3279.53939049 Eh          -89240.80373 eV
Kinetic Energy     :         1638.61675540 Eh           44589.02878 eV
Virial Ratio       :            2.00140721


DFT components:
N(Alpha)           :       15.000000531726 electrons
N(Beta)            :       15.000000531726 electrons
N(Total)           :       30.000001063452 electrons
E(X)               :      -50.594382755984 Eh       
E(C)               :       -1.829976052637 Eh       
NL Energy, E(C,NL) :        0.127564289454 Eh       
E(XC)              :      -52.296794519167 Eh       
DFET-embed. en.    :        0.000000000000 Eh       

---------------
SCF CONVERGENCE
---------------

  Last Energy change         ...   -1.5530e-10  Tolerance :   1.0000e-08
  Last MAX-Density change    ...    2.9016e-06  Tolerance :   1.0000e-07
  Last RMS-Density change    ...    8.6474e-08  Tolerance :   5.0000e-09
  Last DIIS Error            ...    7.7876e-07  Tolerance :   5.0000e-07

             **** THE GBW FILE WAS UPDATED (Cu01N0_H.gbw) ****
             **** DENSITY FILE WAS UPDATED (Cu01N0_H.scfp) ****
             **** ENERGY FILE WAS UPDATED (Cu01N0_H.en.tmp) ****
             **** THE GBW FILE WAS UPDATED (Cu01N0_H.gbw) ****
             **** DENSITY FILE WAS UPDATED (Cu01N0_H.scfp) ****
----------------
ORBITAL ENERGIES
----------------

  NO   OCC          E(Eh)            E(eV) 
   0   2.0000    -322.870948     -8785.7652 
   1   2.0000     -38.854072     -1057.2731 
   2   2.0000     -34.052039      -926.6031 
   3   2.0000     -34.049998      -926.5475 
   4   2.0000     -34.049998      -926.5475 
   5   2.0000      -4.403319      -119.8204 
   6   2.0000      -2.902501       -78.9811 
   7   2.0000      -2.894901       -78.7743 
   8   2.0000      -2.894901       -78.7743 
   9   2.0000      -0.440408       -11.9841 
  10   2.0000      -0.393068       -10.6959 
  11   2.0000      -0.393068       -10.6959 
  12   2.0000      -0.386410       -10.5147 
  13   2.0000      -0.386410       -10.5147 
  14   2.0000      -0.332435        -9.0460 
  15   0.0000      -0.008790        -0.2392 
  16   0.0000       0.045509         1.2384 
  17   0.0000       0.045509         1.2384 
  18   0.0000       0.110869         3.0169 
  19   0.0000       0.123332         3.3560 
  20   0.0000       0.190187         5.1753 
  21   0.0000       0.190187         5.1753 
  22   0.0000       0.217150         5.9090 
  23   0.0000       0.243279         6.6200 
  24   0.0000       0.243279         6.6200 
  25   0.0000       0.252580         6.8731 
  26   0.0000       0.252580         6.8731 
  27   0.0000       0.350237         9.5304 
  28   0.0000       0.362766         9.8714 
  29   0.0000       0.362766         9.8714 
  30   0.0000       0.445514        12.1231 
  31   0.0000       0.547870        14.9083 
  32   0.0000       0.760740        20.7008 
  33   0.0000       0.760740        20.7008 
  34   0.0000       0.802085        21.8258 
  35   0.0000       0.908204        24.7135 
  36   0.0000       0.908204        24.7135 
  37   0.0000       0.995029        27.0761 
  38   0.0000       0.995032        27.0762 
  39   0.0000       1.129486        30.7349 
  40   0.0000       1.206681        32.8355 
  41   0.0000       1.206681        32.8355 
  42   0.0000       1.391717        37.8705 
  43   0.0000       2.616345        71.1944 
  44   0.0000       2.806526        76.3694 
  45   0.0000       3.075374        83.6852 
  46   0.0000       3.075374        83.6852 
  47   0.0000       3.140219        85.4497 
  48   0.0000       3.140219        85.4497 
  49   0.0000       3.272470        89.0484 
  50   0.0000       3.272471        89.0485 
  51   0.0000       3.323499        90.4370 
  52   0.0000       3.426185        93.2312 
  53   0.0000       3.546364        96.5015 
  54   0.0000       3.546364        96.5015 
  55   0.0000       3.634315        98.8947 
  56   0.0000       3.634319        98.8948 
  57   0.0000       3.785295       103.0031 
  58   0.0000       3.785306       103.0034 
  59   0.0000       3.785836       103.0178 
  60   0.0000       3.785836       103.0178 
  61   0.0000       3.891636       105.8968 
  62   0.0000       3.979913       108.2989 
  63   0.0000       3.979913       108.2989 
  64   0.0000       4.288788       116.7039 
  65   0.0000       4.288788       116.7039 
  66   0.0000       4.405801       119.8879 
  67   0.0000       5.398766       146.9079 
  68   0.0000      13.065478       355.5297 
  69   0.0000      13.065480       355.5298 
  70   0.0000      13.068231       355.6046 
  71   0.0000      13.068231       355.6046 
  72   0.0000      13.071741       355.7002 
  73   0.0000      13.071752       355.7005 
  74   0.0000      13.075365       355.7988 
  75   0.0000      13.075365       355.7988 
  76   0.0000      13.084060       356.0354 
  77   0.0000      13.243785       360.3817 
  78   0.0000      13.243785       360.3817 
  79   0.0000      13.245331       360.4238 
  80   0.0000      13.245342       360.4241 
  81   0.0000      13.343040       363.0826 
  82   0.0000      13.343040       363.0826 
  83   0.0000      13.570666       369.2766 

                    ********************************
                    * MULLIKEN POPULATION ANALYSIS *
                    ********************************

-----------------------
MULLIKEN ATOMIC CHARGES
-----------------------
   0 Cu:   -0.210893
   1 H :    0.210893
Sum of atomic charges:   -0.0000000

--------------------------------
MULLIKEN REDUCED ORBITAL CHARGES
--------------------------------
  0 Cus       :     7.136121  s :     7.136121
      pz      :     4.182776  p :    12.184043
      px      :     4.000634
      py      :     4.000634
      dz2     :     1.897834  d :     9.890345
      dxz     :     1.996321
      dyz     :     1.996321
      dx2y2   :     1.999935
      dxy     :     1.999935
      f0      :     0.000237  f :     0.000381
      f+1     :     0.000034
      f-1     :     0.000034
      f+2     :     0.000038
      f-2     :     0.000038
      f+3     :     0.000000
      f-3     :     0.000000
      g0      :     0.000002  g :     0.000003
      g+1     :     0.000000
      g-1     :     0.000000
      g+2     :     0.000000
      g-2     :     0.000000
      g+3     :     0.000000
      g-3     :     0.000000
      g+4     :     0.000000
      g-4     :     0.000000
  1 H s       :     0.809241  s :     0.809241
      pz      :    -0.027249  p :    -0.022629
      px      :     0.002310
      py      :     0.002310
      dz2     :     0.001038  d :     0.002495
      dxz     :     0.000701
      dyz     :     0.000701
      dx2y2   :     0.000027
      dxy     :     0.000027


                     *******************************
                     * LOEWDIN POPULATION ANALYSIS *
                     *******************************

----------------------
LOEWDIN ATOMIC CHARGES
----------------------
   0 Cu:    0.267856
   1 H :   -0.267856

-------------------------------
LOEWDIN REDUCED ORBITAL CHARGES
-------------------------------
  0 Cus       :     6.741506  s :     6.741506
      pz      :     4.134656  p :    12.135144
      px      :     4.000244
      py      :     4.000244
      dz2     :     1.903010  d :     9.854524
      dxz     :     1.976136
      dyz     :     1.976136
      dx2y2   :     1.999621
      dxy     :     1.999621
      f0      :     0.000665  f :     0.000967
      f+1     :     0.000111
      f-1     :     0.000111
      f+2     :     0.000039
      f-2     :     0.000039
      f+3     :     0.000000
      f-3     :     0.000000
      g0      :     0.000003  g :     0.000003
      g+1     :     0.000000
      g-1     :     0.000000
      g+2     :     0.000000
      g-2     :     0.000000
      g+3     :     0.000000
      g-3     :     0.000000
      g+4     :     0.000000
      g-4     :     0.000000
  1 H s       :     1.110476  s :     1.110476
      pz      :     0.099263  p :     0.135992
      px      :     0.018364
      py      :     0.018364
      dz2     :     0.010420  d :     0.021388
      dxz     :     0.005144
      dyz     :     0.005144
      dx2y2   :     0.000340
      dxy     :     0.000340


                      *****************************
                      * MAYER POPULATION ANALYSIS *
                      *****************************

  NA   - Mulliken gross atomic population
  ZA   - Total nuclear charge
  QA   - Mulliken gross atomic charge
  VA   - Mayer's total valence
  BVA  - Mayer's bonded valence
  FA   - Mayer's free valence

  ATOM       NA         ZA         QA         VA         BVA        FA
  0 Cu    29.2109    29.0000    -0.2109     0.9455     0.9455    -0.0000
  1 H      0.7891     1.0000     0.2109     0.9455     0.9455    -0.0000

  Mayer bond orders larger than 0.100000
B(  0-Cu,  1-H ) :   0.9455 

-------
TIMINGS
-------

Total SCF time: 0 days 0 hours 0 min 6 sec 

Total time                  ....       6.570 sec
Sum of individual times     ....       6.208 sec  ( 94.5%)

Fock matrix formation       ....       5.826 sec  ( 88.7%)
  XC integration            ....       0.860 sec  ( 14.8% of F)
    Basis function eval.    ....       0.027 sec  (  3.2% of XC)
    Density eval.           ....       0.018 sec  (  2.1% of XC)
    XC-Functional eval.     ....       0.034 sec  (  3.9% of XC)
    XC-Potential eval.      ....       0.027 sec  (  3.1% of XC)
Diagonalization             ....       0.021 sec  (  0.3%)
Density matrix formation    ....       0.004 sec  (  0.1%)
Population analysis         ....       0.005 sec  (  0.1%)
Initial guess               ....       0.107 sec  (  1.6%)
Orbital Transformation      ....       0.000 sec  (  0.0%)
Orbital Orthonormalization  ....       0.000 sec  (  0.0%)
DIIS solution               ....       0.124 sec  (  1.9%)
Grid generation             ....       0.120 sec  (  1.8%)

-------------------------   --------------------
FINAL SINGLE POINT ENERGY     -1640.922635094572
-------------------------   --------------------


----------------------------------------------------------------------------
                           ORCA NUMERICAL GRADIENT
                              (24-process run)
----------------------------------------------------------------------------

I state                        ... 1
J state                        ... 0
Number of atoms                ... 2
Derivative's order of accuracy ... 2
Central differences            ... used
Number of displacements        ... 12
Numerical increment            ... 5.000e-03 bohr
Translation invariance         ... used

The output will be reduced. Please look at the following files:
SCF program output             ... >Cu01N0_H.lastscf
Integral program output        ... >Cu01N0_H.lastint
Gradient program output        ... >Cu01N0_H.lastgrad


     Note:   There are more processes than displacements to do
     ===>:   Reducing number of processes to   3

             <<<Displacing   2/coordinate 3 (+)>>>
             <<<Displacing   2/coordinate 1 (+)>>>
             <<<Displacing   2/coordinate 2 (+)>>>
             <<<Displacing   2/coordinate 1 (-)>>>
             <<<Displacing   2/coordinate 2 (-)>>>
             <<<Displacing   2/coordinate 3 (-)>>>

------------------------------
CARTESIAN GRADIENT (NUMERICAL)
-------------------------------
   1   Cu  :   -0.000000003   -0.000000004   -0.008339844
   2   H   :    0.000000003    0.000000004    0.008339844

Norm of the cartesian gradient     ...    0.011794321
RMS gradient                       ...    0.004815011
MAX gradient                       ...    0.008339844

-------
TIMINGS
-------

Total numerical gradient time      ...       35.254 sec

------------------------------------------------------------------------------
                         ORCA GEOMETRY RELAXATION STEP
------------------------------------------------------------------------------

Reading the OPT-File                    .... done
Getting information on internals        .... done
Copying old internal coords+grads       .... done
Making the new internal coordinates     .... (new redundants).... done
Validating the new internal coordinates .... (new redundants).... done
Calculating the B-matrix                .... done
Calculating the G,G- and P matrices     .... done
Transforming gradient to internals      .... done
Projecting the internal gradient        .... done
Number of atoms                         ....   2
Number of internal coordinates          ....   1
Current Energy                          .... -1640.922635095 Eh
Current gradient norm                   ....     0.011794321 Eh/bohr
Maximum allowed component of the step   ....  0.300
Current trust radius                    ....  0.300
Evaluating the initial hessian          ....  (Almloef) done
Projecting the Hessian                  .... done
Forming the augmented Hessian           .... done
Diagonalizing the augmented Hessian     .... done
Last element of RFO vector              ....  0.999961630
Lowest eigenvalues of augmented Hessian:
 -0.000073060
Length of the computed step             ....  0.008760360
The final length of the internal step   ....  0.008760360
Converting the step to cartesian space:
 Initial RMS(Int)=    0.0087603597
Transforming coordinates:
 Iter   0:  RMS(Cart)=    0.0025288980 RMS(Int)=    0.0087603597
 Iter   1:  RMS(Cart)=    0.0000000000 RMS(Int)=    0.0000000000
done
Storing new coordinates                 .... done

                                .--------------------.
          ----------------------|Geometry convergence|-------------------------
          Item                value                   Tolerance       Converged
          ---------------------------------------------------------------------
          RMS gradient        0.0083398440            0.0001000000      NO
          MAX gradient        0.0083398440            0.0003000000      NO
          RMS step            0.0087603597            0.0020000000      NO
          MAX step            0.0087603597            0.0040000000      NO
          ........................................................
          Max(Bonds)      0.0046      Max(Angles)    0.00
          Max(Dihed)        0.00      Max(Improp)    0.00
          ---------------------------------------------------------------------

The optimization has not yet converged - more geometry cycles are needed


    ---------------------------------------------------------------------------
                         Redundant Internal Coordinates
                            (Angstroem and degrees)

        Definition                    Value    dE/dq     Step     New-Value
    ----------------------------------------------------------------------------
     1. B(H   1,Cu  0)                1.4554 -0.008340  0.0046    1.4600   
    ----------------------------------------------------------------------------

         *************************************************************
         *                GEOMETRY OPTIMIZATION CYCLE   2            *
         *************************************************************
---------------------------------
CARTESIAN COORDINATES (ANGSTROEM)
---------------------------------
  Cu     0.000000    0.000000    0.050831
  H      0.000000    0.000000   -1.409188

----------------------------
CARTESIAN COORDINATES (A.U.)
----------------------------
  NO LB      ZA    FRAG     MASS         X           Y           Z
   0 Cu   29.0000    0    63.550    0.000000    0.000000    0.096056
   1 H     1.0000    0     1.008    0.000000    0.000000   -2.662979

--------------------------------
INTERNAL COORDINATES (ANGSTROEM)
--------------------------------
 Cu     0   0   0     0.000000000000     0.00000000     0.00000000
 H      1   0   0     1.460018782673     0.00000000     0.00000000

---------------------------
INTERNAL COORDINATES (A.U.)
---------------------------
 Cu     0   0   0     0.000000000000     0.00000000     0.00000000
 H      1   0   0     2.759035649633     0.00000000     0.00000000



           ************************************************************
           *        Program running with 24 parallel MPI-processes    *
           *              working on a common directory               *
           ************************************************************


           ************************************************************
           *        Program running with 24 parallel MPI-processes    *
           *              working on a common directory               *
           ************************************************************

Diagonalization of the overlap matrix:
Smallest eigenvalue                        ... 2.027e-03
Time for diagonalization                   ...    0.002 sec
Threshold for overlap eigenvalues          ... 1.000e-08
Number of eigenvalues below threshold      ... 0
Time for construction of square roots      ...    0.005 sec
Total time needed                          ...    0.006 sec

-------------------
DFT GRID GENERATION
-------------------

General Integration Accuracy     IntAcc      ...  4.670
Radial Grid Type                 RadialGrid  ... Gauss-Chebyshev
Angular Grid (max. acc.)         AngularGrid ... Lebedev-302
Angular grid pruning method      GridPruning ... 3 (G Style)
Weight generation scheme         WeightScheme... Becke
Basis function cutoff            BFCut       ...    1.0000e-11
Integration weight cutoff        WCut        ...    1.0000e-14
Grids for H and He will be reduced by one unit

# of grid points (after initial pruning)     ...  12950 (   0.0 sec)
# of grid points (after weights+screening)   ...  12913 (   0.0 sec)
nearest neighbour list constructed           ...    0.0 sec
Grid point re-assignment to atoms done       ...    0.0 sec
Grid point division into batches done        ...    0.1 sec
Reduced shell lists constructed in    0.1 sec

Total number of grid points                  ...    12913
Total number of batches                      ...      203
Average number of points per batch           ...       63
Average number of grid points per atom       ...     6456
Average number of shells per batch           ...     6.10 (23.46%)
Average number of basis functions per batch  ...    14.90 (17.74%)
Average number of large shells per batch     ...     4.40 (72.13%)
Average number of large basis fcns per batch ...    12.60 (84.56%)
Maximum spatial batch extension              ...  28.79, 26.18, 17.10 au
Average spatial batch extension              ...   0.94,  0.87,  0.65 au

Time for grid setup =    0.104 sec

--------------
SCF ITERATIONS
--------------
ITER       Energy         Delta-E        Max-DP      RMS-DP      [F,P]     Damp
               ***  Starting incremental Fock matrix formation  ***
  0  -1641.0502674699   0.000000000000 0.00035662  0.00000937  0.0017732 0.7000
  1  -1641.0502679633  -0.000000493372 0.00040786  0.00000920  0.0012421 0.7000
                               ***Turning on DIIS***
  2  -1641.0502683556  -0.000000392351 0.00134331  0.00002643  0.0008697 0.0000
  3  -1641.0502694924  -0.000001136789 0.00062666  0.00000970  0.0001435 0.0000
  4  -1641.0502696159  -0.000000123464 0.00022480  0.00000438  0.0000547 0.0000
  5  -1641.0502696548  -0.000000038917 0.00017138  0.00000308  0.0000350 0.0000
  6  -1641.0502696682  -0.000000013371 0.00003176  0.00000101  0.0000471 0.0000
  7  -1641.0502696728  -0.000000004589 0.00007542  0.00000172  0.0000207 0.0000
  8  -1641.0502696759  -0.000000003128 0.00002329  0.00000054  0.0000061 0.0000
                 **** Energy Check signals convergence ****

               *****************************************************
               *                     SUCCESS                       *
               *           SCF CONVERGED AFTER   9 CYCLES          *
               *****************************************************


Setting up the DFT-NL grid :

General Integration Accuracy     IntAcc      ...  4.340
Radial Grid Type                 RadialGrid  ... Gauss-Chebyshev
Angular Grid (max. acc.)         AngularGrid ... Lebedev-110
Angular grid pruning method      GridPruning ... 3 (G Style)
Weight generation scheme         WeightScheme... Becke
Basis function cutoff            BFCut       ...    1.0000e-11
Integration weight cutoff        WCut        ...    1.0000e-14
Grids for H and He will be reduced by one unit

# of grid points (after initial pruning)     ...   3706 (   0.0 sec)
# of grid points (after weights+screening)   ...   3681 (   0.0 sec)
nearest neighbour list constructed           ...    0.0 sec
Grid point re-assignment to atoms done       ...    0.0 sec
Grid point division into batches done        ...    0.0 sec
Reduced shell lists constructed in    0.0 sec

Total number of grid points                  ...     3681
Total number of batches                      ...       58
Average number of points per batch           ...       63
Average number of grid points per atom       ...     1840
Average number of shells per batch           ...     8.50 (32.69%)
Average number of basis functions per batch  ...    22.50 (26.79%)
Average number of large shells per batch     ...     7.25 (85.29%)
Average number of large basis fcns per batch ...    19.75 (87.78%)
Maximum spatial batch extension              ...  34.10, 26.34, 18.34 au
Average spatial batch extension              ...   1.21,  1.23,  0.81 au

Final grid set up in    0.0 sec

-------------------------------------------------------------------------------
                         DFT-NL dispersion correction                          
-------------------------------------------------------------------------------

SC Energy -1641.050269676 
NL    Energy 0.127567433 
SC+NL Energy -1640.922702243 
NL done in    0.0 sec
-------------------------------------------------------------------------------
Total Energy       :        -1640.92270224 Eh          -44651.77678 eV
  Last Energy change         ...   -3.4106e-12  Tolerance :   1.0000e-08
  Last MAX-Density change    ...    7.6820e-06  Tolerance :   1.0000e-07
             **** THE GBW FILE WAS UPDATED (Cu01N0_H.gbw) ****
             **** DENSITY FILE WAS UPDATED (Cu01N0_H.scfp) ****
             **** ENERGY FILE WAS UPDATED (Cu01N0_H.en.tmp) ****
             **** THE GBW FILE WAS UPDATED (Cu01N0_H.gbw) ****
             **** DENSITY FILE WAS UPDATED (Cu01N0_H.scfp) ****
Total SCF time: 0 days 0 hours 0 min 3 sec 

-------------------------   --------------------
FINAL SINGLE POINT ENERGY     -1640.922702242573
-------------------------   --------------------


----------------------------------------------------------------------------
                           ORCA NUMERICAL GRADIENT
                              (24-process run)
----------------------------------------------------------------------------

I state                        ... 1
J state                        ... 0
Number of atoms                ... 2
Derivative's order of accuracy ... 2
Central differences            ... used
Number of displacements        ... 12
Numerical increment            ... 5.000e-03 bohr
Translation invariance         ... used

The output will be reduced. Please look at the following files:
SCF program output             ... >Cu01N0_H.lastscf
Integral program output        ... >Cu01N0_H.lastint
Gradient program output        ... >Cu01N0_H.lastgrad


     Note:   There are more processes than displacements to do
     ===>:   Reducing number of processes to   3

             <<<Displacing   2/coordinate 2 (+)>>>
             <<<Displacing   2/coordinate 3 (+)>>>
             <<<Displacing   2/coordinate 1 (+)>>>
             <<<Displacing   2/coordinate 1 (-)>>>
             <<<Displacing   2/coordinate 2 (-)>>>
             <<<Displacing   2/coordinate 3 (-)>>>

------------------------------
CARTESIAN GRADIENT (NUMERICAL)
-------------------------------
   1   Cu  :   -0.000000002   -0.000000001   -0.006997504
   2   H   :    0.000000002    0.000000001    0.006997504

Norm of the cartesian gradient     ...    0.009895965
RMS gradient                       ...    0.004040011
MAX gradient                       ...    0.006997504

-------
TIMINGS
-------

Total numerical gradient time      ...       35.369 sec

------------------------------------------------------------------------------
                         ORCA GEOMETRY RELAXATION STEP
------------------------------------------------------------------------------

Reading the OPT-File                    .... done
Getting information on internals        .... done
Copying old internal coords+grads       .... done
Making the new internal coordinates     .... (new redundants).... done
Validating the new internal coordinates .... (new redundants).... done
Calculating the B-matrix                .... done
Calculating the G,G- and P matrices     .... done
Transforming gradient to internals      .... done
Projecting the internal gradient        .... done
Number of atoms                         ....   2
Number of internal coordinates          ....   1
Current Energy                          .... -1640.922702243 Eh
Current gradient norm                   ....     0.009895965 Eh/bohr
Maximum allowed component of the step   ....  0.300
Current trust radius                    ....  0.300
Updating the Hessian (BFGS)             .... done
Forming the augmented Hessian           .... done
Diagonalizing the augmented Hessian     .... done
Last element of RFO vector              ....  0.998963204
Lowest eigenvalues of augmented Hessian:
 -0.000318891
Length of the computed step             ....  0.045572157
The final length of the internal step   ....  0.045572157
Converting the step to cartesian space:
 Initial RMS(Int)=    0.0455721567
Transforming coordinates:
 Iter   0:  RMS(Cart)=    0.0131555485 RMS(Int)=    0.0455721567
 Iter   1:  RMS(Cart)=    0.0000000000 RMS(Int)=    0.0000000000
done
Storing new coordinates                 .... done

                                .--------------------.
          ----------------------|Geometry convergence|-------------------------
          Item                value                   Tolerance       Converged
          ---------------------------------------------------------------------
          Energy change      -0.0000671480            0.0000050000      NO
          RMS gradient        0.0069975038            0.0001000000      NO
          MAX gradient        0.0069975038            0.0003000000      NO
          RMS step            0.0455721567            0.0020000000      NO
          MAX step            0.0455721567            0.0040000000      NO
          ........................................................
          Max(Bonds)      0.0241      Max(Angles)    0.00
          Max(Dihed)        0.00      Max(Improp)    0.00
          ---------------------------------------------------------------------

The optimization has not yet converged - more geometry cycles are needed


    ---------------------------------------------------------------------------
                         Redundant Internal Coordinates
                            (Angstroem and degrees)

        Definition                    Value    dE/dq     Step     New-Value
    ----------------------------------------------------------------------------
     1. B(H   1,Cu  0)                1.4600 -0.006998  0.0241    1.4841   
    ----------------------------------------------------------------------------

         *************************************************************
         *                GEOMETRY OPTIMIZATION CYCLE   3            *
         *************************************************************


           ************************************************************
           *        Program running with 24 parallel MPI-processes    *
           *              working on a common directory               *
           ************************************************************


           ************************************************************
           *        Program running with 24 parallel MPI-processes    *
           *              working on a common directory               *
           ************************************************************

Diagonalization of the overlap matrix:
Smallest eigenvalue                        ... 2.223e-03
Time for diagonalization                   ...    0.002 sec
Threshold for overlap eigenvalues          ... 1.000e-08
Number of eigenvalues below threshold      ... 0
Time for construction of square roots      ...    0.005 sec
Total time needed                          ...    0.007 sec

-------------------
DFT GRID GENERATION
-------------------

General Integration Accuracy     IntAcc      ...  4.670
Radial Grid Type                 RadialGrid  ... Gauss-Chebyshev
Angular Grid (max. acc.)         AngularGrid ... Lebedev-302
Angular grid pruning method      GridPruning ... 3 (G Style)
Weight generation scheme         WeightScheme... Becke
Basis function cutoff            BFCut       ...    1.0000e-11
Integration weight cutoff        WCut        ...    1.0000e-14
Grids for H and He will be reduced by one unit

# of grid points (after initial pruning)     ...  12950 (   0.0 sec)
# of grid points (after weights+screening)   ...  12913 (   0.0 sec)
nearest neighbour list constructed           ...    0.0 sec
Grid point re-assignment to atoms done       ...    0.0 sec
Grid point division into batches done        ...    0.1 sec
Reduced shell lists constructed in    0.1 sec

Total number of grid points                  ...    12913
Total number of batches                      ...      203
Average number of points per batch           ...       63
Average number of grid points per atom       ...     6456
Average number of shells per batch           ...     6.10 (23.46%)
Average number of basis functions per batch  ...    14.90 (17.74%)
Average number of large shells per batch     ...     4.40 (72.13%)
Average number of large basis fcns per batch ...    12.60 (84.56%)
Maximum spatial batch extension              ...  28.79, 26.18, 17.10 au
Average spatial batch extension              ...   0.94,  0.87,  0.65 au

Time for grid setup =    0.103 sec

--------------
SCF ITERATIONS
--------------
ITER       Energy         Delta-E        Max-DP      RMS-DP      [F,P]     Damp
               ***  Starting incremental Fock matrix formation  ***
  0  -1641.0503948985   0.000000000000 0.00205903  0.00005037  0.0092626 0.7000
  1  -1641.0504077883  -0.000012889821 0.00230070  0.00004957  0.0064883 0.7000
                               ***Turning on DIIS***
  2  -1641.0504180669  -0.000010278637 0.00687217  0.00013648  0.0045432 0.0000
  3  -1641.0504468613  -0.000028794385 0.00370124  0.00005609  0.0008608 0.0000
  4  -1641.0504508501  -0.000003988822 0.00123016  0.00002342  0.0003109 0.0000
  5  -1641.0504520560  -0.000001205869 0.00081222  0.00001671  0.0002067 0.0000
  6  -1641.0504525430  -0.000000487016 0.00034284  0.00000654  0.0002460 0.0000
  7  -1641.0504526738  -0.000000130734 0.00035411  0.00000912  0.0001108 0.0000
  8  -1641.0504527729  -0.000000099113 0.00014537  0.00000342  0.0000359 0.0000
  9  -1641.0504527833  -0.000000010450 0.00004807  0.00000100  0.0000092 0.0000
 10  -1641.0504527839  -0.000000000595 0.00001190  0.00000025  0.0000022 0.0000
 11  -1641.0504527840  -0.000000000036 0.00000261  0.00000006  0.0000010 0.0000
                            ***DIIS convergence achieved***

               *****************************************************
               *                     SUCCESS                       *
               *           SCF CONVERGED AFTER  12 CYCLES          *
               *****************************************************


Setting up the DFT-NL grid :

General Integration Accuracy     IntAcc      ...  4.340
Radial Grid Type                 RadialGrid  ... Gauss-Chebyshev
Angular Grid (max. acc.)         AngularGrid ... Lebedev-110
Angular grid pruning method      GridPruning ... 3 (G Style)
Weight generation scheme         WeightScheme... Becke
Basis function cutoff            BFCut       ...    1.0000e-11
Integration weight cutoff        WCut        ...    1.0000e-14
Grids for H and He will be reduced by one unit

# of grid points (after initial pruning)     ...   3706 (   0.0 sec)
# of grid points (after weights+screening)   ...   3681 (   0.0 sec)
nearest neighbour list constructed           ...    0.0 sec
Grid point re-assignment to atoms done       ...    0.0 sec
Grid point division into batches done        ...    0.0 sec
Reduced shell lists constructed in    0.0 sec

Total number of grid points                  ...     3681
Total number of batches                      ...       58
Average number of points per batch           ...       63
Average number of grid points per atom       ...     1840
Average number of shells per batch           ...     8.50 (32.69%)
Average number of basis functions per batch  ...    22.50 (26.79%)
Average number of large shells per batch     ...     7.25 (85.29%)
Average number of large basis fcns per batch ...    19.75 (87.78%)
Maximum spatial batch extension              ...  34.10, 26.34, 18.34 au
Average spatial batch extension              ...   1.21,  1.23,  0.81 au

Final grid set up in    0.0 sec

-------------------------------------------------------------------------------
                         DFT-NL dispersion correction                          
-------------------------------------------------------------------------------

SC Energy -1641.050452784 
NL    Energy 0.127583831 
SC+NL Energy -1640.922868953 
NL done in    0.0 sec
-------------------------------------------------------------------------------
Total Energy       :        -1640.92286895 Eh          -44651.78132 eV
  Last Energy change         ...   -6.9122e-11  Tolerance :   1.0000e-08
  Last MAX-Density change    ...    6.6753e-07  Tolerance :   1.0000e-07
             **** THE GBW FILE WAS UPDATED (Cu01N0_H.gbw) ****
             **** DENSITY FILE WAS UPDATED (Cu01N0_H.scfp) ****
             **** ENERGY FILE WAS UPDATED (Cu01N0_H.en.tmp) ****
             **** THE GBW FILE WAS UPDATED (Cu01N0_H.gbw) ****
             **** DENSITY FILE WAS UPDATED (Cu01N0_H.scfp) ****
Total SCF time: 0 days 0 hours 0 min 4 sec 

-------------------------   --------------------
FINAL SINGLE POINT ENERGY     -1640.922868952992
-------------------------   --------------------


----------------------------------------------------------------------------
                           ORCA NUMERICAL GRADIENT
                              (24-process run)
----------------------------------------------------------------------------

I state                        ... 1
J state                        ... 0
Number of atoms                ... 2
Derivative's order of accuracy ... 2
Central differences            ... used
Number of displacements        ... 12
Numerical increment            ... 5.000e-03 bohr
Translation invariance         ... used

The output will be reduced. Please look at the following files:
SCF program output             ... >Cu01N0_H.lastscf
Integral program output        ... >Cu01N0_H.lastint
Gradient program output        ... >Cu01N0_H.lastgrad


     Note:   There are more processes than displacements to do
     ===>:   Reducing number of processes to   3

             <<<Displacing   2/coordinate 1 (+)>>>
             <<<Displacing   2/coordinate 2 (+)>>>
             <<<Displacing   2/coordinate 3 (+)>>>
             <<<Displacing   2/coordinate 2 (-)>>>
             <<<Displacing   2/coordinate 3 (-)>>>
             <<<Displacing   2/coordinate 1 (-)>>>

------------------------------
CARTESIAN GRADIENT (NUMERICAL)
-------------------------------
   1   Cu  :   -0.000000001    0.000000000   -0.000437037
   2   H   :    0.000000001   -0.000000000    0.000437037

Norm of the cartesian gradient     ...    0.000618064
RMS gradient                       ...    0.000252324
MAX gradient                       ...    0.000437037

-------
TIMINGS
-------

Total numerical gradient time      ...       34.888 sec

------------------------------------------------------------------------------
                         ORCA GEOMETRY RELAXATION STEP
------------------------------------------------------------------------------

Reading the OPT-File                    .... done
Getting information on internals        .... done
Copying old internal coords+grads       .... done
Making the new internal coordinates     .... (new redundants).... done
Validating the new internal coordinates .... (new redundants).... done
Calculating the B-matrix                .... done
Calculating the G,G- and P matrices     .... done
Transforming gradient to internals      .... done
Projecting the internal gradient        .... done
Number of atoms                         ....   2
Number of internal coordinates          ....   1
Current Energy                          .... -1640.922868953 Eh
Current gradient norm                   ....     0.000618064 Eh/bohr
Maximum allowed component of the step   ....  0.300
Current trust radius                    ....  0.300
Updating the Hessian (BFGS)             .... done
Forming the augmented Hessian           .... done
Diagonalizing the augmented Hessian     .... done
Last element of RFO vector              ....  0.999995392
Lowest eigenvalues of augmented Hessian:
 -0.000001327
Length of the computed step             ....  0.003035843
The final length of the internal step   ....  0.003035843
Converting the step to cartesian space:
 Initial RMS(Int)=    0.0030358432
Transforming coordinates:
 Iter   0:  RMS(Cart)=    0.0008763725 RMS(Int)=    0.0030358432
 Iter   1:  RMS(Cart)=    0.0000000000 RMS(Int)=    0.0000000000
done
Storing new coordinates                 .... done

                                .--------------------.
          ----------------------|Geometry convergence|-------------------------
          Item                value                   Tolerance       Converged
          ---------------------------------------------------------------------
          Energy change      -0.0001667104            0.0000050000      NO
          RMS gradient        0.0004370373            0.0001000000      NO
          MAX gradient        0.0004370373            0.0003000000      NO
          RMS step            0.0030358432            0.0020000000      NO
          MAX step            0.0030358432            0.0040000000      YES
          ........................................................
          Max(Bonds)      0.0016      Max(Angles)    0.00
          Max(Dihed)        0.00      Max(Improp)    0.00
          ---------------------------------------------------------------------

The optimization has not yet converged - more geometry cycles are needed


    ---------------------------------------------------------------------------
                         Redundant Internal Coordinates
                            (Angstroem and degrees)

        Definition                    Value    dE/dq     Step     New-Value
    ----------------------------------------------------------------------------
     1. B(H   1,Cu  0)                1.4841 -0.000437  0.0016    1.4857   
    ----------------------------------------------------------------------------

         *************************************************************
         *                GEOMETRY OPTIMIZATION CYCLE   4            *
         *************************************************************


           ************************************************************
           *        Program running with 24 parallel MPI-processes    *
           *              working on a common directory               *
           ************************************************************


           ************************************************************
           *        Program running with 24 parallel MPI-processes    *
           *              working on a common directory               *
           ************************************************************

Diagonalization of the overlap matrix:
Smallest eigenvalue                        ... 2.236e-03
Time for diagonalization                   ...    0.002 sec
Threshold for overlap eigenvalues          ... 1.000e-08
Number of eigenvalues below threshold      ... 0
Time for construction of square roots      ...    0.004 sec
Total time needed                          ...    0.006 sec

-------------------
DFT GRID GENERATION
-------------------

General Integration Accuracy     IntAcc      ...  4.670
Radial Grid Type                 RadialGrid  ... Gauss-Chebyshev
Angular Grid (max. acc.)         AngularGrid ... Lebedev-302
Angular grid pruning method      GridPruning ... 3 (G Style)
Weight generation scheme         WeightScheme... Becke
Basis function cutoff            BFCut       ...    1.0000e-11
Integration weight cutoff        WCut        ...    1.0000e-14
Grids for H and He will be reduced by one unit

# of grid points (after initial pruning)     ...  12950 (   0.0 sec)
# of grid points (after weights+screening)   ...  12913 (   0.0 sec)
nearest neighbour list constructed           ...    0.0 sec
Grid point re-assignment to atoms done       ...    0.0 sec
Grid point division into batches done        ...    0.1 sec
Reduced shell lists constructed in    0.1 sec

Total number of grid points                  ...    12913
Total number of batches                      ...      203
Average number of points per batch           ...       63
Average number of grid points per atom       ...     6456
Average number of shells per batch           ...     6.10 (23.46%)
Average number of basis functions per batch  ...    14.90 (17.74%)
Average number of large shells per batch     ...     4.40 (72.13%)
Average number of large basis fcns per batch ...    12.60 (84.56%)
Maximum spatial batch extension              ...  28.79, 26.18, 17.10 au
Average spatial batch extension              ...   0.94,  0.87,  0.65 au

Time for grid setup =    0.105 sec

--------------
SCF ITERATIONS
--------------
ITER       Energy         Delta-E        Max-DP      RMS-DP      [F,P]     Damp
               ***  Starting incremental Fock matrix formation  ***
  0  -1641.0504543269   0.000000000000 0.00014618  0.00000341  0.0006516 0.7000
  1  -1641.0504543820  -0.000000055063 0.00016172  0.00000338  0.0004564 0.7000
                               ***Turning on DIIS***
  2  -1641.0504544258  -0.000000043839 0.00051964  0.00000972  0.0003196 0.0000
  3  -1641.0504545535  -0.000000127667 0.00022341  0.00000343  0.0000481 0.0000
  4  -1641.0504545674  -0.000000013925 0.00008114  0.00000152  0.0000182 0.0000
  5  -1641.0504545719  -0.000000004518 0.00005864  0.00000105  0.0000115 0.0000
  6  -1641.0504545735  -0.000000001569 0.00001109  0.00000034  0.0000152 0.0000
  7  -1641.0504545742  -0.000000000647 0.00002462  0.00000058  0.0000072 0.0000
  8  -1641.0504545745  -0.000000000307 0.00000804  0.00000019  0.0000021 0.0000
                 **** Energy Check signals convergence ****

               *****************************************************
               *                     SUCCESS                       *
               *           SCF CONVERGED AFTER   9 CYCLES          *
               *****************************************************


Setting up the DFT-NL grid :

General Integration Accuracy     IntAcc      ...  4.340
Radial Grid Type                 RadialGrid  ... Gauss-Chebyshev
Angular Grid (max. acc.)         AngularGrid ... Lebedev-110
Angular grid pruning method      GridPruning ... 3 (G Style)
Weight generation scheme         WeightScheme... Becke
Basis function cutoff            BFCut       ...    1.0000e-11
Integration weight cutoff        WCut        ...    1.0000e-14
Grids for H and He will be reduced by one unit

# of grid points (after initial pruning)     ...   3706 (   0.0 sec)
# of grid points (after weights+screening)   ...   3681 (   0.0 sec)
nearest neighbour list constructed           ...    0.0 sec
Grid point re-assignment to atoms done       ...    0.0 sec
Grid point division into batches done        ...    0.0 sec
Reduced shell lists constructed in    0.0 sec

Total number of grid points                  ...     3681
Total number of batches                      ...       58
Average number of points per batch           ...       63
Average number of grid points per atom       ...     1840
Average number of shells per batch           ...     8.50 (32.69%)
Average number of basis functions per batch  ...    22.50 (26.79%)
Average number of large shells per batch     ...     7.25 (85.29%)
Average number of large basis fcns per batch ...    19.75 (87.78%)
Maximum spatial batch extension              ...  34.10, 26.34, 18.34 au
Average spatial batch extension              ...   1.21,  1.23,  0.81 au

Final grid set up in    0.0 sec

-------------------------------------------------------------------------------
                         DFT-NL dispersion correction                          
-------------------------------------------------------------------------------

SC Energy -1641.050454574 
NL    Energy 0.127584925 
SC+NL Energy -1640.922869649 
NL done in    0.0 sec
-------------------------------------------------------------------------------
Total Energy       :        -1640.92286965 Eh          -44651.78134 eV
  Last Energy change         ...    7.5715e-11  Tolerance :   1.0000e-08
  Last MAX-Density change    ...    2.8636e-06  Tolerance :   1.0000e-07
             **** THE GBW FILE WAS UPDATED (Cu01N0_H.gbw) ****
             **** DENSITY FILE WAS UPDATED (Cu01N0_H.scfp) ****
             **** ENERGY FILE WAS UPDATED (Cu01N0_H.en.tmp) ****
             **** THE GBW FILE WAS UPDATED (Cu01N0_H.gbw) ****
             **** DENSITY FILE WAS UPDATED (Cu01N0_H.scfp) ****
Total SCF time: 0 days 0 hours 0 min 3 sec 

-------------------------   --------------------
FINAL SINGLE POINT ENERGY     -1640.922869649258
-------------------------   --------------------


----------------------------------------------------------------------------
                           ORCA NUMERICAL GRADIENT
                              (24-process run)
----------------------------------------------------------------------------

I state                        ... 1
J state                        ... 0
Number of atoms                ... 2
Derivative's order of accuracy ... 2
Central differences            ... used
Number of displacements        ... 12
Numerical increment            ... 5.000e-03 bohr
Translation invariance         ... used

The output will be reduced. Please look at the following files:
SCF program output             ... >Cu01N0_H.lastscf
Integral program output        ... >Cu01N0_H.lastint
Gradient program output        ... >Cu01N0_H.lastgrad


     Note:   There are more processes than displacements to do
     ===>:   Reducing number of processes to   3

             <<<Displacing   2/coordinate 1 (+)>>>
             <<<Displacing   2/coordinate 2 (+)>>>
             <<<Displacing   2/coordinate 3 (+)>>>
             <<<Displacing   2/coordinate 1 (-)>>>
             <<<Displacing   2/coordinate 3 (-)>>>
             <<<Displacing   2/coordinate 2 (-)>>>

------------------------------
CARTESIAN GRADIENT (NUMERICAL)
-------------------------------
   1   Cu  :   -0.000000003    0.000000005   -0.000024211
   2   H   :    0.000000003   -0.000000005    0.000024211

Norm of the cartesian gradient     ...    0.000034239
RMS gradient                       ...    0.000013978
MAX gradient                       ...    0.000024211

-------
TIMINGS
-------

Total numerical gradient time      ...       34.891 sec

------------------------------------------------------------------------------
                         ORCA GEOMETRY RELAXATION STEP
------------------------------------------------------------------------------

Reading the OPT-File                    .... done
Getting information on internals        .... done
Copying old internal coords+grads       .... done
Making the new internal coordinates     .... (new redundants).... done
Validating the new internal coordinates .... (new redundants).... done
Calculating the B-matrix                .... done
Calculating the G,G- and P matrices     .... done
Transforming gradient to internals      .... done
Projecting the internal gradient        .... done
Number of atoms                         ....   2
Number of internal coordinates          ....   1
Current Energy                          .... -1640.922869649 Eh
Current gradient norm                   ....     0.000034239 Eh/bohr
Maximum allowed component of the step   ....  0.300
Current trust radius                    ....  0.300
Updating the Hessian (BFGS)             .... done
Forming the augmented Hessian           .... done
Diagonalizing the augmented Hessian     .... done
Last element of RFO vector              ....  0.999999984
Lowest eigenvalues of augmented Hessian:
 -0.000000004
Length of the computed step             ....  0.000178040
The final length of the internal step   ....  0.000178040
Converting the step to cartesian space:
 Initial RMS(Int)=    0.0001780396
Transforming coordinates:
 Iter   0:  RMS(Cart)=    0.0000513956 RMS(Int)=    0.0001780396
 Iter   1:  RMS(Cart)=    0.0000000000 RMS(Int)=    0.0000000000
done
Storing new coordinates                 .... done

                                .--------------------.
          ----------------------|Geometry convergence|-------------------------
          Item                value                   Tolerance       Converged
          ---------------------------------------------------------------------
          Energy change      -0.0000006963            0.0000050000      YES
          RMS gradient        0.0000242106            0.0001000000      YES
          MAX gradient        0.0000242106            0.0003000000      YES
          RMS step            0.0001780396            0.0020000000      YES
          MAX step            0.0001780396            0.0040000000      YES
          ........................................................
          Max(Bonds)      0.0001      Max(Angles)    0.00
          Max(Dihed)        0.00      Max(Improp)    0.00
          ---------------------------------------------------------------------

                    ***********************HURRAY********************
                    ***        THE OPTIMIZATION HAS CONVERGED     ***
                    *************************************************


    ---------------------------------------------------------------------------
                         Redundant Internal Coordinates

                          --- Optimized Parameters ---  
                            (Angstroem and degrees)

        Definition                    OldVal   dE/dq     Step     FinalVal
    ----------------------------------------------------------------------------
     1. B(H   1,Cu  0)                1.4857 -0.000024  0.0001    1.4858   
    ----------------------------------------------------------------------------
                 *******************************************************
                 *** FINAL ENERGY EVALUATION AT THE STATIONARY POINT ***
                 ***               (AFTER    4 CYCLES)               ***
                 *******************************************************
---------------------------------
CARTESIAN COORDINATES (ANGSTROEM)
---------------------------------
  Cu     0.000000    0.000000    0.063739
  H      0.000000    0.000000   -1.422096

----------------------------
CARTESIAN COORDINATES (A.U.)
----------------------------
  NO LB      ZA    FRAG     MASS         X           Y           Z
   0 Cu   29.0000    0    63.550    0.000000    0.000000    0.120449
   1 H     1.0000    0     1.008    0.000000    0.000000   -2.687372

--------------------------------
INTERNAL COORDINATES (ANGSTROEM)
--------------------------------
 Cu     0   0   0     0.000000000000     0.00000000     0.00000000
 H      1   0   0     1.485835242839     0.00000000     0.00000000

---------------------------
INTERNAL COORDINATES (A.U.)
---------------------------
 Cu     0   0   0     0.000000000000     0.00000000     0.00000000
 H      1   0   0     2.807821689094     0.00000000     0.00000000

---------------------
BASIS SET INFORMATION
---------------------
There are 2 groups of distinct atoms

 Group   1 Type Cu  : 17s13p7d2f1g contracted to 6s6p4d2f1g pattern {842111/631111/4111/11/1}
 Group   2 Type H   : 5s3p1d contracted to 3s3p1d pattern {311/111/1}

Atom   0Cu   basis set group =>   1
Atom   1H    basis set group =>   2
----------------------------------
AUXILIARY/JK BASIS SET INFORMATION
----------------------------------
There are 2 groups of distinct atoms

 Group   1 Type Cu  : 19s14p12d10f7g3h1i contracted to 16s13p11d9f5g3h1i pattern {4111111111111111/2111111111111/21111111111/211111111/31111/111/1}
 Group   2 Type H   : 4s2p2d contracted to 2s2p2d pattern {31/11/11}

Atom   0Cu   basis set group =>   1
Atom   1H    basis set group =>   2


           ************************************************************
           *        Program running with 24 parallel MPI-processes    *
           *              working on a common directory               *
           ************************************************************
------------------------------------------------------------------------------
                           ORCA GTO INTEGRAL CALCULATION
------------------------------------------------------------------------------

                         BASIS SET STATISTICS AND STARTUP INFO

 # of primitive gaussian shells          ...   49
 # of primitive gaussian functions       ...  133
 # of contracted shells                  ...   26
 # of contracted basis functions         ...   84
 Highest angular momentum                ...    4
 Maximum contraction depth               ...    8
 Integral package used                   ... LIBINT
 Integral threshhold            Thresh   ...  2.500e-11
 Primitive cut-off              TCut     ...  2.500e-12


------------------------------ INTEGRAL EVALUATION ----------------------------


 * One electron integrals 
 Pre-screening matrix                    ... done
 Shell pair data                         ... done (   0.000 sec)



           ************************************************************
           *        Program running with 24 parallel MPI-processes    *
           *              working on a common directory               *
           ************************************************************
-------------------------------------------------------------------------------
                                 ORCA SCF
-------------------------------------------------------------------------------

------------
SCF SETTINGS
------------
Hamiltonian:
 Density Functional     Method          .... DFT(GTOs)
 Exchange Functional    Exchange        .... WB97X-V
 Correlation Functional Correlation     .... WB97X-V
 Gradients option       PostSCFGGA      .... off
 Hybrid DFT is turned on
   Fraction HF Exchange ScalHFX         ....  0.167000
   Scaling of DF-GGA-X  ScalDFX         ....  0.000000
   Scaling of DF-GGA-C  ScalDFC         ....  1.000000
   Scaling of DF-LDA-C  ScalLDAC        ....  1.000000
   Perturbative correction              ....  0.000000
   Density functional embedding theory  .... OFF
 Long-range corrected/Screened/Range-Separated Hybrid DFT is turned on
   Amount of maximum screened exact exchange              ....  0.833000
   Range separation parameter mu (erf(mu*r12)/r12)        ....  0.300000
   NL short-range parameter             ....  6.000000
   NL long-range parameter              ....  0.010000


General Settings:
 Integral files         IntName         .... Cu01N0_H
 Hartree-Fock type      HFTyp           .... RHF
 Total Charge           Charge          ....    0
 Multiplicity           Mult            ....    1
 Number of Electrons    NEL             ....   30
 Basis Dimension        Dim             ....   84
 Nuclear Repulsion      ENuc            ....     10.3282911848 Eh

Convergence Acceleration:
 DIIS                   CNVDIIS         .... on
   Start iteration      DIISMaxIt       ....    12
[...]
             **** DENSITY FILE WAS UPDATED (Cu01N0_H.scfp) ****
             **** ENERGY FILE WAS UPDATED (Cu01N0_H.en.tmp) ****
             **** THE GBW FILE WAS UPDATED (Cu01N0_H.gbw) ****
             **** DENSITY FILE WAS UPDATED (Cu01N0_H.scfp) ****
----------------
ORBITAL ENERGIES
----------------

  NO   OCC          E(Eh)            E(eV) 
   0   2.0000    -322.869883     -8785.7362 
   1   2.0000     -38.852601     -1057.2330 
   2   2.0000     -34.050414      -926.5589 
   3   2.0000     -34.048675      -926.5115 
   4   2.0000     -34.048675      -926.5115 
   5   2.0000      -4.402039      -119.7856 
   6   2.0000      -2.900658       -78.9309 
   7   2.0000      -2.893957       -78.7486 
   8   2.0000      -2.893957       -78.7486 
   9   2.0000      -0.435498       -11.8505 
  10   2.0000      -0.391664       -10.6577 
  11   2.0000      -0.391664       -10.6577 
  12   2.0000      -0.385734       -10.4964 
  13   2.0000      -0.385734       -10.4963 
  14   2.0000      -0.332640        -9.0516 
  15   0.0000      -0.009863        -0.2684 
  16   0.0000       0.045471         1.2373 
  17   0.0000       0.045471         1.2373 
  18   0.0000       0.111265         3.0277 
  19   0.0000       0.122735         3.3398 
  20   0.0000       0.190308         5.1785 
  21   0.0000       0.190308         5.1785 
  22   0.0000       0.215948         5.8762 
  23   0.0000       0.242791         6.6067 
  24   0.0000       0.242791         6.6067 
  25   0.0000       0.252412         6.8685 
  26   0.0000       0.252412         6.8685 
  27   0.0000       0.349483         9.5099 
  28   0.0000       0.361575         9.8390 
  29   0.0000       0.361575         9.8390 
  30   0.0000       0.441491        12.0136 
  31   0.0000       0.548958        14.9379 
  32   0.0000       0.761188        20.7130 
  33   0.0000       0.761188        20.7130 
  34   0.0000       0.799202        21.7474 
  35   0.0000       0.906384        24.6640 
  36   0.0000       0.906384        24.6640 
  37   0.0000       0.995106        27.0782 
  38   0.0000       0.995109        27.0783 
  39   0.0000       1.122930        30.5565 
  40   0.0000       1.202874        32.7319 
  41   0.0000       1.202874        32.7319 
  42   0.0000       1.396198        37.9925 
  43   0.0000       2.619491        71.2800 
  44   0.0000       2.813332        76.5547 
  45   0.0000       3.099320        84.3368 
  46   0.0000       3.099320        84.3368 
  47   0.0000       3.135082        85.3099 
  48   0.0000       3.135082        85.3099 
  49   0.0000       3.287043        89.4450 
  50   0.0000       3.287050        89.4452 
  51   0.0000       3.324228        90.4568 
  52   0.0000       3.419770        93.0567 
  53   0.0000       3.546407        96.5026 
  54   0.0000       3.546407        96.5026 
  55   0.0000       3.619825        98.5005 
  56   0.0000       3.619829        98.5006 
  57   0.0000       3.786222       103.0283 
  58   0.0000       3.786233       103.0287 
  59   0.0000       3.790307       103.1395 
  60   0.0000       3.790307       103.1395 
  61   0.0000       3.893616       105.9507 
  62   0.0000       3.961138       107.7880 
  63   0.0000       3.961138       107.7880 
  64   0.0000       4.242215       115.4365 
  65   0.0000       4.242215       115.4365 
  66   0.0000       4.358509       118.6011 
  67   0.0000       5.297642       144.1562 
  68   0.0000      13.066356       355.5536 
  69   0.0000      13.066358       355.5537 
  70   0.0000      13.069074       355.6276 
  71   0.0000      13.069074       355.6276 
  72   0.0000      13.072279       355.7148 
  73   0.0000      13.072288       355.7150 
  74   0.0000      13.074474       355.7745 
  75   0.0000      13.074474       355.7745 
  76   0.0000      13.082410       355.9905 
  77   0.0000      13.244677       360.4060 
  78   0.0000      13.244677       360.4060 
  79   0.0000      13.245672       360.4331 
  80   0.0000      13.245684       360.4334 
  81   0.0000      13.328924       362.6985 
  82   0.0000      13.328924       362.6985 
  83   0.0000      13.556765       368.8983 

                    ********************************
                    * MULLIKEN POPULATION ANALYSIS *
                    ********************************

-----------------------
MULLIKEN ATOMIC CHARGES
-----------------------
   0 Cu:   -0.201625
   1 H :    0.201625
Sum of atomic charges:   -0.0000000

--------------------------------
MULLIKEN REDUCED ORBITAL CHARGES
--------------------------------
  0 Cus       :     7.114775  s :     7.114775
      pz      :     4.185804  p :    12.187196
      px      :     4.000696
      py      :     4.000696
      dz2     :     1.906120  d :     9.899271
      dxz     :     1.996635
      dyz     :     1.996635
      dx2y2   :     1.999940
      dxy     :     1.999940
      f0      :     0.000228  f :     0.000381
      f+1     :     0.000038
      f-1     :     0.000038
      f+2     :     0.000038
      f-2     :     0.000038
      f+3     :     0.000000
      f-3     :     0.000000
      g0      :     0.000002  g :     0.000003
      g+1     :     0.000000
      g-1     :     0.000000
      g+2     :     0.000000
      g-2     :     0.000000
      g+3     :     0.000000
      g-3     :     0.000000
      g+4     :     0.000000
      g-4     :     0.000000
  1 H s       :     0.820213  s :     0.820213
      pz      :    -0.028160  p :    -0.024049
      px      :     0.002055
      py      :     0.002055
      dz2     :     0.001019  d :     0.002211
      dxz     :     0.000575
      dyz     :     0.000575
      dx2y2   :     0.000021
      dxy     :     0.000021


                     *******************************
                     * LOEWDIN POPULATION ANALYSIS *
                     *******************************

----------------------
LOEWDIN ATOMIC CHARGES
----------------------
   0 Cu:    0.253520
   1 H :   -0.253520

-------------------------------
LOEWDIN REDUCED ORBITAL CHARGES
-------------------------------
  0 Cus       :     6.738625  s :     6.738625
      pz      :     4.138901  p :    12.139774
      px      :     4.000436
      py      :     4.000436
      dz2     :     1.911280  d :     9.867198
      dxz     :     1.978278
      dyz     :     1.978278
      dx2y2   :     1.999681
      dxy     :     1.999681
      f0      :     0.000593  f :     0.000881
      f+1     :     0.000104
      f-1     :     0.000104
      f+2     :     0.000040
      f-2     :     0.000040
      f+3     :     0.000000
      f-3     :     0.000000
      g0      :     0.000002  g :     0.000003
      g+1     :     0.000000
      g-1     :     0.000000
      g+2     :     0.000000
      g-2     :     0.000000
      g+3     :     0.000000
      g-3     :     0.000000
      g+4     :     0.000000
      g-4     :     0.000000
  1 H s       :     1.107173  s :     1.107173
      pz      :     0.094828  p :     0.128458
      px      :     0.016815
      py      :     0.016815
      dz2     :     0.008598  d :     0.017888
      dxz     :     0.004366
      dyz     :     0.004366
      dx2y2   :     0.000279
      dxy     :     0.000279


                      *****************************
                      * MAYER POPULATION ANALYSIS *
                      *****************************

  NA   - Mulliken gross atomic population
  ZA   - Total nuclear charge
  QA   - Mulliken gross atomic charge
  VA   - Mayer's total valence
  BVA  - Mayer's bonded valence
  FA   - Mayer's free valence

  ATOM       NA         ZA         QA         VA         BVA        FA
  0 Cu    29.2016    29.0000    -0.2016     0.9472     0.9472    -0.0000
  1 H      0.7984     1.0000     0.2016     0.9472     0.9472    -0.0000

  Mayer bond orders larger than 0.100000
B(  0-Cu,  1-H ) :   0.9472 

-------
TIMINGS
-------

Total SCF time: 0 days 0 hours 0 min 1 sec 

Total time                  ....       1.815 sec
Sum of individual times     ....       1.291 sec  ( 71.2%)

Fock matrix formation       ....       1.141 sec  ( 62.9%)
  XC integration            ....       0.307 sec  ( 26.9% of F)
    Basis function eval.    ....       0.006 sec  (  2.0% of XC)
    Density eval.           ....       0.005 sec  (  1.5% of XC)
    XC-Functional eval.     ....       0.006 sec  (  2.1% of XC)
    XC-Potential eval.      ....       0.004 sec  (  1.4% of XC)
Diagonalization             ....       0.005 sec  (  0.2%)
Density matrix formation    ....       0.002 sec  (  0.1%)
Population analysis         ....       0.006 sec  (  0.3%)
Initial guess               ....       0.006 sec  (  0.3%)
Orbital Transformation      ....       0.000 sec  (  0.0%)
Orbital Orthonormalization  ....       0.003 sec  (  0.2%)
DIIS solution               ....       0.011 sec  (  0.6%)
Grid generation             ....       0.122 sec  (  6.7%)

-------------------------   --------------------
FINAL SINGLE POINT ENERGY     -1640.922869660321
-------------------------   --------------------

                                *** OPTIMIZATION RUN DONE ***

                            ***************************************
                            *     ORCA property calculations      *
                            ***************************************

                                    ---------------------
                                    Active property flags
                                    ---------------------
   (+) Dipole Moment


------------------------------------------------------------------------------
                       ORCA ELECTRIC PROPERTIES CALCULATION
------------------------------------------------------------------------------

Dipole Moment Calculation                       ... on
Quadrupole Moment Calculation                   ... off
Polarizability Calculation                      ... off
GBWName                                         ... Cu01N0_H.gbw
Electron density file                           ... Cu01N0_H.scfp
The origin for moment calculation is the CENTER OF MASS  = ( 0.000000,  0.000000  0.076609)

-------------
DIPOLE MOMENT
-------------
                                X             Y             Z
Electronic contribution:      0.00000      -0.00000       2.75205
Nuclear contribution   :      0.00000       0.00000      -1.49259
                        -----------------------------------------
Total Dipole Moment    :      0.00000      -0.00000       1.25946
                        -----------------------------------------
Magnitude (a.u.)       :      1.25946
Magnitude (Debye)      :      3.20128



--------------------
Rotational spectrum 
--------------------
 
Rotational constants in cm-1:     0.000000     7.695371     7.695371 
Rotational constants in MHz :     0.000000 230701.423340 230701.423340 

 Dipole components along the rotational axes: 
x,y,z [a.u.] :     1.259457    -0.000000     0.000000 
x,y,z [Debye]:     3.201285    -0.000000     0.000000 

 

----------------------------------------------------------------------------
                           ORCA NUMERICAL FREQUENCIES
                              (24-process run)
----------------------------------------------------------------------------

Number of atoms                ... 2
Central differences            ... used
Number of displacements        ... 12
Numerical increment            ... 5.000e-03 bohr
IR-spectrum generation         ... on
Raman-spectrum generation      ... off
Surface Crossing Hessian       ... off

 WARNING: There are more processes than displacements to do
  ====> : Reducing number of processes to   6

The output will be reduced. Please look at the following files:
SCF program output             ... >Cu01N0_H.lastscf
Integral program output        ... >Cu01N0_H.lastint
Gradient program output        ... >Cu01N0_H.lastgrad
Dipole moment program output   ... >Cu01N0_H.lastmom
AutoCI program output          ... >Cu01N0_H.lastautoci


         <<< Energy and Gradient at the input geometry >>>

        <<< Energy and Gradient at displaced geometries >>>
             <<<Displacing   2/coordinate 1 (+)>>>
             <<<Displacing   1/coordinate 1 (+)>>>
             <<<Displacing   2/coordinate 2 (+)>>>
             <<<Displacing   1/coordinate 2 (+)>>>
             <<<Displacing   2/coordinate 3 (+)>>>
             <<<Displacing   1/coordinate 3 (+)>>>
             <<<Displacing   2/coordinate 1 (-)>>>
             <<<Displacing   1/coordinate 2 (-)>>>
             <<<Displacing   2/coordinate 2 (-)>>>
             <<<Displacing   1/coordinate 3 (-)>>>
             <<<Displacing   1/coordinate 1 (-)>>>
             <<<Displacing   2/coordinate 3 (-)>>>
Warning: T+R mode no 5 is zero 

-----------------------
VIBRATIONAL FREQUENCIES
-----------------------

Scaling factor for frequencies =  1.000000000 (already applied!)

   0:         0.00 cm**-1
   1:         0.00 cm**-1
   2:         0.00 cm**-1
   3:         0.00 cm**-1
   4:         0.00 cm**-1
   5:      1899.18 cm**-1


------------
NORMAL MODES
------------

These modes are the cartesian displacements weighted by the diagonal matrix
M(i,i)=1/sqrt(m[i]) where m[i] is the mass of the displaced atom
Thus, these vectors are normalized but *not* orthogonal

                  0          1          2          3          4          5    
      0       0.000000   0.000000   0.000000   0.000000   0.000000   0.000000
      1       0.000000   0.000000   0.000000   0.000000   0.000000   0.000000
      2       0.000000   0.000000   0.000000   0.000000   0.000000   0.015860
      3       0.000000   0.000000   0.000000   0.000000   0.000000   0.000000
      4       0.000000   0.000000   0.000000   0.000000   0.000000   0.000000
      5       0.000000   0.000000   0.000000   0.000000   0.000000  -0.999874


-----------
IR SPECTRUM  
-----------

 Mode    freq (cm**-1)   T**2         TX         TY         TZ
-------------------------------------------------------------------
   5:      1899.18  106.887239  ( -0.000008   0.000030  10.338628)

The first frequency considered to be a vibration is 5
The total number of vibrations considered is 1


--------------------------
THERMOCHEMISTRY AT 298.15K
--------------------------

Temperature         ... 298.15 K
Pressure            ... 1.00 atm
Total Mass          ... 64.56 AMU
The molecule is recognized as being linear

Throughout the following assumptions are being made:
  (1) The electronic state is orbitally nondegenerate
  (2) There are no thermally accessible electronically excited states
  (3) Hindered rotations indicated by low frequency modes are not
      treated as such but are treated as vibrations and this may
      cause some error
  (4) All equations used are the standard statistical mechanics
      equations for an ideal gas
  (5) All vibrations are strictly harmonic

freq.    1899.18  E(vib)   ...       0.00 

------------
INNER ENERGY
------------

The inner energy is: U= E(el) + E(ZPE) + E(vib) + E(rot) + E(trans)
    E(el)   - is the total energy from the electronic structure calculation
              = E(kin-el) + E(nuc-el) + E(el-el) + E(nuc-nuc)
    E(ZPE)  - the the zero temperature vibrational energy from the frequency calculation
    E(vib)  - the the finite temperature correction to E(ZPE) due to population
              of excited vibrational states
    E(rot)  - is the rotational thermal energy
    E(trans)- is the translational thermal energy

Summary of contributions to the inner energy U:
Electronic energy                ...  -1640.92286966 Eh
Zero point energy                ...      0.00432666 Eh       2.72 kcal/mol
Thermal vibrational correction   ...      0.00000091 Eh       0.00 kcal/mol
Thermal rotational correction    ...      0.00094418 Eh       0.59 kcal/mol
Thermal translational correction ...      0.00141627 Eh       0.89 kcal/mol
-----------------------------------------------------------------------
Total thermal energy                  -1640.91618164 Eh


Summary of corrections to the electronic energy:
(perhaps to be used in another calculation)
Total thermal correction                  0.00236136 Eh       1.48 kcal/mol
Non-thermal (ZPE) correction              0.00432666 Eh       2.72 kcal/mol
-----------------------------------------------------------------------
Total correction                          0.00668802 Eh       4.20 kcal/mol


--------
ENTHALPY
--------

The enthalpy is H = U + kB*T
                kB is Boltzmann's constant
Total free energy                 ...  -1640.91618164 Eh 
Thermal Enthalpy correction       ...      0.00094421 Eh       0.59 kcal/mol
-----------------------------------------------------------------------
Total Enthalpy                    ...  -1640.91523743 Eh


Note: Rotational entropy computed according to Herzberg 
Infrared and Raman Spectra, Chapter V,1, Van Nostrand Reinhold, 1945 
Point Group:  Cinfv, Symmetry Number:   1  
Rotational constants in cm-1:     0.000000     7.695371     7.695371 

Vibrational entropy computed according to the QRRHO of S. Grimme
Chem.Eur.J. 2012 18 9955


-------
ENTROPY
-------

The entropy contributions are T*S = T*(S(el)+S(vib)+S(rot)+S(trans))
     S(el)   - electronic entropy
     S(vib)  - vibrational entropy
     S(rot)  - rotational entropy
     S(trans)- translational entropy
The entropies will be listed as mutliplied by the temperature to get
units of energy

Electronic entropy                ...      0.00000000 Eh      0.00 kcal/mol
Vibrational entropy               ...      0.00000100 Eh      0.00 kcal/mol
Rotational entropy                ...      0.00405355 Eh      2.54 kcal/mol
Translational entropy             ...      0.01825147 Eh     11.45 kcal/mol
-----------------------------------------------------------------------
Final entropy term                ...      0.02230603 Eh     14.00 kcal/mol

In case the symmetry of your molecule has not been determined correctly
or in case you have a reason to use a different symmetry number we print 
out the resulting rotational entropy values for sn=1,12 :
 --------------------------------------------------------
|  sn= 1 | S(rot)=             -inf Eh      -inf kcal/mol|
|  sn= 2 | S(rot)=             -inf Eh      -inf kcal/mol|
|  sn= 3 | S(rot)=             -inf Eh      -inf kcal/mol|
|  sn= 4 | S(rot)=             -inf Eh      -inf kcal/mol|
|  sn= 5 | S(rot)=             -inf Eh      -inf kcal/mol|
|  sn= 6 | S(rot)=             -inf Eh      -inf kcal/mol|
|  sn= 7 | S(rot)=             -inf Eh      -inf kcal/mol|
|  sn= 8 | S(rot)=             -inf Eh      -inf kcal/mol|
|  sn= 9 | S(rot)=             -inf Eh      -inf kcal/mol|
|  sn=10 | S(rot)=             -inf Eh      -inf kcal/mol|
|  sn=11 | S(rot)=             -inf Eh      -inf kcal/mol|
|  sn=12 | S(rot)=             -inf Eh      -inf kcal/mol|
 --------------------------------------------------------


-------------------
GIBBS FREE ENERGY
-------------------

The Gibbs free energy is G = H - T*S

Total enthalpy                    ...  -1640.91523743 Eh 
Total entropy correction          ...     -0.02230603 Eh    -14.00 kcal/mol
-----------------------------------------------------------------------
Final Gibbs free energy         ...  -1640.93754346 Eh

For completeness - the Gibbs free energy minus the electronic energy
G-E(el)                           ...     -0.01467380 Eh     -9.21 kcal/mol


Total Time for Numerical Frequencies  :       282.228 sec

Timings for individual modules:

Sum of individual times         ...      205.295 sec (=   3.422 min)
GTO integral calculation        ...        5.266 sec (=   0.088 min)   2.6 %
SCF iterations                  ...       24.146 sec (=   0.402 min)  11.8 %
SCF Gradient evaluation         ...      175.781 sec (=   2.930 min)  85.6 %
Geometry relaxation             ...        0.101 sec (=   0.002 min)   0.0 %
                             ****ORCA TERMINATED NORMALLY****
TOTAL RUN TIME: 0 days 0 hours 7 minutes 30 seconds 428 msec
