
                                 *****************
                                 * O   R   C   A *
                                 *****************

           --- An Ab Initio, DFT and Semiempirical electronic structure package ---

                  #######################################################
                  #                        -***-                        #
                  #          Department of theory and spectroscopy      #
                  #               Directorship: Frank Neese             #
                  #        Max Planck Institute fuer Kohlenforschung    #
                  #                Kaiser Wilhelm Platz 1               #
                  #                 D-45470 Muelheim/Ruhr               #
                  #                      Germany                        #
                  #                                                     #
                  #                  All rights reserved                #
                  #                        -***-                        #
                  #######################################################


                         Program Version 4.2.0 -  RELEASE  -


 With contributions from (in alphabetic order):
   Daniel Aravena         : Magnetic Suceptibility
   Michael Atanasov       : Ab Initio Ligand Field Theory (pilot matlab implementation)
   Alexander A. Auer      : GIAO ZORA, VPT2
   Ute Becker             : Parallelization
   Giovanni Bistoni       : ED, misc. LED, open-shell LED, HFLED
   Martin Brehm           : Molecular dynamics
   Dmytro Bykov           : SCF Hessian
   Vijay G. Chilkuri      : MRCI spin determinant printing, contributions to CSF-ICE
   Dipayan Datta          : RHF DLPNO-CCSD density
   Achintya Kumar Dutta   : EOM-CC, STEOM-CC
   Dmitry Ganyushin       : Spin-Orbit,Spin-Spin,Magnetic field MRCI
   Miquel Garcia          : C-PCM Hessian, Gaussian charge scheme
   Yang Guo               : DLPNO-NEVPT2, CIM, IAO-localization
   Andreas Hansen         : Spin unrestricted coupled pair/coupled cluster methods
   Benjamin Helmich-Paris : CASSCF linear response (MC-RPA)
   Lee Huntington         : MR-EOM, pCC
   Robert Izsak           : Overlap fitted RIJCOSX, COSX-SCS-MP3, EOM
   Christian Kollmar      : KDIIS, OOCD, Brueckner-CCSD(T), CCSD density
   Simone Kossmann        : Meta GGA functionals, TD-DFT gradient, OOMP2, MP2 Hessian
   Martin Krupicka        : AUTO-CI
   Lucas Lang             : DCDCAS
   Dagmar Lenk            : GEPOL surface, SMD
   Dimitrios Liakos       : Extrapolation schemes; Compound Job, initial MDCI parallelization
   Dimitrios Manganas     : Further ROCIS development; embedding schemes
   Dimitrios Pantazis     : SARC Basis sets
   Taras Petrenko         : DFT Hessian,TD-DFT gradient, ASA, ECA, R-Raman, ABS, FL, XAS/XES, NRVS
   Peter Pinski           : DLPNO-MP2, DLPNO-MP2 Gradient
   Christoph Reimann      : Effective Core Potentials
   Marius Retegan         : Local ZFS, SOC
   Christoph Riplinger    : Optimizer, TS searches, QM/MM, DLPNO-CCSD(T), (RO)-DLPNO pert. Triples
   Tobias Risthaus        : Range-separated hybrids, TD-DFT gradient, RPA, STAB
   Michael Roemelt        : Original ROCIS implementation
   Masaaki Saitow         : Open-shell DLPNO-CCSD energy and density
   Barbara Sandhoefer     : DKH picture change effects
   Avijit Sen             : IP-ROCIS
   Kantharuban Sivalingam : CASSCF convergence, NEVPT2, FIC-MRCI
   Bernardo de Souza      : ESD, SOC TD-DFT
   Georgi Stoychev        : AutoAux, RI-MP2 NMR
   Willem Van den Heuvel  : Paramagnetic NMR
   Boris Wezisla          : Elementary symmetry handling
   Frank Wennmohs         : Technical directorship


 We gratefully acknowledge several colleagues who have allowed us to
 interface, adapt or use parts of their codes:
   Stefan Grimme, W. Hujo, H. Kruse,             : VdW corrections, initial TS optimization,
                  C. Bannwarth                     DFT functionals, gCP, sTDA/sTD-DF
   Ed Valeev, F. Pavosevic, A. Kumar             : LibInt (2-el integral package), F12 methods
   Garnet Chan, S. Sharma, J. Yang, R. Olivares  : DMRG
   Ulf Ekstrom                                   : XCFun DFT Library
   Mihaly Kallay                                 : mrcc  (arbitrary order and MRCC methods)
   Andreas Klamt, Michael Diedenhofen            : otool_cosmo (COSMO solvation model)
   Jiri Pittner, Ondrej Demel                    : Mk-CCSD
   Frank Weinhold                                : gennbo (NPA and NBO analysis)
   Christopher J. Cramer and Donald G. Truhlar   : smd solvation model
   Lars Goerigk                                  : TD-DFT with DH, B97 family of functionals
   V. Asgeirsson, H. Jonsson                     : NEB implementation
   FAccTs GmbH                                   : IRC, NEB, NEB-TS, Multilevel, MM, QM/MM, CI optimization
   S Lehtola, MJT Oliveira, MAL Marques          : LibXC Library


 Your calculation uses the libint2 library for the computation of 2-el integrals
 For citations please refer to: http://libint.valeyev.net

 Your ORCA version has been built with support for libXC version: 4.2.3
 For citations please refer to: https://tddft.org/programs/libxc/

 This ORCA versions uses:
   CBLAS   interface :  Fast vector & matrix operations
   LAPACKE interface :  Fast linear algebra routines
   SCALAPACK package :  Parallel linear algebra routines


Your calculation utilizes the DFT-NL dispersion correction.
Cite in your paper:
Vydrov, O. A.; Van Voorhis, T. J. Chem. Phys. 2010, 133, 244103
Hujo, W.; Grimme, S. J. Chem. Theory Comput. 2011, 7, 3866 
   

----- Orbital basis set information -----
Your calculation utilizes the basis: def2-TZVPPD
   F. Weigend and R. Ahlrichs, Phys. Chem. Chem. Phys. 7, 3297 (2005).
   D. Rappoport and F. Furche, J. Chem. Phys. 133 134105 (2010).

----- AuxJK basis set information -----
Your calculation utilizes the auxiliary basis: def2/JK
   H-Ba, Hf-Rn: F. Weigend, J. Comput. Chem. 29, 167 (2008).

================================================================================
                                        WARNINGS
                       Please study these warnings very carefully!
================================================================================


WARNING: Geometry Optimization
  ===> : Switching off AutoStart
         For restart on a previous wavefunction, please use MOREAD

INFO   : the flag for use of LIBINT has been found!

================================================================================
                                       INPUT FILE
================================================================================
NAME = Cu01N0_F.in
|  1> #
|  2> # Cu01N0_F wB97X-V/Def2-TZVPPD
|  3> #
|  4> ! wb97x-v def2-tzvppd def2/jk grid4 nofinalgrid opt xyzfile numfreq numgrad
|  5> 
|  6> *xyz 0 1
|  7> Cu       0.000000    0.000000    0.412716 
|  8> F        0.000000    0.000000   -1.329863 
|  9> *
| 10> 
| 11> %maxcore 5000
| 12> 
| 13> %pal
| 14> nprocs = 24
| 15> end
| 16> 
| 17> 
| 18>                          ****END OF INPUT****
================================================================================

                       *****************************
                       * Geometry Optimization Run *
                       *****************************

Geometry optimization settings:
Update method            Update   .... BFGS
Choice of coordinates    CoordSys .... Z-matrix Internals
Initial Hessian          InHess   .... Almoef's Model

Convergence Tolerances:
Energy Change            TolE     ....  5.0000e-06 Eh
Max. Gradient            TolMAXG  ....  3.0000e-04 Eh/bohr
RMS Gradient             TolRMSG  ....  1.0000e-04 Eh/bohr
Max. Displacement        TolMAXD  ....  4.0000e-03 bohr
RMS Displacement         TolRMSD  ....  2.0000e-03 bohr
Strict Convergence                ....  False
------------------------------------------------------------------------------
                        ORCA OPTIMIZATION COORDINATE SETUP
------------------------------------------------------------------------------

The optimization will be done in new redundant internal coordinates
Making redundant internal coordinates   ...  (new redundants) done
Evaluating the initial hessian          ...  (Almloef) done
Evaluating the coordinates              ...  done
Calculating the B-matrix                .... done
Calculating the G-matrix                .... done
Diagonalizing the G-matrix              .... done
The first mode is                       ....    0
The number of degrees of freedom        ....    1

    -----------------------------------------------------------------
                    Redundant Internal Coordinates


    -----------------------------------------------------------------
         Definition                    Initial Value    Approx d2E/dq
    -----------------------------------------------------------------
      1. B(F   1,Cu  0)                  1.7426         1.440702   
    -----------------------------------------------------------------

Number of atoms                         .... 2
Number of degrees of freedom            .... 1

         *************************************************************
         *                GEOMETRY OPTIMIZATION CYCLE   1            *
         *************************************************************
---------------------------------
CARTESIAN COORDINATES (ANGSTROEM)
---------------------------------
  Cu     0.000000    0.000000    0.412716
  F      0.000000    0.000000   -1.329863

----------------------------
CARTESIAN COORDINATES (A.U.)
----------------------------
  NO LB      ZA    FRAG     MASS         X           Y           Z
   0 Cu   29.0000    0    63.550    0.000000    0.000000    0.779920
   1 F     9.0000    0    18.998    0.000000    0.000000   -2.513077

--------------------------------
INTERNAL COORDINATES (ANGSTROEM)
--------------------------------
 Cu     0   0   0     0.000000000000     0.00000000     0.00000000
 F      1   0   0     1.742579000000     0.00000000     0.00000000

---------------------------
INTERNAL COORDINATES (A.U.)
---------------------------
 Cu     0   0   0     0.000000000000     0.00000000     0.00000000
 F      1   0   0     3.292997076722     0.00000000     0.00000000

---------------------
BASIS SET INFORMATION
---------------------
There are 2 groups of distinct atoms

 Group   1 Type Cu  : 17s13p7d2f1g contracted to 6s6p4d2f1g pattern {842111/631111/4111/11/1}
 Group   2 Type F   : 12s7p3d1f contracted to 6s4p3d1f pattern {621111/4111/111/1}

Atom   0Cu   basis set group =>   1
Atom   1F    basis set group =>   2
----------------------------------
AUXILIARY/JK BASIS SET INFORMATION
----------------------------------
There are 2 groups of distinct atoms

 Group   1 Type Cu  : 19s14p12d10f7g3h1i contracted to 16s13p11d9f5g3h1i pattern {4111111111111111/2111111111111/21111111111/211111111/31111/111/1}
 Group   2 Type F   : 14s10p6d2f1g contracted to 10s8p4d2f1g pattern {5111111111/31111111/3111/11/1}

Atom   0Cu   basis set group =>   1
Atom   1F    basis set group =>   2


           ************************************************************
           *        Program running with 24 parallel MPI-processes    *
           *              working on a common directory               *
           ************************************************************
------------------------------------------------------------------------------
                           ORCA GTO INTEGRAL CALCULATION
------------------------------------------------------------------------------

                         BASIS SET STATISTICS AND STARTUP INFO

 # of primitive gaussian shells          ...   63
 # of primitive gaussian functions       ...  169
 # of contracted shells                  ...   33
 # of contracted basis functions         ...  107
 Highest angular momentum                ...    4
 Maximum contraction depth               ...    8
 Integral package used                   ... LIBINT
 Integral threshhold            Thresh   ...  2.500e-11
 Primitive cut-off              TCut     ...  2.500e-12


------------------------------ INTEGRAL EVALUATION ----------------------------


 * One electron integrals 
 Pre-screening matrix                    ... done
 Shell pair data                         ... done (   0.000 sec)



           ************************************************************
           *        Program running with 24 parallel MPI-processes    *
           *              working on a common directory               *
           ************************************************************
-------------------------------------------------------------------------------
                                 ORCA SCF
-------------------------------------------------------------------------------

------------
SCF SETTINGS
------------
Hamiltonian:
 Density Functional     Method          .... DFT(GTOs)
 Exchange Functional    Exchange        .... WB97X-V
 Correlation Functional Correlation     .... WB97X-V
 Gradients option       PostSCFGGA      .... off
 Hybrid DFT is turned on
   Fraction HF Exchange ScalHFX         ....  0.167000
   Scaling of DF-GGA-X  ScalDFX         ....  0.000000
   Scaling of DF-GGA-C  ScalDFC         ....  1.000000
   Scaling of DF-LDA-C  ScalLDAC        ....  1.000000
   Perturbative correction              ....  0.000000
   Density functional embedding theory  .... OFF
 Long-range corrected/Screened/Range-Separated Hybrid DFT is turned on
   Amount of maximum screened exact exchange              ....  0.833000
   Range separation parameter mu (erf(mu*r12)/r12)        ....  0.300000
   NL short-range parameter             ....  6.000000
   NL long-range parameter              ....  0.010000


General Settings:
 Integral files         IntName         .... Cu01N0_F
 Hartree-Fock type      HFTyp           .... RHF
 Total Charge           Charge          ....    0
 Multiplicity           Mult            ....    1
 Number of Electrons    NEL             ....   38
 Basis Dimension        Dim             ....  107
 Nuclear Repulsion      ENuc            ....     79.2591046755 Eh

Convergence Acceleration:
 DIIS                   CNVDIIS         .... on
   Start iteration      DIISMaxIt       ....    12
   Startup error        DIISStart       ....  0.200000
   # of expansion vecs  DIISMaxEq       ....     5
   Bias factor          DIISBfac        ....   1.050
   Max. coefficient     DIISMaxC        ....  10.000
 Newton-Raphson         CNVNR           .... off
 SOSCF                  CNVSOSCF        .... off
 Level Shifting         CNVShift        .... on
   Level shift para.    LevelShift      ....    0.2500
   Turn off err/grad.   ShiftErr        ....    0.0010
 Zerner damping         CNVZerner       .... off
 Static damping         CNVDamp         .... on
   Fraction old density DampFac         ....    0.7000
   Max. Damping (<1)    DampMax         ....    0.9800
   Min. Damping (>=0)   DampMin         ....    0.0000
   Turn off err/grad.   DampErr         ....    0.1000
 Fernandez-Rico         CNVRico         .... off

SCF Procedure:
 Maximum # iterations   MaxIter         ....   125
 SCF integral mode      SCFMode         .... Direct
   Integral package                     .... LIBINT
 Reset frequency        DirectResetFreq ....    20
 Integral Threshold     Thresh          ....  2.500e-11 Eh
 Primitive CutOff       TCut            ....  2.500e-12 Eh

Convergence Tolerance:
 Convergence Check Mode ConvCheckMode   .... Total+1el-Energy
 Convergence forced     ConvForced      .... 0
 Energy Change          TolE            ....  1.000e-08 Eh
 1-El. energy change                    ....  1.000e-05 Eh
 DIIS Error             TolErr          ....  5.000e-07


Diagonalization of the overlap matrix:
Smallest eigenvalue                        ... 2.204e-03
Time for diagonalization                   ...    0.003 sec
Threshold for overlap eigenvalues          ... 1.000e-08
Number of eigenvalues below threshold      ... 0
Time for construction of square roots      ...    0.001 sec
Total time needed                          ...    0.005 sec

-------------------
DFT GRID GENERATION
-------------------

General Integration Accuracy     IntAcc      ...  4.670
Radial Grid Type                 RadialGrid  ... Gauss-Chebyshev
Angular Grid (max. acc.)         AngularGrid ... Lebedev-302
Angular grid pruning method      GridPruning ... 3 (G Style)
Weight generation scheme         WeightScheme... Becke
Basis function cutoff            BFCut       ...    1.0000e-11
Integration weight cutoff        WCut        ...    1.0000e-14
Grids for H and He will be reduced by one unit

# of grid points (after initial pruning)     ...  15828 (   0.0 sec)
# of grid points (after weights+screening)   ...  15779 (   0.0 sec)
nearest neighbour list constructed           ...    0.0 sec
Grid point re-assignment to atoms done       ...    0.0 sec
Grid point division into batches done        ...    0.1 sec
Reduced shell lists constructed in    0.1 sec

Total number of grid points                  ...    15779
Total number of batches                      ...      247
Average number of points per batch           ...       63
Average number of grid points per atom       ...     7890
Average number of shells per batch           ...     7.17 (21.72%)
Average number of basis functions per batch  ...    18.33 (17.13%)
Average number of large shells per batch     ...     4.92 (68.60%)
Average number of large basis fcns per batch ...    14.42 (78.64%)
Maximum spatial batch extension              ...  22.45, 22.17, 15.93 au
Average spatial batch extension              ...   0.81,  0.80,  0.61 au

Time for grid setup =    0.153 sec

------------------------------
INITIAL GUESS: MODEL POTENTIAL
------------------------------
Loading Hartree-Fock densities                     ... done
Calculating cut-offs                               ... done
Setting up the integral package                    ... done
Initializing the effective Hamiltonian             ... done
Starting the Coulomb interaction                   ... done (   0.0 sec)
Reading the grid                                   ... done
Mapping shells                                     ... done
Starting the XC term evaluation                    ... done (   0.0 sec)
  promolecular density results
     # of electrons  =     38.000016983
     EX              =    -57.427523018
     EC              =     -2.205746312
     EX+EC           =    -59.633269329
Transforming the Hamiltonian                       ... done (   0.0 sec)
Diagonalizing the Hamiltonian                      ... done (   0.0 sec)
Back transforming the eigenvectors                 ... done (   0.0 sec)
Now organizing SCF variables                       ... done
                      ------------------
                      INITIAL GUESS DONE (   0.2 sec)
                      ------------------
--------------
SCF ITERATIONS
--------------
ITER       Energy         Delta-E        Max-DP      RMS-DP      [F,P]     Damp
               ***  Starting incremental Fock matrix formation  ***
  0  -1737.5917266433   0.000000000000 0.38620903  0.00847408  1.7701611 0.7000
  1  -1739.0570333017  -1.465306658420 0.23712585  0.00456514  0.4637301 0.7000
  2  -1739.4882492488  -0.431215947089 0.16526324  0.00300815  0.3112100 0.7000
  3  -1739.7409937151  -0.252744466302 0.11408646  0.00224263  0.2939802 0.7000
  4  -1739.9254121419  -0.184418426790 0.07927595  0.00160697  0.2033473 0.7000
                               ***Turning on DIIS***
  5  -1740.0565969151  -0.131184773177 0.05580442  0.00114779  0.1283282 0.7000
  6  -1740.1495952784  -0.092998363377 0.13397960  0.00298932  0.0831269 0.0000
  7  -1740.3732043883  -0.223609109915 0.02628214  0.00071803  0.0239379 0.0000
  8  -1740.3736293616  -0.000424973274 0.00774533  0.00022539  0.0320321 0.0000
  9  -1740.3747362197  -0.001106858052 0.00837790  0.00019761  0.0081470 0.0000
 10  -1740.3749937476  -0.000257527939 0.00776201  0.00015661  0.0068990 0.0000
 11  -1740.3751606179  -0.000166870322 0.00726925  0.00015160  0.0041032 0.0000
 12  -1740.3752700255  -0.000109407590 0.00605699  0.00011674  0.0031356 0.0000
 13  -1740.3753249671  -0.000054941584 0.00521914  0.00009653  0.0022874 0.0000
 14  -1740.3753534670  -0.000028499855 0.00305117  0.00005663  0.0013096 0.0000
 15  -1740.3753631635  -0.000009696587 0.00306894  0.00006152  0.0007890 0.0000
 16  -1740.3753672096  -0.000004046097 0.00045513  0.00000759  0.0003440 0.0000
 17  -1740.3753672796  -0.000000069927 0.00024967  0.00000628  0.0001687 0.0000
 18  -1740.3753673599  -0.000000080284 0.00006308  0.00000159  0.0000301 0.0000
 19  -1740.3753673630  -0.000000003135 0.00005050  0.00000086  0.0000242 0.0000
               *** Restarting incremental Fock matrix formation ***
                                   *** Resetting DIIS ***
 20  -1740.3753673650  -0.000000002038 0.00001748  0.00000030  0.0000075 0.0000
 21  -1740.3753673656  -0.000000000568 0.00000746  0.00000015  0.0000063 0.0000
 22  -1740.3753673657  -0.000000000134 0.00001602  0.00000027  0.0000037 0.0000
 23  -1740.3753673661  -0.000000000376 0.00000453  0.00000008  0.0000033 0.0000
 24  -1740.3753673661   0.000000000008 0.00000457  0.00000009  0.0000024 0.0000
                 **** Energy Check signals convergence ****

               *****************************************************
               *                     SUCCESS                       *
               *           SCF CONVERGED AFTER  25 CYCLES          *
               *****************************************************


Setting up the DFT-NL grid :

General Integration Accuracy     IntAcc      ...  4.340
Radial Grid Type                 RadialGrid  ... Gauss-Chebyshev
Angular Grid (max. acc.)         AngularGrid ... Lebedev-110
Angular grid pruning method      GridPruning ... 3 (G Style)
Weight generation scheme         WeightScheme... Becke
Basis function cutoff            BFCut       ...    1.0000e-11
Integration weight cutoff        WCut        ...    1.0000e-14
Grids for H and He will be reduced by one unit

# of grid points (after initial pruning)     ...   4652 (   0.0 sec)
# of grid points (after weights+screening)   ...   4627 (   0.0 sec)
nearest neighbour list constructed           ...    0.0 sec
Grid point re-assignment to atoms done       ...    0.0 sec
Grid point division into batches done        ...    0.0 sec
Reduced shell lists constructed in    0.0 sec

Total number of grid points                  ...     4627
Total number of batches                      ...       73
Average number of points per batch           ...       63
Average number of grid points per atom       ...     2314
Average number of shells per batch           ...     9.60 (29.09%)
Average number of basis functions per batch  ...    27.20 (25.42%)
Average number of large shells per batch     ...     9.60 (100.00%)
Average number of large basis fcns per batch ...    27.20 (100.00%)
Maximum spatial batch extension              ...  17.39, 26.34, 14.81 au
Average spatial batch extension              ...   0.92,  1.21,  0.81 au

Final grid set up in    0.0 sec

-------------------------------------------------------------------------------
                         DFT-NL dispersion correction                          
-------------------------------------------------------------------------------

SC Energy -1740.375367366 
NL    Energy 0.161305307 
SC+NL Energy -1740.214062060 
NL done in    0.0 sec
-------------------------------------------------------------------------------

----------------
TOTAL SCF ENERGY
----------------

Total Energy       :        -1740.21406206 Eh          -47353.63204 eV

Components:
Nuclear Repulsion  :           79.25910468 Eh            2156.74989 eV
Electronic Energy  :        -1819.47316674 Eh          -49510.38193 eV
One Electron Energy:        -2585.65450782 Eh          -70359.23615 eV
Two Electron Energy:          766.18134109 Eh           20848.85423 eV

Virial components:
Potential Energy   :        -3477.88534130 Eh          -94638.07144 eV
Kinetic Energy     :         1737.67127924 Eh           47284.43940 eV
Virial Ratio       :            2.00146333


DFT components:
N(Alpha)           :       18.999992279367 electrons
N(Beta)            :       18.999992279367 electrons
N(Total)           :       37.999984558734 electrons
E(X)               :      -57.633063587843 Eh       
E(C)               :       -2.223078351344 Eh       
NL Energy, E(C,NL) :        0.161305306509 Eh       
E(XC)              :      -59.694836632678 Eh       
DFET-embed. en.    :        0.000000000000 Eh       

---------------
SCF CONVERGENCE
---------------

  Last Energy change         ...   -2.9331e-11  Tolerance :   1.0000e-08
  Last MAX-Density change    ...    2.6485e-06  Tolerance :   1.0000e-07
  Last RMS-Density change    ...    5.0420e-08  Tolerance :   5.0000e-09
  Last DIIS Error            ...    5.4891e-07  Tolerance :   5.0000e-07

             **** THE GBW FILE WAS UPDATED (Cu01N0_F.gbw) ****
             **** DENSITY FILE WAS UPDATED (Cu01N0_F.scfp) ****
             **** ENERGY FILE WAS UPDATED (Cu01N0_F.en.tmp) ****
             **** THE GBW FILE WAS UPDATED (Cu01N0_F.gbw) ****
             **** DENSITY FILE WAS UPDATED (Cu01N0_F.scfp) ****
----------------
ORBITAL ENERGIES
----------------

  NO   OCC          E(Eh)            E(eV) 
   0   2.0000    -322.890767     -8786.3045 
   1   2.0000     -38.871212     -1057.7395 
   2   2.0000     -34.068385      -927.0479 
   3   2.0000     -34.068385      -927.0479 
   4   2.0000     -34.067418      -927.0216 
   5   2.0000     -24.650559      -670.7758 
   6   2.0000      -4.426240      -120.4441 
   7   2.0000      -2.923347       -79.5483 
   8   2.0000      -2.919795       -79.4517 
   9   2.0000      -2.919795       -79.4517 
  10   2.0000      -1.179292       -32.0902 
  11   2.0000      -0.496827       -13.5194 
  12   2.0000      -0.464118       -12.6293 
  13   2.0000      -0.464118       -12.6293 
  14   2.0000      -0.412655       -11.2289 
  15   2.0000      -0.412655       -11.2289 
  16   2.0000      -0.382971       -10.4212 
  17   2.0000      -0.382971       -10.4212 
  18   2.0000      -0.370285       -10.0760 
  19   0.0000      -0.039745        -1.0815 
  20   0.0000       0.047460         1.2914 
  21   0.0000       0.047460         1.2914 
  22   0.0000       0.078758         2.1431 
  23   0.0000       0.120261         3.2725 
  24   0.0000       0.188259         5.1228 
  25   0.0000       0.188259         5.1228 
  26   0.0000       0.195569         5.3217 
  27   0.0000       0.212281         5.7765 
  28   0.0000       0.212281         5.7765 
  29   0.0000       0.242519         6.5993 
  30   0.0000       0.242519         6.5993 
  31   0.0000       0.260297         7.0830 
  32   0.0000       0.315396         8.5824 
  33   0.0000       0.315396         8.5824 
  34   0.0000       0.345210         9.3937 
  35   0.0000       0.448853        12.2139 
  36   0.0000       0.651659        17.7325 
  37   0.0000       0.651661        17.7326 
  38   0.0000       0.716829        19.5059 
  39   0.0000       0.716829        19.5059 
  40   0.0000       0.722362        19.6565 
  41   0.0000       0.800785        21.7905 
  42   0.0000       0.807286        21.9674 
  43   0.0000       0.807286        21.9674 
  44   0.0000       0.907388        24.6913 
  45   0.0000       0.907388        24.6913 
  46   0.0000       0.977409        26.5966 
  47   0.0000       0.977409        26.5967 
  48   0.0000       1.146529        31.1986 
  49   0.0000       1.146529        31.1986 
  50   0.0000       1.150645        31.3106 
  51   0.0000       1.202215        32.7139 
  52   0.0000       1.416496        38.5448 
  53   0.0000       2.405430        65.4551 
  54   0.0000       2.439051        66.3700 
  55   0.0000       2.439064        66.3703 
  56   0.0000       2.465374        67.0862 
  57   0.0000       2.465374        67.0862 
  58   0.0000       3.098852        84.3241 
  59   0.0000       3.098852        84.3241 
  60   0.0000       3.176988        86.4502 
  61   0.0000       3.289931        89.5236 
  62   0.0000       3.501071        95.2690 
  63   0.0000       3.501071        95.2690 
  64   0.0000       3.502136        95.2980 
  65   0.0000       3.514889        95.6450 
  66   0.0000       3.514889        95.6450 
  67   0.0000       3.520440        95.7960 
  68   0.0000       3.520441        95.7961 
  69   0.0000       3.630649        98.7950 
  70   0.0000       3.630649        98.7950 
  71   0.0000       3.757594       102.2493 
  72   0.0000       3.757595       102.2494 
  73   0.0000       3.838412       104.4485 
  74   0.0000       3.838412       104.4485 
  75   0.0000       3.955654       107.6388 
  76   0.0000       4.104175       111.6803 
  77   0.0000       4.477095       121.8280 
  78   0.0000       7.064651       192.2389 
  79   0.0000       7.064713       192.2406 
  80   0.0000       7.076641       192.5652 
  81   0.0000       7.076641       192.5652 
  82   0.0000       7.107356       193.4010 
  83   0.0000       7.107356       193.4010 
  84   0.0000       7.198284       195.8753 
  85   0.0000       8.645684       235.2610 
  86   0.0000       8.646299       235.2777 
  87   0.0000       8.698952       236.7105 
  88   0.0000       8.698952       236.7105 
  89   0.0000       8.925965       242.8879 
  90   0.0000      13.038513       354.7960 
  91   0.0000      13.038517       354.7961 
  92   0.0000      13.039757       354.8298 
  93   0.0000      13.039757       354.8298 
  94   0.0000      13.041213       354.8694 
  95   0.0000      13.041213       354.8694 
  96   0.0000      13.043686       354.9367 
  97   0.0000      13.043709       354.9374 
  98   0.0000      13.049985       355.1081 
  99   0.0000      13.218895       359.7044 
 100   0.0000      13.218895       359.7044 
 101   0.0000      13.223386       359.8266 
 102   0.0000      13.223400       359.8270 
 103   0.0000      13.260552       360.8380 
 104   0.0000      13.260552       360.8380 
 105   0.0000      13.445367       365.8670 
 106   0.0000      57.064979      1552.8170 

                    ********************************
                    * MULLIKEN POPULATION ANALYSIS *
                    ********************************

-----------------------
MULLIKEN ATOMIC CHARGES
-----------------------
   0 Cu:    0.696905
   1 F :   -0.696905
Sum of atomic charges:    0.0000000

--------------------------------
MULLIKEN REDUCED ORBITAL CHARGES
--------------------------------
  0 Cus       :     6.325134  s :     6.325134
      pz      :     4.042192  p :    12.106580
      px      :     4.032194
      py      :     4.032194
      dz2     :     1.867654  d :     9.869465
      dxz     :     2.000427
      dyz     :     2.000427
      dx2y2   :     2.000478
      dxy     :     2.000478
      f0      :     0.000907  f :     0.001909
      f+1     :     0.000458
      f-1     :     0.000458
      f+2     :     0.000043
      f-2     :     0.000043
      f+3     :     0.000000
      f-3     :     0.000000
      g0      :     0.000004  g :     0.000006
      g+1     :     0.000001
      g-1     :     0.000001
      g+2     :     0.000000
      g-2     :     0.000000
      g+3     :     0.000000
      g-3     :     0.000000
      g+4     :     0.000000
      g-4     :     0.000000
  1 F s       :     3.982722  s :     3.982722
      pz      :     1.773061  p :     5.707810
      px      :     1.967375
      py      :     1.967375
      dz2     :     0.008201  d :     0.006119
      dxz     :    -0.000516
      dyz     :    -0.000516
      dx2y2   :    -0.000526
      dxy     :    -0.000526
      f0      :     0.000125  f :     0.000254
      f+1     :     0.000060
      f-1     :     0.000060
      f+2     :     0.000004
      f-2     :     0.000004
      f+3     :     0.000000
      f-3     :     0.000000


                     *******************************
                     * LOEWDIN POPULATION ANALYSIS *
                     *******************************

----------------------
LOEWDIN ATOMIC CHARGES
----------------------
   0 Cu:    0.557761
   1 F :   -0.557761

-------------------------------
LOEWDIN REDUCED ORBITAL CHARGES
-------------------------------
  0 Cus       :     6.206731  s :     6.206731
      pz      :     4.121654  p :    12.246396
      px      :     4.062371
      py      :     4.062371
      dz2     :     1.944809  d :     9.985276
      dxz     :     2.023249
      dyz     :     2.023249
      dx2y2   :     1.996984
      dxy     :     1.996984
      f0      :     0.002083  f :     0.003823
      f+1     :     0.000821
      f-1     :     0.000821
      f+2     :     0.000049
      f-2     :     0.000049
      f+3     :     0.000000
      f-3     :     0.000000
      g0      :     0.000009  g :     0.000014
      g+1     :     0.000003
      g-1     :     0.000003
      g+2     :     0.000000
      g-2     :     0.000000
      g+3     :     0.000000
      g-3     :     0.000000
      g+4     :     0.000000
      g-4     :     0.000000
  1 F s       :     3.826805  s :     3.826805
      pz      :     1.845057  p :     5.646750
      px      :     1.900846
      py      :     1.900846
      dz2     :     0.052607  d :     0.083635
      dxz     :     0.012561
      dyz     :     0.012561
      dx2y2   :     0.002952
      dxy     :     0.002952
      f0      :     0.000245  f :     0.000571
      f+1     :     0.000149
      f-1     :     0.000149
      f+2     :     0.000014
      f-2     :     0.000014
      f+3     :     0.000000
      f-3     :     0.000000


                      *****************************
                      * MAYER POPULATION ANALYSIS *
                      *****************************

  NA   - Mulliken gross atomic population
  ZA   - Total nuclear charge
  QA   - Mulliken gross atomic charge
  VA   - Mayer's total valence
  BVA  - Mayer's bonded valence
  FA   - Mayer's free valence

  ATOM       NA         ZA         QA         VA         BVA        FA
  0 Cu    28.3031    29.0000     0.6969     0.6470     0.6470     0.0000
  1 F      9.6969     9.0000    -0.6969     0.6470     0.6470     0.0000

  Mayer bond orders larger than 0.100000
B(  0-Cu,  1-F ) :   0.6470 

-------
TIMINGS
-------

Total SCF time: 0 days 0 hours 0 min 7 sec 

Total time                  ....       7.018 sec
Sum of individual times     ....       6.689 sec  ( 95.3%)

Fock matrix formation       ....       6.363 sec  ( 90.7%)
  XC integration            ....       0.277 sec  (  4.4% of F)
    Basis function eval.    ....       0.037 sec  ( 13.4% of XC)
    Density eval.           ....       0.023 sec  (  8.4% of XC)
    XC-Functional eval.     ....       0.026 sec  (  9.5% of XC)
    XC-Potential eval.      ....       0.040 sec  ( 14.3% of XC)
Diagonalization             ....       0.046 sec  (  0.7%)
Density matrix formation    ....       0.007 sec  (  0.1%)
Population analysis         ....       0.002 sec  (  0.0%)
Initial guess               ....       0.083 sec  (  1.2%)
Orbital Transformation      ....       0.000 sec  (  0.0%)
Orbital Orthonormalization  ....       0.000 sec  (  0.0%)
DIIS solution               ....       0.021 sec  (  0.3%)
Grid generation             ....       0.166 sec  (  2.4%)

-------------------------   --------------------
FINAL SINGLE POINT ENERGY     -1740.214062059615
-------------------------   --------------------


----------------------------------------------------------------------------
                           ORCA NUMERICAL GRADIENT
                              (24-process run)
----------------------------------------------------------------------------

I state                        ... 1
J state                        ... 0
Number of atoms                ... 2
Derivative's order of accuracy ... 2
Central differences            ... used
Number of displacements        ... 12
Numerical increment            ... 5.000e-03 bohr
Translation invariance         ... used

The output will be reduced. Please look at the following files:
SCF program output             ... >Cu01N0_F.lastscf
Integral program output        ... >Cu01N0_F.lastint
Gradient program output        ... >Cu01N0_F.lastgrad


     Note:   There are more processes than displacements to do
     ===>:   Reducing number of processes to   3

             <<<Displacing   2/coordinate 1 (+)>>>
             <<<Displacing   2/coordinate 3 (+)>>>
             <<<Displacing   2/coordinate 2 (+)>>>
             <<<Displacing   2/coordinate 1 (-)>>>
             <<<Displacing   2/coordinate 2 (-)>>>
             <<<Displacing   2/coordinate 3 (-)>>>

------------------------------
CARTESIAN GRADIENT (NUMERICAL)
-------------------------------
   1   Cu  :   -0.000000005    0.000000003   -0.010733299
   2   F   :    0.000000005   -0.000000003    0.010733299

Norm of the cartesian gradient     ...    0.015179177
RMS gradient                       ...    0.006196873
MAX gradient                       ...    0.010733299

-------
TIMINGS
-------

Total numerical gradient time      ...       41.347 sec

------------------------------------------------------------------------------
                         ORCA GEOMETRY RELAXATION STEP
------------------------------------------------------------------------------

Reading the OPT-File                    .... done
Getting information on internals        .... done
Copying old internal coords+grads       .... done
Making the new internal coordinates     .... (new redundants).... done
Validating the new internal coordinates .... (new redundants).... done
Calculating the B-matrix                .... done
Calculating the G,G- and P matrices     .... done
Transforming gradient to internals      .... done
Projecting the internal gradient        .... done
Number of atoms                         ....   2
Number of internal coordinates          ....   1
Current Energy                          .... -1740.214062060 Eh
Current gradient norm                   ....     0.015179177 Eh/bohr
Maximum allowed component of the step   ....  0.300
Current trust radius                    ....  0.300
Evaluating the initial hessian          ....  (Almloef) done
Projecting the Hessian                  .... done
Forming the augmented Hessian           .... done
Diagonalizing the augmented Hessian     .... done
Last element of RFO vector              ....  0.999972253
Lowest eigenvalues of augmented Hessian:
 -0.000079959
Length of the computed step             ....  0.007449633
The final length of the internal step   ....  0.007449633
Converting the step to cartesian space:
 Initial RMS(Int)=    0.0074496332
Transforming coordinates:
 Iter   0:  RMS(Cart)=    0.0021505239 RMS(Int)=    0.0074496332
 Iter   1:  RMS(Cart)=    0.0000000000 RMS(Int)=    0.0000000000
done
Storing new coordinates                 .... done

                                .--------------------.
          ----------------------|Geometry convergence|-------------------------
          Item                value                   Tolerance       Converged
          ---------------------------------------------------------------------
          RMS gradient        0.0107332993            0.0001000000      NO
          MAX gradient        0.0107332993            0.0003000000      NO
          RMS step            0.0074496332            0.0020000000      NO
          MAX step            0.0074496332            0.0040000000      NO
          ........................................................
          Max(Bonds)      0.0039      Max(Angles)    0.00
          Max(Dihed)        0.00      Max(Improp)    0.00
          ---------------------------------------------------------------------

The optimization has not yet converged - more geometry cycles are needed


    ---------------------------------------------------------------------------
                         Redundant Internal Coordinates
                            (Angstroem and degrees)

        Definition                    Value    dE/dq     Step     New-Value
    ----------------------------------------------------------------------------
     1. B(F   1,Cu  0)                1.7426 -0.010733  0.0039    1.7465   
    ----------------------------------------------------------------------------

         *************************************************************
         *                GEOMETRY OPTIMIZATION CYCLE   2            *
         *************************************************************
---------------------------------
CARTESIAN COORDINATES (ANGSTROEM)
---------------------------------
  Cu     0.000000    0.000000    0.414687
  F      0.000000    0.000000   -1.331834

----------------------------
CARTESIAN COORDINATES (A.U.)
----------------------------
  NO LB      ZA    FRAG     MASS         X           Y           Z
   0 Cu   29.0000    0    63.550    0.000000    0.000000    0.783645
   1 F     9.0000    0    18.998    0.000000    0.000000   -2.516802

--------------------------------
INTERNAL COORDINATES (ANGSTROEM)
--------------------------------
 Cu     0   0   0     0.000000000000     0.00000000     0.00000000
 F      1   0   0     1.746521176123     0.00000000     0.00000000

---------------------------
INTERNAL COORDINATES (A.U.)
---------------------------
 Cu     0   0   0     0.000000000000     0.00000000     0.00000000
 F      1   0   0     3.300446709966     0.00000000     0.00000000



           ************************************************************
           *        Program running with 24 parallel MPI-processes    *
           *              working on a common directory               *
           ************************************************************


           ************************************************************
           *        Program running with 24 parallel MPI-processes    *
           *              working on a common directory               *
           ************************************************************

Diagonalization of the overlap matrix:
Smallest eigenvalue                        ... 2.228e-03
Time for diagonalization                   ...    0.003 sec
Threshold for overlap eigenvalues          ... 1.000e-08
Number of eigenvalues below threshold      ... 0
Time for construction of square roots      ...    0.002 sec
Total time needed                          ...    0.005 sec

-------------------
DFT GRID GENERATION
-------------------

General Integration Accuracy     IntAcc      ...  4.670
Radial Grid Type                 RadialGrid  ... Gauss-Chebyshev
Angular Grid (max. acc.)         AngularGrid ... Lebedev-302
Angular grid pruning method      GridPruning ... 3 (G Style)
Weight generation scheme         WeightScheme... Becke
Basis function cutoff            BFCut       ...    1.0000e-11
Integration weight cutoff        WCut        ...    1.0000e-14
Grids for H and He will be reduced by one unit

# of grid points (after initial pruning)     ...  15828 (   0.0 sec)
# of grid points (after weights+screening)   ...  15780 (   0.0 sec)
nearest neighbour list constructed           ...    0.0 sec
Grid point re-assignment to atoms done       ...    0.0 sec
Grid point division into batches done        ...    0.1 sec
Reduced shell lists constructed in    0.1 sec

Total number of grid points                  ...    15780
Total number of batches                      ...      248
Average number of points per batch           ...       63
Average number of grid points per atom       ...     7890
Average number of shells per batch           ...     7.17 (21.72%)
Average number of basis functions per batch  ...    18.33 (17.13%)
Average number of large shells per batch     ...     4.92 (68.60%)
Average number of large basis fcns per batch ...    14.42 (78.64%)
Maximum spatial batch extension              ...  22.45, 22.17, 15.93 au
Average spatial batch extension              ...   0.80,  0.79,  0.61 au

Time for grid setup =    0.153 sec

--------------
SCF ITERATIONS
--------------
ITER       Energy         Delta-E        Max-DP      RMS-DP      [F,P]     Damp
               ***  Starting incremental Fock matrix formation  ***
  0  -1740.3754516027   0.000000000000 0.00034210  0.00000797  0.0005748 0.7000
  1  -1740.3754521300  -0.000000527228 0.00027453  0.00000662  0.0004099 0.7000
                               ***Turning on DIIS***
  2  -1740.3754525245  -0.000000394502 0.00058134  0.00001602  0.0002937 0.0000
  3  -1740.3754536586  -0.000001134102 0.00018839  0.00000433  0.0001424 0.0000
  4  -1740.3754537805  -0.000000121964 0.00016865  0.00000291  0.0000956 0.0000
  5  -1740.3754538212  -0.000000040674 0.00011396  0.00000221  0.0000586 0.0000
  6  -1740.3754538439  -0.000000022651 0.00012666  0.00000225  0.0000541 0.0000
  7  -1740.3754538571  -0.000000013240 0.00007839  0.00000141  0.0000435 0.0000
  8  -1740.3754538636  -0.000000006492 0.00006621  0.00000121  0.0000119 0.0000
  9  -1740.3754538655  -0.000000001863 0.00001176  0.00000025  0.0000036 0.0000
                            ***DIIS convergence achieved***

               *****************************************************
               *                     SUCCESS                       *
               *           SCF CONVERGED AFTER  10 CYCLES          *
               *****************************************************


Setting up the DFT-NL grid :

General Integration Accuracy     IntAcc      ...  4.340
Radial Grid Type                 RadialGrid  ... Gauss-Chebyshev
Angular Grid (max. acc.)         AngularGrid ... Lebedev-110
Angular grid pruning method      GridPruning ... 3 (G Style)
Weight generation scheme         WeightScheme... Becke
Basis function cutoff            BFCut       ...    1.0000e-11
Integration weight cutoff        WCut        ...    1.0000e-14
Grids for H and He will be reduced by one unit

# of grid points (after initial pruning)     ...   4652 (   0.0 sec)
# of grid points (after weights+screening)   ...   4627 (   0.0 sec)
nearest neighbour list constructed           ...    0.0 sec
Grid point re-assignment to atoms done       ...    0.0 sec
Grid point division into batches done        ...    0.0 sec
Reduced shell lists constructed in    0.0 sec

Total number of grid points                  ...     4627
Total number of batches                      ...       73
Average number of points per batch           ...       63
Average number of grid points per atom       ...     2314
Average number of shells per batch           ...     9.60 (29.09%)
Average number of basis functions per batch  ...    27.20 (25.42%)
Average number of large shells per batch     ...     9.60 (100.00%)
Average number of large basis fcns per batch ...    27.20 (100.00%)
Maximum spatial batch extension              ...  17.39, 26.34, 14.81 au
Average spatial batch extension              ...   0.92,  1.21,  0.81 au

Final grid set up in    0.0 sec

-------------------------------------------------------------------------------
                         DFT-NL dispersion correction                          
-------------------------------------------------------------------------------

SC Energy -1740.375453865 
NL    Energy 0.161318118 
SC+NL Energy -1740.214135748 
NL done in    0.0 sec
-------------------------------------------------------------------------------
Total Energy       :        -1740.21413575 Eh          -47353.63405 eV
  Last Energy change         ...    7.7307e-12  Tolerance :   1.0000e-08
  Last MAX-Density change    ...    3.1280e-06  Tolerance :   1.0000e-07
             **** THE GBW FILE WAS UPDATED (Cu01N0_F.gbw) ****
             **** DENSITY FILE WAS UPDATED (Cu01N0_F.scfp) ****
             **** ENERGY FILE WAS UPDATED (Cu01N0_F.en.tmp) ****
             **** THE GBW FILE WAS UPDATED (Cu01N0_F.gbw) ****
             **** DENSITY FILE WAS UPDATED (Cu01N0_F.scfp) ****
Total SCF time: 0 days 0 hours 0 min 3 sec 

-------------------------   --------------------
FINAL SINGLE POINT ENERGY     -1740.214135747711
-------------------------   --------------------


----------------------------------------------------------------------------
                           ORCA NUMERICAL GRADIENT
                              (24-process run)
----------------------------------------------------------------------------

I state                        ... 1
J state                        ... 0
Number of atoms                ... 2
Derivative's order of accuracy ... 2
Central differences            ... used
Number of displacements        ... 12
Numerical increment            ... 5.000e-03 bohr
Translation invariance         ... used

The output will be reduced. Please look at the following files:
SCF program output             ... >Cu01N0_F.lastscf
Integral program output        ... >Cu01N0_F.lastint
Gradient program output        ... >Cu01N0_F.lastgrad


     Note:   There are more processes than displacements to do
     ===>:   Reducing number of processes to   3

             <<<Displacing   2/coordinate 1 (+)>>>
             <<<Displacing   2/coordinate 2 (+)>>>
             <<<Displacing   2/coordinate 3 (+)>>>
             <<<Displacing   2/coordinate 1 (-)>>>
             <<<Displacing   2/coordinate 2 (-)>>>
             <<<Displacing   2/coordinate 3 (-)>>>

------------------------------
CARTESIAN GRADIENT (NUMERICAL)
-------------------------------
   1   Cu  :    0.000000009    0.000000005   -0.009061696
   2   F   :   -0.000000009   -0.000000005    0.009061696

Norm of the cartesian gradient     ...    0.012815173
RMS gradient                       ...    0.005231772
MAX gradient                       ...    0.009061696

-------
TIMINGS
-------

Total numerical gradient time      ...       41.735 sec

------------------------------------------------------------------------------
                         ORCA GEOMETRY RELAXATION STEP
------------------------------------------------------------------------------

Reading the OPT-File                    .... done
Getting information on internals        .... done
Copying old internal coords+grads       .... done
Making the new internal coordinates     .... (new redundants).... done
Validating the new internal coordinates .... (new redundants).... done
Calculating the B-matrix                .... done
Calculating the G,G- and P matrices     .... done
Transforming gradient to internals      .... done
Projecting the internal gradient        .... done
Number of atoms                         ....   2
Number of internal coordinates          ....   1
Current Energy                          .... -1740.214135748 Eh
Current gradient norm                   ....     0.012815173 Eh/bohr
Maximum allowed component of the step   ....  0.300
Current trust radius                    ....  0.300
Updating the Hessian (BFGS)             .... done
Forming the augmented Hessian           .... done
Diagonalizing the augmented Hessian     .... done
Last element of RFO vector              ....  0.999188198
Lowest eigenvalues of augmented Hessian:
 -0.000365354
Length of the computed step             ....  0.040318514
The final length of the internal step   ....  0.040318514
Converting the step to cartesian space:
 Initial RMS(Int)=    0.0403185143
Transforming coordinates:
 Iter   0:  RMS(Cart)=    0.0116389525 RMS(Int)=    0.0403185143
 Iter   1:  RMS(Cart)=    0.0000000000 RMS(Int)=    0.0000000000
done
Storing new coordinates                 .... done

                                .--------------------.
          ----------------------|Geometry convergence|-------------------------
          Item                value                   Tolerance       Converged
          ---------------------------------------------------------------------
          Energy change      -0.0000736881            0.0000050000      NO
          RMS gradient        0.0090616958            0.0001000000      NO
          MAX gradient        0.0090616958            0.0003000000      NO
          RMS step            0.0403185143            0.0020000000      NO
          MAX step            0.0403185143            0.0040000000      NO
          ........................................................
          Max(Bonds)      0.0213      Max(Angles)    0.00
          Max(Dihed)        0.00      Max(Improp)    0.00
          ---------------------------------------------------------------------

The optimization has not yet converged - more geometry cycles are needed


    ---------------------------------------------------------------------------
                         Redundant Internal Coordinates
                            (Angstroem and degrees)

        Definition                    Value    dE/dq     Step     New-Value
    ----------------------------------------------------------------------------
     1. B(F   1,Cu  0)                1.7465 -0.009062  0.0213    1.7679   
    ----------------------------------------------------------------------------

         *************************************************************
         *                GEOMETRY OPTIMIZATION CYCLE   3            *
         *************************************************************


           ************************************************************
           *        Program running with 24 parallel MPI-processes    *
           *              working on a common directory               *
           ************************************************************


           ************************************************************
           *        Program running with 24 parallel MPI-processes    *
           *              working on a common directory               *
           ************************************************************

Diagonalization of the overlap matrix:
Smallest eigenvalue                        ... 2.363e-03
Time for diagonalization                   ...    0.003 sec
Threshold for overlap eigenvalues          ... 1.000e-08
Number of eigenvalues below threshold      ... 0
Time for construction of square roots      ...    0.002 sec
Total time needed                          ...    0.004 sec

-------------------
DFT GRID GENERATION
-------------------

General Integration Accuracy     IntAcc      ...  4.670
Radial Grid Type                 RadialGrid  ... Gauss-Chebyshev
Angular Grid (max. acc.)         AngularGrid ... Lebedev-302
Angular grid pruning method      GridPruning ... 3 (G Style)
Weight generation scheme         WeightScheme... Becke
Basis function cutoff            BFCut       ...    1.0000e-11
Integration weight cutoff        WCut        ...    1.0000e-14
Grids for H and He will be reduced by one unit

# of grid points (after initial pruning)     ...  15828 (   0.0 sec)
# of grid points (after weights+screening)   ...  15780 (   0.0 sec)
nearest neighbour list constructed           ...    0.0 sec
Grid point re-assignment to atoms done       ...    0.0 sec
Grid point division into batches done        ...    0.1 sec
Reduced shell lists constructed in    0.1 sec

Total number of grid points                  ...    15780
Total number of batches                      ...      248
Average number of points per batch           ...       63
Average number of grid points per atom       ...     7890
Average number of shells per batch           ...     7.17 (21.72%)
Average number of basis functions per batch  ...    18.33 (17.13%)
Average number of large shells per batch     ...     4.92 (68.60%)
Average number of large basis fcns per batch ...    14.42 (78.64%)
Maximum spatial batch extension              ...  22.45, 22.17, 15.93 au
Average spatial batch extension              ...   0.81,  0.79,  0.61 au

Time for grid setup =    0.137 sec

--------------
SCF ITERATIONS
--------------
ITER       Energy         Delta-E        Max-DP      RMS-DP      [F,P]     Damp
               ***  Starting incremental Fock matrix formation  ***
  0  -1740.3756511667   0.000000000000 0.00172234  0.00004096  0.0030121 0.7000
  1  -1740.3756659655  -0.000014798839 0.00136846  0.00003386  0.0021498 0.7000
                               ***Turning on DIIS***
  2  -1740.3756770300  -0.000011064460 0.00303665  0.00008210  0.0015568 0.0000
  3  -1740.3757079272  -0.000030897173 0.00099792  0.00002485  0.0007834 0.0000
  4  -1740.3757117273  -0.000003800159 0.00075983  0.00001363  0.0006062 0.0000
  5  -1740.3757129578  -0.000001230427 0.00078442  0.00001486  0.0003890 0.0000
  6  -1740.3757138983  -0.000000940536 0.00060141  0.00001081  0.0003415 0.0000
  7  -1740.3757143023  -0.000000404017 0.00061483  0.00001078  0.0002590 0.0000
  8  -1740.3757146134  -0.000000311066 0.00043593  0.00000777  0.0000705 0.0000
  9  -1740.3757146908  -0.000000077375 0.00007913  0.00000160  0.0000223 0.0000
 10  -1740.3757146949  -0.000000004169 0.00001826  0.00000041  0.0000054 0.0000
 11  -1740.3757146950  -0.000000000093 0.00000225  0.00000008  0.0000066 0.0000
 12  -1740.3757146952  -0.000000000156 0.00000514  0.00000010  0.0000033 0.0000
 13  -1740.3757146953  -0.000000000090 0.00000222  0.00000005  0.0000032 0.0000
 14  -1740.3757146951   0.000000000197 0.00000218  0.00000004  0.0000011 0.0000
                 **** Energy Check signals convergence ****

               *****************************************************
               *                     SUCCESS                       *
               *           SCF CONVERGED AFTER  15 CYCLES          *
               *****************************************************


Setting up the DFT-NL grid :

General Integration Accuracy     IntAcc      ...  4.340
Radial Grid Type                 RadialGrid  ... Gauss-Chebyshev
Angular Grid (max. acc.)         AngularGrid ... Lebedev-110
Angular grid pruning method      GridPruning ... 3 (G Style)
Weight generation scheme         WeightScheme... Becke
Basis function cutoff            BFCut       ...    1.0000e-11
Integration weight cutoff        WCut        ...    1.0000e-14
Grids for H and He will be reduced by one unit

# of grid points (after initial pruning)     ...   4652 (   0.0 sec)
# of grid points (after weights+screening)   ...   4627 (   0.0 sec)
nearest neighbour list constructed           ...    0.0 sec
Grid point re-assignment to atoms done       ...    0.0 sec
Grid point division into batches done        ...    0.0 sec
Reduced shell lists constructed in    0.0 sec

Total number of grid points                  ...     4627
Total number of batches                      ...       73
Average number of points per batch           ...       63
Average number of grid points per atom       ...     2314
Average number of shells per batch           ...     9.60 (29.09%)
Average number of basis functions per batch  ...    27.20 (25.42%)
Average number of large shells per batch     ...     9.60 (100.00%)
Average number of large basis fcns per batch ...    27.20 (100.00%)
Maximum spatial batch extension              ...  17.39, 26.34, 14.81 au
Average spatial batch extension              ...   0.92,  1.21,  0.81 au

Final grid set up in    0.0 sec

-------------------------------------------------------------------------------
                         DFT-NL dispersion correction                          
-------------------------------------------------------------------------------

SC Energy -1740.375714695 
NL    Energy 0.161386659 
SC+NL Energy -1740.214328036 
NL done in    0.0 sec
-------------------------------------------------------------------------------
Total Energy       :        -1740.21432804 Eh          -47353.63928 eV
  Last Energy change         ...   -7.0258e-11  Tolerance :   1.0000e-08
  Last MAX-Density change    ...    1.2505e-06  Tolerance :   1.0000e-07
             **** THE GBW FILE WAS UPDATED (Cu01N0_F.gbw) ****
             **** DENSITY FILE WAS UPDATED (Cu01N0_F.scfp) ****
             **** ENERGY FILE WAS UPDATED (Cu01N0_F.en.tmp) ****
             **** THE GBW FILE WAS UPDATED (Cu01N0_F.gbw) ****
             **** DENSITY FILE WAS UPDATED (Cu01N0_F.scfp) ****
Total SCF time: 0 days 0 hours 0 min 4 sec 

-------------------------   --------------------
FINAL SINGLE POINT ENERGY     -1740.214328036193
-------------------------   --------------------


----------------------------------------------------------------------------
                           ORCA NUMERICAL GRADIENT
                              (24-process run)
----------------------------------------------------------------------------

I state                        ... 1
J state                        ... 0
Number of atoms                ... 2
Derivative's order of accuracy ... 2
Central differences            ... used
Number of displacements        ... 12
Numerical increment            ... 5.000e-03 bohr
Translation invariance         ... used

The output will be reduced. Please look at the following files:
SCF program output             ... >Cu01N0_F.lastscf
Integral program output        ... >Cu01N0_F.lastint
Gradient program output        ... >Cu01N0_F.lastgrad


     Note:   There are more processes than displacements to do
     ===>:   Reducing number of processes to   3

             <<<Displacing   2/coordinate 2 (+)>>>
             <<<Displacing   2/coordinate 1 (+)>>>
             <<<Displacing   2/coordinate 3 (+)>>>
             <<<Displacing   2/coordinate 1 (-)>>>
             <<<Displacing   2/coordinate 2 (-)>>>
             <<<Displacing   2/coordinate 3 (-)>>>

------------------------------
CARTESIAN GRADIENT (NUMERICAL)
-------------------------------
   1   Cu  :    0.000000008    0.000000020   -0.000656758
   2   F   :   -0.000000008   -0.000000020    0.000656758

Norm of the cartesian gradient     ...    0.000928796
RMS gradient                       ...    0.000379179
MAX gradient                       ...    0.000656758

-------
TIMINGS
-------

Total numerical gradient time      ...       41.227 sec

------------------------------------------------------------------------------
                         ORCA GEOMETRY RELAXATION STEP
------------------------------------------------------------------------------

Reading the OPT-File                    .... done
Getting information on internals        .... done
Copying old internal coords+grads       .... done
Making the new internal coordinates     .... (new redundants).... done
Validating the new internal coordinates .... (new redundants).... done
Calculating the B-matrix                .... done
Calculating the G,G- and P matrices     .... done
Transforming gradient to internals      .... done
Projecting the internal gradient        .... done
Number of atoms                         ....   2
Number of internal coordinates          ....   1
Current Energy                          .... -1740.214328036 Eh
Current gradient norm                   ....     0.000928796 Eh/bohr
Maximum allowed component of the step   ....  0.300
Current trust radius                    ....  0.300
Updating the Hessian (BFGS)             .... done
Forming the augmented Hessian           .... done
Diagonalizing the augmented Hessian     .... done
Last element of RFO vector              ....  0.999995037
Lowest eigenvalues of augmented Hessian:
 -0.000002069
Length of the computed step             ....  0.003150439
The final length of the internal step   ....  0.003150439
Converting the step to cartesian space:
 Initial RMS(Int)=    0.0031504392
Transforming coordinates:
 Iter   0:  RMS(Cart)=    0.0009094535 RMS(Int)=    0.0031504392
 Iter   1:  RMS(Cart)=    0.0000000000 RMS(Int)=    0.0000000000
done
Storing new coordinates                 .... done

                                .--------------------.
          ----------------------|Geometry convergence|-------------------------
          Item                value                   Tolerance       Converged
          ---------------------------------------------------------------------
          Energy change      -0.0001922885            0.0000050000      NO
          RMS gradient        0.0006567580            0.0001000000      NO
          MAX gradient        0.0006567580            0.0003000000      NO
          RMS step            0.0031504392            0.0020000000      NO
          MAX step            0.0031504392            0.0040000000      YES
          ........................................................
          Max(Bonds)      0.0017      Max(Angles)    0.00
          Max(Dihed)        0.00      Max(Improp)    0.00
          ---------------------------------------------------------------------

The optimization has not yet converged - more geometry cycles are needed


    ---------------------------------------------------------------------------
                         Redundant Internal Coordinates
                            (Angstroem and degrees)

        Definition                    Value    dE/dq     Step     New-Value
    ----------------------------------------------------------------------------
     1. B(F   1,Cu  0)                1.7679 -0.000657  0.0017    1.7695   
    ----------------------------------------------------------------------------

         *************************************************************
         *                GEOMETRY OPTIMIZATION CYCLE   4            *
         *************************************************************


           ************************************************************
           *        Program running with 24 parallel MPI-processes    *
           *              working on a common directory               *
           ************************************************************


           ************************************************************
           *        Program running with 24 parallel MPI-processes    *
           *              working on a common directory               *
           ************************************************************

Diagonalization of the overlap matrix:
Smallest eigenvalue                        ... 2.374e-03
Time for diagonalization                   ...    0.004 sec
Threshold for overlap eigenvalues          ... 1.000e-08
Number of eigenvalues below threshold      ... 0
Time for construction of square roots      ...    0.001 sec
Total time needed                          ...    0.005 sec

-------------------
DFT GRID GENERATION
-------------------

General Integration Accuracy     IntAcc      ...  4.670
Radial Grid Type                 RadialGrid  ... Gauss-Chebyshev
Angular Grid (max. acc.)         AngularGrid ... Lebedev-302
Angular grid pruning method      GridPruning ... 3 (G Style)
Weight generation scheme         WeightScheme... Becke
Basis function cutoff            BFCut       ...    1.0000e-11
Integration weight cutoff        WCut        ...    1.0000e-14
Grids for H and He will be reduced by one unit

# of grid points (after initial pruning)     ...  15828 (   0.0 sec)
# of grid points (after weights+screening)   ...  15780 (   0.0 sec)
nearest neighbour list constructed           ...    0.0 sec
Grid point re-assignment to atoms done       ...    0.0 sec
Grid point division into batches done        ...    0.1 sec
Reduced shell lists constructed in    0.1 sec

Total number of grid points                  ...    15780
Total number of batches                      ...      248
Average number of points per batch           ...       63
Average number of grid points per atom       ...     7890
Average number of shells per batch           ...     7.17 (21.72%)
Average number of basis functions per batch  ...    18.33 (17.13%)
Average number of large shells per batch     ...     4.92 (68.60%)
Average number of large basis fcns per batch ...    14.42 (78.64%)
Maximum spatial batch extension              ...  22.45, 22.17, 15.93 au
Average spatial batch extension              ...   0.81,  0.79,  0.61 au

Time for grid setup =    0.150 sec

--------------
SCF ITERATIONS
--------------
ITER       Energy         Delta-E        Max-DP      RMS-DP      [F,P]     Damp
               ***  Starting incremental Fock matrix formation  ***
  0  -1740.3757207141   0.000000000000 0.00012412  0.00000304  0.0002286 0.7000
  1  -1740.3757208007  -0.000000086661 0.00009766  0.00000250  0.0001648 0.7000
                               ***Turning on DIIS***
  2  -1740.3757208655  -0.000000064773 0.00019827  0.00000603  0.0001199 0.0000
  3  -1740.3757210516  -0.000000186149 0.00008027  0.00000178  0.0000581 0.0000
  4  -1740.3757210717  -0.000000020050 0.00007065  0.00000120  0.0000389 0.0000
  5  -1740.3757210783  -0.000000006630 0.00004739  0.00000090  0.0000231 0.0000
  6  -1740.3757210820  -0.000000003686 0.00005419  0.00000094  0.0000219 0.0000
  7  -1740.3757210842  -0.000000002191 0.00003223  0.00000057  0.0000175 0.0000
  8  -1740.3757210851  -0.000000000900 0.00002856  0.00000051  0.0000051 0.0000
                 **** Energy Check signals convergence ****

               *****************************************************
               *                     SUCCESS                       *
               *           SCF CONVERGED AFTER   9 CYCLES          *
               *****************************************************


Setting up the DFT-NL grid :

General Integration Accuracy     IntAcc      ...  4.340
Radial Grid Type                 RadialGrid  ... Gauss-Chebyshev
Angular Grid (max. acc.)         AngularGrid ... Lebedev-110
Angular grid pruning method      GridPruning ... 3 (G Style)
Weight generation scheme         WeightScheme... Becke
Basis function cutoff            BFCut       ...    1.0000e-11
Integration weight cutoff        WCut        ...    1.0000e-14
Grids for H and He will be reduced by one unit

# of grid points (after initial pruning)     ...   4652 (   0.0 sec)
# of grid points (after weights+screening)   ...   4627 (   0.0 sec)
nearest neighbour list constructed           ...    0.0 sec
Grid point re-assignment to atoms done       ...    0.0 sec
Grid point division into batches done        ...    0.0 sec
Reduced shell lists constructed in    0.0 sec

Total number of grid points                  ...     4627
Total number of batches                      ...       73
Average number of points per batch           ...       63
Average number of grid points per atom       ...     2314
Average number of shells per batch           ...     9.60 (29.09%)
Average number of basis functions per batch  ...    27.20 (25.42%)
Average number of large shells per batch     ...     9.60 (100.00%)
Average number of large basis fcns per batch ...    27.20 (100.00%)
Maximum spatial batch extension              ...  17.39, 26.34, 14.81 au
Average spatial batch extension              ...   0.92,  1.21,  0.81 au

Final grid set up in    0.0 sec

-------------------------------------------------------------------------------
                         DFT-NL dispersion correction                          
-------------------------------------------------------------------------------

SC Energy -1740.375721085 
NL    Energy 0.161391957 
SC+NL Energy -1740.214329128 
NL done in    0.0 sec
-------------------------------------------------------------------------------
Total Energy       :        -1740.21432913 Eh          -47353.63931 eV
  Last Energy change         ...   -1.6325e-10  Tolerance :   1.0000e-08
  Last MAX-Density change    ...    5.1883e-06  Tolerance :   1.0000e-07
             **** THE GBW FILE WAS UPDATED (Cu01N0_F.gbw) ****
             **** DENSITY FILE WAS UPDATED (Cu01N0_F.scfp) ****
             **** ENERGY FILE WAS UPDATED (Cu01N0_F.en.tmp) ****
             **** THE GBW FILE WAS UPDATED (Cu01N0_F.gbw) ****
             **** DENSITY FILE WAS UPDATED (Cu01N0_F.scfp) ****
Total SCF time: 0 days 0 hours 0 min 3 sec 

-------------------------   --------------------
FINAL SINGLE POINT ENERGY     -1740.214329128489
-------------------------   --------------------


----------------------------------------------------------------------------
                           ORCA NUMERICAL GRADIENT
                              (24-process run)
----------------------------------------------------------------------------

I state                        ... 1
J state                        ... 0
Number of atoms                ... 2
Derivative's order of accuracy ... 2
Central differences            ... used
Number of displacements        ... 12
Numerical increment            ... 5.000e-03 bohr
Translation invariance         ... used

The output will be reduced. Please look at the following files:
SCF program output             ... >Cu01N0_F.lastscf
Integral program output        ... >Cu01N0_F.lastint
Gradient program output        ... >Cu01N0_F.lastgrad


     Note:   There are more processes than displacements to do
     ===>:   Reducing number of processes to   3

             <<<Displacing   2/coordinate 2 (+)>>>
             <<<Displacing   2/coordinate 3 (+)>>>
             <<<Displacing   2/coordinate 1 (+)>>>
             <<<Displacing   2/coordinate 1 (-)>>>
             <<<Displacing   2/coordinate 2 (-)>>>
             <<<Displacing   2/coordinate 3 (-)>>>

------------------------------
CARTESIAN GRADIENT (NUMERICAL)
-------------------------------
   1   Cu  :    0.000000009   -0.000000001   -0.000042917
   2   F   :   -0.000000009    0.000000001    0.000042917

Norm of the cartesian gradient     ...    0.000060694
RMS gradient                       ...    0.000024778
MAX gradient                       ...    0.000042917

-------
TIMINGS
-------

Total numerical gradient time      ...       41.421 sec

------------------------------------------------------------------------------
                         ORCA GEOMETRY RELAXATION STEP
------------------------------------------------------------------------------

Reading the OPT-File                    .... done
Getting information on internals        .... done
Copying old internal coords+grads       .... done
Making the new internal coordinates     .... (new redundants).... done
Validating the new internal coordinates .... (new redundants).... done
Calculating the B-matrix                .... done
Calculating the G,G- and P matrices     .... done
Transforming gradient to internals      .... done
Projecting the internal gradient        .... done
Number of atoms                         ....   2
Number of internal coordinates          ....   1
Current Energy                          .... -1740.214329128 Eh
Current gradient norm                   ....     0.000060694 Eh/bohr
Maximum allowed component of the step   ....  0.300
Current trust radius                    ....  0.300
Updating the Hessian (BFGS)             .... done
Forming the augmented Hessian           .... done
Diagonalizing the augmented Hessian     .... done
Last element of RFO vector              ....  0.999999976
Lowest eigenvalues of augmented Hessian:
 -0.000000009
Length of the computed step             ....  0.000220264
The final length of the internal step   ....  0.000220264
Converting the step to cartesian space:
 Initial RMS(Int)=    0.0002202636
Transforming coordinates:
 Iter   0:  RMS(Cart)=    0.0000635846 RMS(Int)=    0.0002202636
 Iter   1:  RMS(Cart)=    0.0000000000 RMS(Int)=    0.0000000000
done
Storing new coordinates                 .... done

                                .--------------------.
          ----------------------|Geometry convergence|-------------------------
          Item                value                   Tolerance       Converged
          ---------------------------------------------------------------------
          Energy change      -0.0000010923            0.0000050000      YES
          RMS gradient        0.0000429168            0.0001000000      YES
          MAX gradient        0.0000429168            0.0003000000      YES
          RMS step            0.0002202636            0.0020000000      YES
          MAX step            0.0002202636            0.0040000000      YES
          ........................................................
          Max(Bonds)      0.0001      Max(Angles)    0.00
          Max(Dihed)        0.00      Max(Improp)    0.00
          ---------------------------------------------------------------------

                    ***********************HURRAY********************
                    ***        THE OPTIMIZATION HAS CONVERGED     ***
                    *************************************************


    ---------------------------------------------------------------------------
                         Redundant Internal Coordinates

                          --- Optimized Parameters ---  
                            (Angstroem and degrees)

        Definition                    OldVal   dE/dq     Step     FinalVal
    ----------------------------------------------------------------------------
     1. B(F   1,Cu  0)                1.7695 -0.000043  0.0001    1.7696   
    ----------------------------------------------------------------------------
                 *******************************************************
                 *** FINAL ENERGY EVALUATION AT THE STATIONARY POINT ***
                 ***               (AFTER    4 CYCLES)               ***
                 *******************************************************
---------------------------------
CARTESIAN COORDINATES (ANGSTROEM)
---------------------------------
  Cu     0.000000    0.000000    0.426247
  F      0.000000    0.000000   -1.343394

----------------------------
CARTESIAN COORDINATES (A.U.)
----------------------------
  NO LB      ZA    FRAG     MASS         X           Y           Z
   0 Cu   29.0000    0    63.550    0.000000    0.000000    0.805490
   1 F     9.0000    0    18.998    0.000000    0.000000   -2.538646

--------------------------------
INTERNAL COORDINATES (ANGSTROEM)
--------------------------------
 Cu     0   0   0     0.000000000000     0.00000000     0.00000000
 F      1   0   0     1.769640514039     0.00000000     0.00000000

---------------------------
INTERNAL COORDINATES (A.U.)
---------------------------
 Cu     0   0   0     0.000000000000     0.00000000     0.00000000
 F      1   0   0     3.344135927026     0.00000000     0.00000000

---------------------
BASIS SET INFORMATION
---------------------
There are 2 groups of distinct atoms

 Group   1 Type Cu  : 17s13p7d2f1g contracted to 6s6p4d2f1g pattern {842111/631111/4111/11/1}
 Group   2 Type F   : 12s7p3d1f contracted to 6s4p3d1f pattern {621111/4111/111/1}

Atom   0Cu   basis set group =>   1
Atom   1F    basis set group =>   2
----------------------------------
AUXILIARY/JK BASIS SET INFORMATION
----------------------------------
There are 2 groups of distinct atoms

 Group   1 Type Cu  : 19s14p12d10f7g3h1i contracted to 16s13p11d9f5g3h1i pattern {4111111111111111/2111111111111/21111111111/211111111/31111/111/1}
 Group   2 Type F   : 14s10p6d2f1g contracted to 10s8p4d2f1g pattern {5111111111/31111111/3111/11/1}

Atom   0Cu   basis set group =>   1
Atom   1F    basis set group =>   2


           ************************************************************
           *        Program running with 24 parallel MPI-processes    *
           *              working on a common directory               *
           ************************************************************
------------------------------------------------------------------------------
                           ORCA GTO INTEGRAL CALCULATION
------------------------------------------------------------------------------

                         BASIS SET STATISTICS AND STARTUP INFO

 # of primitive gaussian shells          ...   63
 # of primitive gaussian functions       ...  169
 # of contracted shells                  ...   33
[...]
  25   0.0000       0.187531         5.1030 
  26   0.0000       0.195848         5.3293 
  27   0.0000       0.212850         5.7919 
  28   0.0000       0.212850         5.7919 
  29   0.0000       0.242032         6.5860 
  30   0.0000       0.242032         6.5860 
  31   0.0000       0.259228         7.0539 
  32   0.0000       0.314023         8.5450 
  33   0.0000       0.314023         8.5450 
  34   0.0000       0.343942         9.3591 
  35   0.0000       0.447715        12.1830 
  36   0.0000       0.652154        17.7460 
  37   0.0000       0.652156        17.7461 
  38   0.0000       0.717377        19.5208 
  39   0.0000       0.717377        19.5208 
  40   0.0000       0.722115        19.6498 
  41   0.0000       0.801492        21.8097 
  42   0.0000       0.806624        21.9494 
  43   0.0000       0.806624        21.9494 
  44   0.0000       0.903805        24.5938 
  45   0.0000       0.903805        24.5938 
  46   0.0000       0.976365        26.5682 
  47   0.0000       0.976365        26.5682 
  48   0.0000       1.141957        31.0742 
  49   0.0000       1.141957        31.0742 
  50   0.0000       1.144931        31.1552 
  51   0.0000       1.202435        32.7199 
  52   0.0000       1.434430        39.0328 
  53   0.0000       2.429385        66.1069 
  54   0.0000       2.442248        66.4569 
  55   0.0000       2.442263        66.4573 
  56   0.0000       2.474116        67.3241 
  57   0.0000       2.474116        67.3241 
  58   0.0000       3.097950        84.2995 
  59   0.0000       3.097950        84.2995 
  60   0.0000       3.171244        86.2939 
  61   0.0000       3.275729        89.1371 
  62   0.0000       3.505967        95.4022 
  63   0.0000       3.511986        95.5660 
  64   0.0000       3.511986        95.5660 
  65   0.0000       3.513823        95.6160 
  66   0.0000       3.513823        95.6160 
  67   0.0000       3.519452        95.7692 
  68   0.0000       3.519452        95.7692 
  69   0.0000       3.611711        98.2796 
  70   0.0000       3.611711        98.2796 
  71   0.0000       3.756860       102.2294 
  72   0.0000       3.756862       102.2294 
  73   0.0000       3.835923       104.3808 
  74   0.0000       3.835923       104.3808 
  75   0.0000       3.963421       107.8502 
  76   0.0000       4.099192       111.5447 
  77   0.0000       4.415311       120.1467 
  78   0.0000       7.068886       192.3542 
  79   0.0000       7.068920       192.3551 
  80   0.0000       7.080735       192.6766 
  81   0.0000       7.080735       192.6766 
  82   0.0000       7.107087       193.3937 
  83   0.0000       7.107087       193.3937 
  84   0.0000       7.189154       195.6268 
  85   0.0000       8.648913       235.3489 
  86   0.0000       8.649487       235.3645 
  87   0.0000       8.698949       236.7104 
  88   0.0000       8.698949       236.7104 
  89   0.0000       8.903650       242.2806 
  90   0.0000      13.038833       354.8047 
  91   0.0000      13.038834       354.8047 
  92   0.0000      13.039497       354.8228 
  93   0.0000      13.039497       354.8228 
  94   0.0000      13.041198       354.8690 
  95   0.0000      13.041198       354.8690 
  96   0.0000      13.043327       354.9270 
  97   0.0000      13.043348       354.9275 
  98   0.0000      13.048548       355.0690 
  99   0.0000      13.219006       359.7074 
 100   0.0000      13.219006       359.7074 
 101   0.0000      13.223489       359.8294 
 102   0.0000      13.223506       359.8299 
 103   0.0000      13.255771       360.7079 
 104   0.0000      13.255771       360.7079 
 105   0.0000      13.423739       365.2785 
 106   0.0000      57.060641      1552.6990 

                    ********************************
                    * MULLIKEN POPULATION ANALYSIS *
                    ********************************

-----------------------
MULLIKEN ATOMIC CHARGES
-----------------------
   0 Cu:    0.685196
   1 F :   -0.685196
Sum of atomic charges:   -0.0000000

--------------------------------
MULLIKEN REDUCED ORBITAL CHARGES
--------------------------------
  0 Cus       :     6.322584  s :     6.322584
      pz      :     4.046131  p :    12.107886
      px      :     4.030878
      py      :     4.030878
      dz2     :     1.879936  d :     9.882588
      dxz     :     2.000865
      dyz     :     2.000865
      dx2y2   :     2.000461
      dxy     :     2.000461
      f0      :     0.000836  f :     0.001740
      f+1     :     0.000409
      f-1     :     0.000409
      f+2     :     0.000043
      f-2     :     0.000043
      f+3     :     0.000000
      f-3     :     0.000000
      g0      :     0.000003  g :     0.000005
      g+1     :     0.000001
      g-1     :     0.000001
      g+2     :     0.000000
      g-2     :     0.000000
      g+3     :     0.000000
      g-3     :     0.000000
      g+4     :     0.000000
      g-4     :     0.000000
  1 F s       :     3.978883  s :     3.978883
      pz      :     1.764019  p :     5.700880
      px      :     1.968430
      py      :     1.968430
      dz2     :     0.007494  d :     0.005213
      dxz     :    -0.000633
      dyz     :    -0.000633
      dx2y2   :    -0.000507
      dxy     :    -0.000507
      f0      :     0.000113  f :     0.000219
      f+1     :     0.000050
      f-1     :     0.000050
      f+2     :     0.000003
      f-2     :     0.000003
      f+3     :     0.000000
      f-3     :     0.000000


                     *******************************
                     * LOEWDIN POPULATION ANALYSIS *
                     *******************************

----------------------
LOEWDIN ATOMIC CHARGES
----------------------
   0 Cu:    0.562126
   1 F :   -0.562126

-------------------------------
LOEWDIN REDUCED ORBITAL CHARGES
-------------------------------
  0 Cus       :     6.201485  s :     6.201485
      pz      :     4.119166  p :    12.238159
      px      :     4.059496
      py      :     4.059496
      dz2     :     1.954510  d :     9.994870
      dxz     :     2.022936
      dyz     :     2.022936
      dx2y2   :     1.997244
      dxy     :     1.997244
      f0      :     0.001804  f :     0.003349
      f+1     :     0.000724
      f-1     :     0.000724
      f+2     :     0.000048
      f-2     :     0.000048
      f+3     :     0.000000
      f-3     :     0.000000
      g0      :     0.000007  g :     0.000011
      g+1     :     0.000002
      g-1     :     0.000002
      g+2     :     0.000000
      g-2     :     0.000000
      g+3     :     0.000000
      g-3     :     0.000000
      g+4     :     0.000000
      g-4     :     0.000000
  1 F s       :     3.832150  s :     3.832150
      pz      :     1.840622  p :     5.649912
      px      :     1.904645
      py      :     1.904645
      dz2     :     0.050046  d :     0.079579
      dxz     :     0.012071
      dyz     :     0.012071
      dx2y2   :     0.002696
      dxy     :     0.002696
      f0      :     0.000209  f :     0.000485
      f+1     :     0.000126
      f-1     :     0.000126
      f+2     :     0.000012
      f-2     :     0.000012
      f+3     :     0.000000
      f-3     :     0.000000


                      *****************************
                      * MAYER POPULATION ANALYSIS *
                      *****************************

  NA   - Mulliken gross atomic population
  ZA   - Total nuclear charge
  QA   - Mulliken gross atomic charge
  VA   - Mayer's total valence
  BVA  - Mayer's bonded valence
  FA   - Mayer's free valence

  ATOM       NA         ZA         QA         VA         BVA        FA
  0 Cu    28.3148    29.0000     0.6852     0.6402     0.6402    -0.0000
  1 F      9.6852     9.0000    -0.6852     0.6402     0.6402    -0.0000

  Mayer bond orders larger than 0.100000
B(  0-Cu,  1-F ) :   0.6402 

-------
TIMINGS
-------

Total SCF time: 0 days 0 hours 0 min 2 sec 

Total time                  ....       2.828 sec
Sum of individual times     ....       2.586 sec  ( 91.4%)

Fock matrix formation       ....       2.375 sec  ( 84.0%)
  XC integration            ....       0.261 sec  ( 11.0% of F)
    Basis function eval.    ....       0.015 sec  (  5.7% of XC)
    Density eval.           ....       0.009 sec  (  3.4% of XC)
    XC-Functional eval.     ....       0.010 sec  (  3.8% of XC)
    XC-Potential eval.      ....       0.011 sec  (  4.1% of XC)
Diagonalization             ....       0.016 sec  (  0.6%)
Density matrix formation    ....       0.003 sec  (  0.1%)
Population analysis         ....       0.003 sec  (  0.1%)
Initial guess               ....       0.006 sec  (  0.2%)
Orbital Transformation      ....       0.000 sec  (  0.0%)
Orbital Orthonormalization  ....       0.003 sec  (  0.1%)
DIIS solution               ....       0.008 sec  (  0.3%)
Grid generation             ....       0.175 sec  (  6.2%)

-------------------------   --------------------
FINAL SINGLE POINT ENERGY     -1740.214329134071
-------------------------   --------------------

                                *** OPTIMIZATION RUN DONE ***

                            ***************************************
                            *     ORCA property calculations      *
                            ***************************************

                                    ---------------------
                                    Active property flags
                                    ---------------------
   (+) Dipole Moment


------------------------------------------------------------------------------
                       ORCA ELECTRIC PROPERTIES CALCULATION
------------------------------------------------------------------------------

Dipole Moment Calculation                       ... on
Quadrupole Moment Calculation                   ... off
Polarizability Calculation                      ... off
GBWName                                         ... Cu01N0_F.gbw
Electron density file                           ... Cu01N0_F.scfp
The origin for moment calculation is the CENTER OF MASS  = ( 0.000000,  0.000000  0.035854)

-------------
DIPOLE MOMENT
-------------
                                X             Y             Z
Electronic contribution:     -0.00000       0.00000       3.01122
Nuclear contribution   :      0.00000       0.00000      -0.85106
                        -----------------------------------------
Total Dipole Moment    :     -0.00000       0.00000       2.16016
                        -----------------------------------------
Magnitude (a.u.)       :      2.16016
Magnitude (Debye)      :      5.49068



--------------------
Rotational spectrum 
--------------------
 
Rotational constants in cm-1:     0.000000     0.368053     0.368053 
Rotational constants in MHz :     0.000000 11033.939956 11033.939956 

 Dipole components along the rotational axes: 
x,y,z [a.u.] :     2.160157     0.000000    -0.000000 
x,y,z [Debye]:     5.490683     0.000000    -0.000000 

 

----------------------------------------------------------------------------
                           ORCA NUMERICAL FREQUENCIES
                              (24-process run)
----------------------------------------------------------------------------

Number of atoms                ... 2
Central differences            ... used
Number of displacements        ... 12
Numerical increment            ... 5.000e-03 bohr
IR-spectrum generation         ... on
Raman-spectrum generation      ... off
Surface Crossing Hessian       ... off

 WARNING: There are more processes than displacements to do
  ====> : Reducing number of processes to   6

The output will be reduced. Please look at the following files:
SCF program output             ... >Cu01N0_F.lastscf
Integral program output        ... >Cu01N0_F.lastint
Gradient program output        ... >Cu01N0_F.lastgrad
Dipole moment program output   ... >Cu01N0_F.lastmom
AutoCI program output          ... >Cu01N0_F.lastautoci


         <<< Energy and Gradient at the input geometry >>>

        <<< Energy and Gradient at displaced geometries >>>
             <<<Displacing   2/coordinate 1 (+)>>>
             <<<Displacing   1/coordinate 2 (+)>>>
             <<<Displacing   2/coordinate 2 (+)>>>
             <<<Displacing   1/coordinate 3 (+)>>>
             <<<Displacing   2/coordinate 3 (+)>>>
             <<<Displacing   1/coordinate 1 (+)>>>
             <<<Displacing   1/coordinate 2 (-)>>>
             <<<Displacing   2/coordinate 2 (-)>>>
             <<<Displacing   2/coordinate 1 (-)>>>
             <<<Displacing   1/coordinate 1 (-)>>>
             <<<Displacing   1/coordinate 3 (-)>>>
             <<<Displacing   2/coordinate 3 (-)>>>
Warning: T+R mode no 5 is zero 

-----------------------
VIBRATIONAL FREQUENCIES
-----------------------

Scaling factor for frequencies =  1.000000000 (already applied!)

   0:         0.00 cm**-1
   1:         0.00 cm**-1
   2:         0.00 cm**-1
   3:         0.00 cm**-1
   4:         0.00 cm**-1
   5:       591.70 cm**-1


------------
NORMAL MODES
------------

These modes are the cartesian displacements weighted by the diagonal matrix
M(i,i)=1/sqrt(m[i]) where m[i] is the mass of the displaced atom
Thus, these vectors are normalized but *not* orthogonal

                  0          1          2          3          4          5    
      0       0.000000   0.000000   0.000000   0.000000   0.000000   0.000000
      1       0.000000   0.000000   0.000000   0.000000   0.000000   0.000000
      2       0.000000   0.000000   0.000000   0.000000   0.000000   0.286421
      3       0.000000   0.000000   0.000000   0.000000   0.000000   0.000000
      4       0.000000   0.000000   0.000000   0.000000   0.000000   0.000000
      5       0.000000   0.000000   0.000000   0.000000   0.000000  -0.958104


-----------
IR SPECTRUM  
-----------

 Mode    freq (cm**-1)   T**2         TX         TY         TZ
-------------------------------------------------------------------
   5:       591.70   61.406977  (  0.000001   0.000003   7.836260)

The first frequency considered to be a vibration is 5
The total number of vibrations considered is 1


--------------------------
THERMOCHEMISTRY AT 298.15K
--------------------------

Temperature         ... 298.15 K
Pressure            ... 1.00 atm
Total Mass          ... 82.55 AMU
The molecule is recognized as being linear

Throughout the following assumptions are being made:
  (1) The electronic state is orbitally nondegenerate
  (2) There are no thermally accessible electronically excited states
  (3) Hindered rotations indicated by low frequency modes are not
      treated as such but are treated as vibrations and this may
      cause some error
  (4) All equations used are the standard statistical mechanics
      equations for an ideal gas
  (5) All vibrations are strictly harmonic

freq.     591.70  E(vib)   ...       0.10 

------------
INNER ENERGY
------------

The inner energy is: U= E(el) + E(ZPE) + E(vib) + E(rot) + E(trans)
    E(el)   - is the total energy from the electronic structure calculation
              = E(kin-el) + E(nuc-el) + E(el-el) + E(nuc-nuc)
    E(ZPE)  - the the zero temperature vibrational energy from the frequency calculation
    E(vib)  - the the finite temperature correction to E(ZPE) due to population
              of excited vibrational states
    E(rot)  - is the rotational thermal energy
    E(trans)- is the translational thermal energy

Summary of contributions to the inner energy U:
Electronic energy                ...  -1740.21432913 Eh
Zero point energy                ...      0.00134799 Eh       0.85 kcal/mol
Thermal vibrational correction   ...      0.00016460 Eh       0.10 kcal/mol
Thermal rotational correction    ...      0.00094418 Eh       0.59 kcal/mol
Thermal translational correction ...      0.00141627 Eh       0.89 kcal/mol
-----------------------------------------------------------------------
Total thermal energy                  -1740.21045610 Eh


Summary of corrections to the electronic energy:
(perhaps to be used in another calculation)
Total thermal correction                  0.00252505 Eh       1.58 kcal/mol
Non-thermal (ZPE) correction              0.00134799 Eh       0.85 kcal/mol
-----------------------------------------------------------------------
Total correction                          0.00387304 Eh       2.43 kcal/mol


--------
ENTHALPY
--------

The enthalpy is H = U + kB*T
                kB is Boltzmann's constant
Total free energy                 ...  -1740.21045610 Eh 
Thermal Enthalpy correction       ...      0.00094421 Eh       0.59 kcal/mol
-----------------------------------------------------------------------
Total Enthalpy                    ...  -1740.20951189 Eh


Note: Rotational entropy computed according to Herzberg 
Infrared and Raman Spectra, Chapter V,1, Van Nostrand Reinhold, 1945 
Point Group:  Cinfv, Symmetry Number:   1  
Rotational constants in cm-1:     0.000000     0.368053     0.368053 

Vibrational entropy computed according to the QRRHO of S. Grimme
Chem.Eur.J. 2012 18 9955


-------
ENTROPY
-------

The entropy contributions are T*S = T*(S(el)+S(vib)+S(rot)+S(trans))
     S(el)   - electronic entropy
     S(vib)  - vibrational entropy
     S(rot)  - rotational entropy
     S(trans)- translational entropy
The entropies will be listed as mutliplied by the temperature to get
units of energy

Electronic entropy                ...      0.00000000 Eh      0.00 kcal/mol
Vibrational entropy               ...      0.00022079 Eh      0.14 kcal/mol
Rotational entropy                ...      0.00692400 Eh      4.34 kcal/mol
Translational entropy             ...      0.01859962 Eh     11.67 kcal/mol
-----------------------------------------------------------------------
Final entropy term                ...      0.02574440 Eh     16.15 kcal/mol

In case the symmetry of your molecule has not been determined correctly
or in case you have a reason to use a different symmetry number we print 
out the resulting rotational entropy values for sn=1,12 :
 --------------------------------------------------------
|  sn= 1 | S(rot)=             -inf Eh      -inf kcal/mol|
|  sn= 2 | S(rot)=             -inf Eh      -inf kcal/mol|
|  sn= 3 | S(rot)=             -inf Eh      -inf kcal/mol|
|  sn= 4 | S(rot)=             -inf Eh      -inf kcal/mol|
|  sn= 5 | S(rot)=             -inf Eh      -inf kcal/mol|
|  sn= 6 | S(rot)=             -inf Eh      -inf kcal/mol|
|  sn= 7 | S(rot)=             -inf Eh      -inf kcal/mol|
|  sn= 8 | S(rot)=             -inf Eh      -inf kcal/mol|
|  sn= 9 | S(rot)=             -inf Eh      -inf kcal/mol|
|  sn=10 | S(rot)=             -inf Eh      -inf kcal/mol|
|  sn=11 | S(rot)=             -inf Eh      -inf kcal/mol|
|  sn=12 | S(rot)=             -inf Eh      -inf kcal/mol|
 --------------------------------------------------------


-------------------
GIBBS FREE ENERGY
-------------------

The Gibbs free energy is G = H - T*S

Total enthalpy                    ...  -1740.20951189 Eh 
Total entropy correction          ...     -0.02574440 Eh    -16.15 kcal/mol
-----------------------------------------------------------------------
Final Gibbs free energy         ...  -1740.23525629 Eh

For completeness - the Gibbs free energy minus the electronic energy
G-E(el)                           ...     -0.02092716 Eh    -13.13 kcal/mol


Total Time for Numerical Frequencies  :       330.362 sec

Timings for individual modules:

Sum of individual times         ...      236.168 sec (=   3.936 min)
GTO integral calculation        ...        3.979 sec (=   0.066 min)   1.7 %
SCF iterations                  ...       24.860 sec (=   0.414 min)  10.5 %
SCF Gradient evaluation         ...      207.172 sec (=   3.453 min)  87.7 %
Geometry relaxation             ...        0.157 sec (=   0.003 min)   0.1 %
                             ****ORCA TERMINATED NORMALLY****
TOTAL RUN TIME: 0 days 0 hours 8 minutes 43 seconds 562 msec
