
                                 *****************
                                 * O   R   C   A *
                                 *****************

           --- An Ab Initio, DFT and Semiempirical electronic structure package ---

                  #######################################################
                  #                        -***-                        #
                  #          Department of theory and spectroscopy      #
                  #               Directorship: Frank Neese             #
                  #        Max Planck Institute fuer Kohlenforschung    #
                  #                Kaiser Wilhelm Platz 1               #
                  #                 D-45470 Muelheim/Ruhr               #
                  #                      Germany                        #
                  #                                                     #
                  #                  All rights reserved                #
                  #                        -***-                        #
                  #######################################################


                         Program Version 4.2.0 -  RELEASE  -


 With contributions from (in alphabetic order):
   Daniel Aravena         : Magnetic Suceptibility
   Michael Atanasov       : Ab Initio Ligand Field Theory (pilot matlab implementation)
   Alexander A. Auer      : GIAO ZORA, VPT2
   Ute Becker             : Parallelization
   Giovanni Bistoni       : ED, misc. LED, open-shell LED, HFLED
   Martin Brehm           : Molecular dynamics
   Dmytro Bykov           : SCF Hessian
   Vijay G. Chilkuri      : MRCI spin determinant printing, contributions to CSF-ICE
   Dipayan Datta          : RHF DLPNO-CCSD density
   Achintya Kumar Dutta   : EOM-CC, STEOM-CC
   Dmitry Ganyushin       : Spin-Orbit,Spin-Spin,Magnetic field MRCI
   Miquel Garcia          : C-PCM Hessian, Gaussian charge scheme
   Yang Guo               : DLPNO-NEVPT2, CIM, IAO-localization
   Andreas Hansen         : Spin unrestricted coupled pair/coupled cluster methods
   Benjamin Helmich-Paris : CASSCF linear response (MC-RPA)
   Lee Huntington         : MR-EOM, pCC
   Robert Izsak           : Overlap fitted RIJCOSX, COSX-SCS-MP3, EOM
   Christian Kollmar      : KDIIS, OOCD, Brueckner-CCSD(T), CCSD density
   Simone Kossmann        : Meta GGA functionals, TD-DFT gradient, OOMP2, MP2 Hessian
   Martin Krupicka        : AUTO-CI
   Lucas Lang             : DCDCAS
   Dagmar Lenk            : GEPOL surface, SMD
   Dimitrios Liakos       : Extrapolation schemes; Compound Job, initial MDCI parallelization
   Dimitrios Manganas     : Further ROCIS development; embedding schemes
   Dimitrios Pantazis     : SARC Basis sets
   Taras Petrenko         : DFT Hessian,TD-DFT gradient, ASA, ECA, R-Raman, ABS, FL, XAS/XES, NRVS
   Peter Pinski           : DLPNO-MP2, DLPNO-MP2 Gradient
   Christoph Reimann      : Effective Core Potentials
   Marius Retegan         : Local ZFS, SOC
   Christoph Riplinger    : Optimizer, TS searches, QM/MM, DLPNO-CCSD(T), (RO)-DLPNO pert. Triples
   Tobias Risthaus        : Range-separated hybrids, TD-DFT gradient, RPA, STAB
   Michael Roemelt        : Original ROCIS implementation
   Masaaki Saitow         : Open-shell DLPNO-CCSD energy and density
   Barbara Sandhoefer     : DKH picture change effects
   Avijit Sen             : IP-ROCIS
   Kantharuban Sivalingam : CASSCF convergence, NEVPT2, FIC-MRCI
   Bernardo de Souza      : ESD, SOC TD-DFT
   Georgi Stoychev        : AutoAux, RI-MP2 NMR
   Willem Van den Heuvel  : Paramagnetic NMR
   Boris Wezisla          : Elementary symmetry handling
   Frank Wennmohs         : Technical directorship


 We gratefully acknowledge several colleagues who have allowed us to
 interface, adapt or use parts of their codes:
   Stefan Grimme, W. Hujo, H. Kruse,             : VdW corrections, initial TS optimization,
                  C. Bannwarth                     DFT functionals, gCP, sTDA/sTD-DF
   Ed Valeev, F. Pavosevic, A. Kumar             : LibInt (2-el integral package), F12 methods
   Garnet Chan, S. Sharma, J. Yang, R. Olivares  : DMRG
   Ulf Ekstrom                                   : XCFun DFT Library
   Mihaly Kallay                                 : mrcc  (arbitrary order and MRCC methods)
   Andreas Klamt, Michael Diedenhofen            : otool_cosmo (COSMO solvation model)
   Jiri Pittner, Ondrej Demel                    : Mk-CCSD
   Frank Weinhold                                : gennbo (NPA and NBO analysis)
   Christopher J. Cramer and Donald G. Truhlar   : smd solvation model
   Lars Goerigk                                  : TD-DFT with DH, B97 family of functionals
   V. Asgeirsson, H. Jonsson                     : NEB implementation
   FAccTs GmbH                                   : IRC, NEB, NEB-TS, Multilevel, MM, QM/MM, CI optimization
   S Lehtola, MJT Oliveira, MAL Marques          : LibXC Library


 Your calculation uses the libint2 library for the computation of 2-el integrals
 For citations please refer to: http://libint.valeyev.net

 Your ORCA version has been built with support for libXC version: 4.2.3
 For citations please refer to: https://tddft.org/programs/libxc/

 This ORCA versions uses:
   CBLAS   interface :  Fast vector & matrix operations
   LAPACKE interface :  Fast linear algebra routines
   SCALAPACK package :  Parallel linear algebra routines


Your calculation utilizes the DFT-NL dispersion correction.
Cite in your paper:
Vydrov, O. A.; Van Voorhis, T. J. Chem. Phys. 2010, 133, 244103
Hujo, W.; Grimme, S. J. Chem. Theory Comput. 2011, 7, 3866 
   

----- Orbital basis set information -----
Your calculation utilizes the basis: def2-TZVPPD
   F. Weigend and R. Ahlrichs, Phys. Chem. Chem. Phys. 7, 3297 (2005).
   D. Rappoport and F. Furche, J. Chem. Phys. 133 134105 (2010).

----- AuxJK basis set information -----
Your calculation utilizes the auxiliary basis: def2/JK
   H-Ba, Hf-Rn: F. Weigend, J. Comput. Chem. 29, 167 (2008).

================================================================================
                                        WARNINGS
                       Please study these warnings very carefully!
================================================================================


WARNING: Geometry Optimization
  ===> : Switching off AutoStart
         For restart on a previous wavefunction, please use MOREAD

INFO   : the flag for use of LIBINT has been found!

================================================================================
                                       INPUT FILE
================================================================================
NAME = Cu02N0.in
|  1> #
|  2> # Cu02N0 wB97X-V/Def2-TZVPPD
|  3> #
|  4> ! wb97x-v def2-tzvppd def2/jk grid4 nofinalgrid opt xyzfile numfreq numgrad
|  5> 
|  6> *xyz 0 1
|  7> Cu       0.000000    0.000000    1.107490 
|  8> Cu       0.000000    0.000000   -1.107490 
|  9> *
| 10> 
| 11> %maxcore 5000
| 12> 
| 13> %pal
| 14> nprocs = 24
| 15> end
| 16> 
| 17> 
| 18>                          ****END OF INPUT****
================================================================================

                       *****************************
                       * Geometry Optimization Run *
                       *****************************

Geometry optimization settings:
Update method            Update   .... BFGS
Choice of coordinates    CoordSys .... Z-matrix Internals
Initial Hessian          InHess   .... Almoef's Model

Convergence Tolerances:
Energy Change            TolE     ....  5.0000e-06 Eh
Max. Gradient            TolMAXG  ....  3.0000e-04 Eh/bohr
RMS Gradient             TolRMSG  ....  1.0000e-04 Eh/bohr
Max. Displacement        TolMAXD  ....  4.0000e-03 bohr
RMS Displacement         TolRMSD  ....  2.0000e-03 bohr
Strict Convergence                ....  False
------------------------------------------------------------------------------
                        ORCA OPTIMIZATION COORDINATE SETUP
------------------------------------------------------------------------------

The optimization will be done in new redundant internal coordinates
Making redundant internal coordinates   ...  (new redundants) done
Evaluating the initial hessian          ...  (Almloef) done
Evaluating the coordinates              ...  done
Calculating the B-matrix                .... done
Calculating the G-matrix                .... done
Diagonalizing the G-matrix              .... done
The first mode is                       ....    0
The number of degrees of freedom        ....    1

    -----------------------------------------------------------------
                    Redundant Internal Coordinates


    -----------------------------------------------------------------
         Definition                    Initial Value    Approx d2E/dq
    -----------------------------------------------------------------
      1. B(Cu  1,Cu  0)                  2.2150         3.088767   
    -----------------------------------------------------------------

Number of atoms                         .... 2
Number of degrees of freedom            .... 1

         *************************************************************
         *                GEOMETRY OPTIMIZATION CYCLE   1            *
         *************************************************************
---------------------------------
CARTESIAN COORDINATES (ANGSTROEM)
---------------------------------
  Cu     0.000000    0.000000    1.107490
  Cu     0.000000    0.000000   -1.107490

----------------------------
CARTESIAN COORDINATES (A.U.)
----------------------------
  NO LB      ZA    FRAG     MASS         X           Y           Z
   0 Cu   29.0000    0    63.550    0.000000    0.000000    2.092853
   1 Cu   29.0000    0    63.550    0.000000    0.000000   -2.092853

--------------------------------
INTERNAL COORDINATES (ANGSTROEM)
--------------------------------
 Cu     0   0   0     0.000000000000     0.00000000     0.00000000
 Cu     1   0   0     2.214980000000     0.00000000     0.00000000

---------------------------
INTERNAL COORDINATES (A.U.)
---------------------------
 Cu     0   0   0     0.000000000000     0.00000000     0.00000000
 Cu     1   0   0     4.185705592113     0.00000000     0.00000000

---------------------
BASIS SET INFORMATION
---------------------
There are 1 groups of distinct atoms

 Group   1 Type Cu  : 17s13p7d2f1g contracted to 6s6p4d2f1g pattern {842111/631111/4111/11/1}

Atom   0Cu   basis set group =>   1
Atom   1Cu   basis set group =>   1
----------------------------------
AUXILIARY/JK BASIS SET INFORMATION
----------------------------------
There are 1 groups of distinct atoms

 Group   1 Type Cu  : 19s14p12d10f7g3h1i contracted to 16s13p11d9f5g3h1i pattern {4111111111111111/2111111111111/21111111111/211111111/31111/111/1}

Atom   0Cu   basis set group =>   1
Atom   1Cu   basis set group =>   1


           ************************************************************
           *        Program running with 24 parallel MPI-processes    *
           *              working on a common directory               *
           ************************************************************
------------------------------------------------------------------------------
                           ORCA GTO INTEGRAL CALCULATION
------------------------------------------------------------------------------

                         BASIS SET STATISTICS AND STARTUP INFO

 # of primitive gaussian shells          ...   80
 # of primitive gaussian functions       ...  228
 # of contracted shells                  ...   38
 # of contracted basis functions         ...  134
 Highest angular momentum                ...    4
 Maximum contraction depth               ...    8
 Integral package used                   ... LIBINT
 Integral threshhold            Thresh   ...  2.500e-11
 Primitive cut-off              TCut     ...  2.500e-12


------------------------------ INTEGRAL EVALUATION ----------------------------


 * One electron integrals 
 Pre-screening matrix                    ... done
 Shell pair data                         ... done (   0.000 sec)



           ************************************************************
           *        Program running with 24 parallel MPI-processes    *
           *              working on a common directory               *
           ************************************************************
-------------------------------------------------------------------------------
                                 ORCA SCF
-------------------------------------------------------------------------------

------------
SCF SETTINGS
------------
Hamiltonian:
 Density Functional     Method          .... DFT(GTOs)
 Exchange Functional    Exchange        .... WB97X-V
 Correlation Functional Correlation     .... WB97X-V
 Gradients option       PostSCFGGA      .... off
 Hybrid DFT is turned on
   Fraction HF Exchange ScalHFX         ....  0.167000
   Scaling of DF-GGA-X  ScalDFX         ....  0.000000
   Scaling of DF-GGA-C  ScalDFC         ....  1.000000
   Scaling of DF-LDA-C  ScalLDAC        ....  1.000000
   Perturbative correction              ....  0.000000
   Density functional embedding theory  .... OFF
 Long-range corrected/Screened/Range-Separated Hybrid DFT is turned on
   Amount of maximum screened exact exchange              ....  0.833000
   Range separation parameter mu (erf(mu*r12)/r12)        ....  0.300000
   NL short-range parameter             ....  6.000000
   NL long-range parameter              ....  0.010000


General Settings:
 Integral files         IntName         .... Cu02N0
 Hartree-Fock type      HFTyp           .... RHF
 Total Charge           Charge          ....    0
 Multiplicity           Mult            ....    1
 Number of Electrons    NEL             ....   58
 Basis Dimension        Dim             ....  134
 Nuclear Repulsion      ENuc            ....    200.9219190152 Eh

Convergence Acceleration:
 DIIS                   CNVDIIS         .... on
   Start iteration      DIISMaxIt       ....    12
   Startup error        DIISStart       ....  0.200000
   # of expansion vecs  DIISMaxEq       ....     5
   Bias factor          DIISBfac        ....   1.050
   Max. coefficient     DIISMaxC        ....  10.000
 Newton-Raphson         CNVNR           .... off
 SOSCF                  CNVSOSCF        .... off
 Level Shifting         CNVShift        .... on
   Level shift para.    LevelShift      ....    0.2500
   Turn off err/grad.   ShiftErr        ....    0.0010
 Zerner damping         CNVZerner       .... off
 Static damping         CNVDamp         .... on
   Fraction old density DampFac         ....    0.7000
   Max. Damping (<1)    DampMax         ....    0.9800
   Min. Damping (>=0)   DampMin         ....    0.0000
   Turn off err/grad.   DampErr         ....    0.1000
 Fernandez-Rico         CNVRico         .... off

SCF Procedure:
 Maximum # iterations   MaxIter         ....   125
 SCF integral mode      SCFMode         .... Direct
   Integral package                     .... LIBINT
 Reset frequency        DirectResetFreq ....    20
 Integral Threshold     Thresh          ....  2.500e-11 Eh
 Primitive CutOff       TCut            ....  2.500e-12 Eh

Convergence Tolerance:
 Convergence Check Mode ConvCheckMode   .... Total+1el-Energy
 Convergence forced     ConvForced      .... 0
 Energy Change          TolE            ....  1.000e-08 Eh
 1-El. energy change                    ....  1.000e-05 Eh
 DIIS Error             TolErr          ....  5.000e-07


Diagonalization of the overlap matrix:
Smallest eigenvalue                        ... 7.726e-04
Time for diagonalization                   ...    0.004 sec
Threshold for overlap eigenvalues          ... 1.000e-08
Number of eigenvalues below threshold      ... 0
Time for construction of square roots      ...    0.002 sec
Total time needed                          ...    0.006 sec

-------------------
DFT GRID GENERATION
-------------------

General Integration Accuracy     IntAcc      ...  4.670
Radial Grid Type                 RadialGrid  ... Gauss-Chebyshev
Angular Grid (max. acc.)         AngularGrid ... Lebedev-302
Angular grid pruning method      GridPruning ... 3 (G Style)
Weight generation scheme         WeightScheme... Becke
Basis function cutoff            BFCut       ...    1.0000e-11
Integration weight cutoff        WCut        ...    1.0000e-14
Grids for H and He will be reduced by one unit

# of grid points (after initial pruning)     ...  19112 (   0.0 sec)
# of grid points (after weights+screening)   ...  19084 (   0.0 sec)
nearest neighbour list constructed           ...    0.0 sec
Grid point re-assignment to atoms done       ...    0.0 sec
Grid point division into batches done        ...    0.2 sec
Reduced shell lists constructed in    0.2 sec

Total number of grid points                  ...    19084
Total number of batches                      ...      300
Average number of points per batch           ...       63
Average number of grid points per atom       ...     9542
Average number of shells per batch           ...     8.64 (22.74%)
Average number of basis functions per batch  ...    22.79 (17.00%)
Average number of large shells per batch     ...     5.86 (67.77%)
Average number of large basis fcns per batch ...    17.00 (74.61%)
Maximum spatial batch extension              ...  22.17, 22.17, 16.36 au
Average spatial batch extension              ...   0.75,  0.76,  0.60 au

Time for grid setup =    0.207 sec

------------------------------
INITIAL GUESS: MODEL POTENTIAL
------------------------------
Loading Hartree-Fock densities                     ... done
Calculating cut-offs                               ... done
Setting up the integral package                    ... done
Initializing the effective Hamiltonian             ... done
Starting the Coulomb interaction                   ... done (   0.0 sec)
Reading the grid                                   ... done
Mapping shells                                     ... done
Starting the XC term evaluation                    ... done (   0.0 sec)
  promolecular density results
     # of electrons  =     58.000033959
     EX              =   -100.725636356
     EC              =     -3.587835698
     EX+EC           =   -104.313472053
Transforming the Hamiltonian                       ... done (   0.0 sec)
Diagonalizing the Hamiltonian                      ... done (   0.0 sec)
Back transforming the eigenvectors                 ... done (   0.0 sec)
Now organizing SCF variables                       ... done
                      ------------------
                      INITIAL GUESS DONE (   0.3 sec)
                      ------------------
--------------
SCF ITERATIONS
--------------
ITER       Energy         Delta-E        Max-DP      RMS-DP      [F,P]     Damp
               ***  Starting incremental Fock matrix formation  ***
  0  -3277.1594442541   0.000000000000 0.29285444  0.00761190  1.4893786 0.7000
  1  -3279.1447032451  -1.985258991003 0.17820584  0.00367116  0.3995901 0.7000
  2  -3279.7117727397  -0.567069494628 0.10261640  0.00216872  0.2341622 0.7000
  3  -3280.0622498259  -0.350477086134 0.04709115  0.00163542  0.2264668 0.7000
                               ***Turning on DIIS***
  4  -3280.3202209909  -0.257971165037 0.04046291  0.00119765  0.1509309 0.7000
  5  -3280.5040748362  -0.183853845301 0.14831081  0.00311711  0.0919602 0.0000
  6  -3280.9485235791  -0.444448742905 0.06231427  0.00112088  0.0270089 0.0000
  7  -3280.9498948465  -0.001371267332 0.01372646  0.00032897  0.0386680 0.0000
  8  -3280.9526586349  -0.002763788404 0.01790225  0.00029164  0.0067605 0.0000
  9  -3280.9531833559  -0.000524721024 0.01330873  0.00022056  0.0050587 0.0000
 10  -3280.9534630475  -0.000279691640 0.00801073  0.00015755  0.0034956 0.0000
 11  -3280.9536264729  -0.000163425408 0.00519017  0.00011739  0.0023065 0.0000
 12  -3280.9536978647  -0.000071391803 0.00402391  0.00008849  0.0015219 0.0000
 13  -3280.9537323369  -0.000034472137 0.00536414  0.00012554  0.0009617 0.0000
 14  -3280.9537544845  -0.000022147663 0.00059611  0.00001452  0.0002072 0.0000
 15  -3280.9537550000  -0.000000515504 0.00023820  0.00000630  0.0000727 0.0000
 16  -3280.9537550620  -0.000000061993 0.00003135  0.00000080  0.0000251 0.0000
 17  -3280.9537550676  -0.000000005616 0.00001411  0.00000039  0.0000114 0.0000
 18  -3280.9537550687  -0.000000001086 0.00001384  0.00000022  0.0000046 0.0000
 19  -3280.9537550691  -0.000000000365 0.00000481  0.00000008  0.0000036 0.0000
               *** Restarting incremental Fock matrix formation ***
                                   *** Resetting DIIS ***
 20  -3280.9537550683   0.000000000828 0.00000811  0.00000016  0.0000032 0.0000
 21  -3280.9537550679   0.000000000364 0.00000315  0.00000007  0.0000065 0.0000
                            ***DIIS convergence achieved***

               *****************************************************
               *                     SUCCESS                       *
               *           SCF CONVERGED AFTER  22 CYCLES          *
               *****************************************************


Setting up the DFT-NL grid :

General Integration Accuracy     IntAcc      ...  4.340
Radial Grid Type                 RadialGrid  ... Gauss-Chebyshev
Angular Grid (max. acc.)         AngularGrid ... Lebedev-110
Angular grid pruning method      GridPruning ... 3 (G Style)
Weight generation scheme         WeightScheme... Becke
Basis function cutoff            BFCut       ...    1.0000e-11
Integration weight cutoff        WCut        ...    1.0000e-14
Grids for H and He will be reduced by one unit

# of grid points (after initial pruning)     ...   5824 (   0.0 sec)
# of grid points (after weights+screening)   ...   5798 (   0.0 sec)
nearest neighbour list constructed           ...    0.0 sec
Grid point re-assignment to atoms done       ...    0.0 sec
Grid point division into batches done        ...    0.0 sec
Reduced shell lists constructed in    0.0 sec

Total number of grid points                  ...     5798
Total number of batches                      ...       92
Average number of points per batch           ...       63
Average number of grid points per atom       ...     2899
Average number of shells per batch           ...    11.20 (29.47%)
Average number of basis functions per batch  ...    33.60 (25.07%)
Average number of large shells per batch     ...    10.00 (89.29%)
Average number of large basis fcns per batch ...    29.20 (86.90%)
Maximum spatial batch extension              ...  17.23, 26.34, 14.81 au
Average spatial batch extension              ...   0.69,  0.95,  0.64 au

Final grid set up in    0.0 sec

-------------------------------------------------------------------------------
                         DFT-NL dispersion correction                          
-------------------------------------------------------------------------------

SC Energy -3280.953755068 
NL    Energy 0.244916307 
SC+NL Energy -3280.708838761 
NL done in    0.1 sec
-------------------------------------------------------------------------------

----------------
TOTAL SCF ENERGY
----------------

Total Energy       :        -3280.70883876 Eh          -89272.62604 eV

Components:
Nuclear Repulsion  :          200.92191902 Eh            5467.36337 eV
Electronic Energy  :        -3481.63075778 Eh          -94739.98941 eV
One Electron Energy:        -4977.99812472 Eh         -135458.21554 eV
Two Electron Energy:         1496.36736694 Eh           40718.22613 eV

Virial components:
Potential Energy   :        -6556.83224222 Eh         -178420.47603 eV
Kinetic Energy     :         3276.12340346 Eh           89147.85000 eV
Virial Ratio       :            2.00139965


DFT components:
N(Alpha)           :       29.000000948021 electrons
N(Beta)            :       29.000000948021 electrons
N(Total)           :       58.000001896043 electrons
E(X)               :     -100.930216168045 Eh       
E(C)               :       -3.609668572090 Eh       
NL Energy, E(C,NL) :        0.244916307156 Eh       
E(XC)              :     -104.294968432979 Eh       
DFET-embed. en.    :        0.000000000000 Eh       

---------------
SCF CONVERGENCE
---------------

  Last Energy change         ...   -2.8422e-10  Tolerance :   1.0000e-08
  Last MAX-Density change    ...    3.0056e-06  Tolerance :   1.0000e-07
  Last RMS-Density change    ...    5.9145e-08  Tolerance :   5.0000e-09
  Last DIIS Error            ...    2.4118e-07  Tolerance :   5.0000e-07

             **** THE GBW FILE WAS UPDATED (Cu02N0.gbw) ****
             **** DENSITY FILE WAS UPDATED (Cu02N0.scfp) ****
             **** ENERGY FILE WAS UPDATED (Cu02N0.en.tmp) ****
             **** THE GBW FILE WAS UPDATED (Cu02N0.gbw) ****
             **** DENSITY FILE WAS UPDATED (Cu02N0.scfp) ****
----------------
ORBITAL ENERGIES
----------------

  NO   OCC          E(Eh)            E(eV) 
   0   2.0000    -322.836439     -8784.8261 
   1   2.0000    -322.836431     -8784.8259 
   2   2.0000     -38.816875     -1056.2609 
   3   2.0000     -38.816829     -1056.2596 
   4   2.0000     -34.014173      -925.5727 
   5   2.0000     -34.014166      -925.5725 
   6   2.0000     -34.013563      -925.5561 
   7   2.0000     -34.013563      -925.5561 
   8   2.0000     -34.013556      -925.5559 
   9   2.0000     -34.013556      -925.5559 
  10   2.0000      -4.368252      -118.8662 
  11   2.0000      -4.367562      -118.8474 
  12   2.0000      -2.867931       -78.0404 
  13   2.0000      -2.862104       -77.8818 
  14   2.0000      -2.861614       -77.8685 
  15   2.0000      -2.861614       -77.8685 
  16   2.0000      -2.861143       -77.8557 
  17   2.0000      -2.861143       -77.8557 
  18   2.0000      -0.391453       -10.6520 
  19   2.0000      -0.378374       -10.2961 
  20   2.0000      -0.378374       -10.2961 
  21   2.0000      -0.359258        -9.7759 
  22   2.0000      -0.359252        -9.7758 
  23   2.0000      -0.350799        -9.5457 
  24   2.0000      -0.350793        -9.5456 
  25   2.0000      -0.339170        -9.2293 
  26   2.0000      -0.339170        -9.2293 
  27   2.0000      -0.335335        -9.1249 
  28   2.0000      -0.280217        -7.6251 
  29   0.0000      -0.015357        -0.4179 
  30   0.0000       0.033493         0.9114 
  31   0.0000       0.033493         0.9114 
  32   0.0000       0.055688         1.5154 
  33   0.0000       0.084451         2.2980 
  34   0.0000       0.088497         2.4081 
  35   0.0000       0.088497         2.4081 
  36   0.0000       0.162398         4.4191 
  37   0.0000       0.180985         4.9248 
  38   0.0000       0.180985         4.9248 
  39   0.0000       0.189923         5.1681 
  40   0.0000       0.239021         6.5041 
  41   0.0000       0.239256         6.5105 
  42   0.0000       0.239256         6.5105 
  43   0.0000       0.242772         6.6062 
  44   0.0000       0.242772         6.6062 
  45   0.0000       0.292647         7.9633 
  46   0.0000       0.300048         8.1647 
  47   0.0000       0.300048         8.1647 
  48   0.0000       0.311037         8.4637 
  49   0.0000       0.311037         8.4637 
  50   0.0000       0.392065        10.6686 
  51   0.0000       0.407888        11.0992 
  52   0.0000       0.407888        11.0992 
  53   0.0000       0.598242        16.2790 
  54   0.0000       0.734910        19.9979 
  55   0.0000       0.752957        20.4890 
  56   0.0000       0.752957        20.4890 
  57   0.0000       0.833479        22.6801 
  58   0.0000       0.833479        22.6801 
  59   0.0000       0.886461        24.1218 
  60   0.0000       0.949160        25.8280 
  61   0.0000       0.949160        25.8280 
  62   0.0000       0.979909        26.6647 
  63   0.0000       0.979910        26.6647 
  64   0.0000       1.062343        28.9078 
  65   0.0000       1.062345        28.9079 
  66   0.0000       1.092048        29.7161 
  67   0.0000       1.211928        32.9782 
  68   0.0000       1.211928        32.9782 
  69   0.0000       1.431168        38.9441 
  70   0.0000       3.084979        83.9465 
  71   0.0000       3.116423        84.8022 
  72   0.0000       3.116423        84.8022 
  73   0.0000       3.181574        86.5750 
  74   0.0000       3.202586        87.1468 
  75   0.0000       3.202586        87.1468 
  76   0.0000       3.262334        88.7726 
  77   0.0000       3.535870        96.2159 
  78   0.0000       3.535870        96.2159 
  79   0.0000       3.540505        96.3420 
  80   0.0000       3.551798        96.6493 
  81   0.0000       3.560713        96.8919 
  82   0.0000       3.560725        96.8922 
  83   0.0000       3.573019        97.2268 
  84   0.0000       3.573019        97.2268 
  85   0.0000       3.573607        97.2428 
  86   0.0000       3.573607        97.2428 
  87   0.0000       3.576162        97.3123 
  88   0.0000       3.576176        97.3127 
  89   0.0000       3.598147        97.9105 
  90   0.0000       3.598147        97.9105 
  91   0.0000       3.747470       101.9739 
  92   0.0000       3.796938       103.3199 
  93   0.0000       3.796977       103.3210 
  94   0.0000       3.840006       104.4919 
  95   0.0000       3.840043       104.4929 
  96   0.0000       3.867470       105.2392 
  97   0.0000       3.867470       105.2392 
  98   0.0000       3.936092       107.1065 
  99   0.0000       3.936092       107.1065 
 100   0.0000       4.137506       112.5873 
 101   0.0000       4.228596       115.0659 
 102   0.0000      13.097935       356.4129 
 103   0.0000      13.098024       356.4154 
 104   0.0000      13.098024       356.4154 
 105   0.0000      13.098616       356.4315 
 106   0.0000      13.098616       356.4315 
 107   0.0000      13.098687       356.4334 
 108   0.0000      13.098715       356.4341 
 109   0.0000      13.099268       356.4492 
 110   0.0000      13.099298       356.4500 
 111   0.0000      13.099956       356.4679 
 112   0.0000      13.100657       356.4870 
 113   0.0000      13.100657       356.4870 
 114   0.0000      13.100663       356.4872 
 115   0.0000      13.100663       356.4872 
 116   0.0000      13.102460       356.5361 
 117   0.0000      13.102460       356.5361 
 118   0.0000      13.102674       356.5419 
 119   0.0000      13.102675       356.5419 
 120   0.0000      13.265287       360.9668 
 121   0.0000      13.271456       361.1347 
 122   0.0000      13.271456       361.1347 
 123   0.0000      13.274879       361.2278 
 124   0.0000      13.275122       361.2344 
 125   0.0000      13.277548       361.3005 
 126   0.0000      13.277548       361.3005 
 127   0.0000      13.277720       361.3051 
 128   0.0000      13.277720       361.3051 
 129   0.0000      13.278552       361.3278 
 130   0.0000      13.278793       361.3343 
 131   0.0000      13.303471       362.0059 
 132   0.0000      13.303471       362.0059 
 133   0.0000      13.425933       365.3382 

                    ********************************
                    * MULLIKEN POPULATION ANALYSIS *
                    ********************************

-----------------------
MULLIKEN ATOMIC CHARGES
-----------------------
   0 Cu:    0.000010
   1 Cu:   -0.000010
Sum of atomic charges:   -0.0000000

--------------------------------
MULLIKEN REDUCED ORBITAL CHARGES
--------------------------------
  0 Cus       :     6.977587  s :     6.977587
      pz      :     4.047888  p :    12.061997
      px      :     4.007054
      py      :     4.007054
      dz2     :     1.974413  d :     9.960144
      dxz     :     1.992886
      dyz     :     1.992886
      dx2y2   :     1.999980
      dxy     :     1.999980
      f0      :     0.000102  f :     0.000262
      f+1     :     0.000060
      f-1     :     0.000060
      f+2     :     0.000020
      f-2     :     0.000020
      f+3     :     0.000000
      f-3     :     0.000000
      g0      :     0.000000  g :     0.000001
      g+1     :     0.000000
      g-1     :     0.000000
      g+2     :     0.000000
      g-2     :     0.000000
      g+3     :     0.000000
      g-3     :     0.000000
      g+4     :     0.000000
      g-4     :     0.000000
  1 Cus       :     6.977602  s :     6.977602
      pz      :     4.047891  p :    12.062000
      px      :     4.007054
      py      :     4.007054
      dz2     :     1.974414  d :     9.960145
      dxz     :     1.992886
      dyz     :     1.992886
      dx2y2   :     1.999980
      dxy     :     1.999980
      f0      :     0.000102  f :     0.000262
      f+1     :     0.000060
      f-1     :     0.000060
      f+2     :     0.000020
      f-2     :     0.000020
      f+3     :     0.000000
      f-3     :     0.000000
      g0      :     0.000000  g :     0.000001
      g+1     :     0.000000
      g-1     :     0.000000
      g+2     :     0.000000
      g-2     :     0.000000
      g+3     :     0.000000
      g-3     :     0.000000
      g+4     :     0.000000
      g-4     :     0.000000


                     *******************************
                     * LOEWDIN POPULATION ANALYSIS *
                     *******************************

----------------------
LOEWDIN ATOMIC CHARGES
----------------------
   0 Cu:    0.000000
   1 Cu:   -0.000000

-------------------------------
LOEWDIN REDUCED ORBITAL CHARGES
-------------------------------
  0 Cus       :     6.838445  s :     6.838445
      pz      :     4.141538  p :    12.161033
      px      :     4.009748
      py      :     4.009748
      dz2     :     2.019798  d :     9.999990
      dxz     :     1.990120
      dyz     :     1.990120
      dx2y2   :     1.999976
      dxy     :     1.999976
      f0      :     0.000219  f :     0.000530
      f+1     :     0.000131
      f-1     :     0.000131
      f+2     :     0.000024
      f-2     :     0.000024
      f+3     :     0.000000
      f-3     :     0.000000
      g0      :     0.000001  g :     0.000002
      g+1     :     0.000000
      g-1     :     0.000000
      g+2     :     0.000000
      g-2     :     0.000000
      g+3     :     0.000000
      g-3     :     0.000000
      g+4     :     0.000000
      g-4     :     0.000000
  1 Cus       :     6.838445  s :     6.838445
      pz      :     4.141538  p :    12.161034
      px      :     4.009748
      py      :     4.009748
      dz2     :     2.019798  d :     9.999990
      dxz     :     1.990120
      dyz     :     1.990120
      dx2y2   :     1.999976
      dxy     :     1.999976
      f0      :     0.000219  f :     0.000530
      f+1     :     0.000131
      f-1     :     0.000131
      f+2     :     0.000024
      f-2     :     0.000024
      f+3     :     0.000000
      f-3     :     0.000000
      g0      :     0.000001  g :     0.000002
      g+1     :     0.000000
      g-1     :     0.000000
      g+2     :     0.000000
      g-2     :     0.000000
      g+3     :     0.000000
      g-3     :     0.000000
      g+4     :     0.000000
      g-4     :     0.000000


                      *****************************
                      * MAYER POPULATION ANALYSIS *
                      *****************************

  NA   - Mulliken gross atomic population
  ZA   - Total nuclear charge
  QA   - Mulliken gross atomic charge
  VA   - Mayer's total valence
  BVA  - Mayer's bonded valence
  FA   - Mayer's free valence

  ATOM       NA         ZA         QA         VA         BVA        FA
  0 Cu    29.0000    29.0000     0.0000     1.0562     1.0562    -0.0000
  1 Cu    29.0000    29.0000    -0.0000     1.0562     1.0562     0.0000

  Mayer bond orders larger than 0.100000
B(  0-Cu,  1-Cu) :   1.0562 

-------
TIMINGS
-------

Total SCF time: 0 days 0 hours 0 min 9 sec 

Total time                  ....       9.128 sec
Sum of individual times     ....       8.848 sec  ( 96.9%)

Fock matrix formation       ....       8.423 sec  ( 92.3%)
  XC integration            ....       0.292 sec  (  3.5% of F)
    Basis function eval.    ....       0.047 sec  ( 16.3% of XC)
    Density eval.           ....       0.030 sec  ( 10.4% of XC)
    XC-Functional eval.     ....       0.029 sec  (  9.9% of XC)
    XC-Potential eval.      ....       0.049 sec  ( 16.8% of XC)
Diagonalization             ....       0.055 sec  (  0.6%)
Density matrix formation    ....       0.008 sec  (  0.1%)
Population analysis         ....       0.003 sec  (  0.0%)
Initial guess               ....       0.110 sec  (  1.2%)
Orbital Transformation      ....       0.000 sec  (  0.0%)
Orbital Orthonormalization  ....       0.000 sec  (  0.0%)
DIIS solution               ....       0.026 sec  (  0.3%)
Grid generation             ....       0.225 sec  (  2.5%)

-------------------------   --------------------
FINAL SINGLE POINT ENERGY     -3280.708838761036
-------------------------   --------------------


----------------------------------------------------------------------------
                           ORCA NUMERICAL GRADIENT
                              (24-process run)
----------------------------------------------------------------------------

I state                        ... 1
J state                        ... 0
Number of atoms                ... 2
Derivative's order of accuracy ... 2
Central differences            ... used
Number of displacements        ... 12
Numerical increment            ... 5.000e-03 bohr
Translation invariance         ... used

The output will be reduced. Please look at the following files:
SCF program output             ... >Cu02N0.lastscf
Integral program output        ... >Cu02N0.lastint
Gradient program output        ... >Cu02N0.lastgrad


     Note:   There are more processes than displacements to do
     ===>:   Reducing number of processes to   3

             <<<Displacing   2/coordinate 1 (+)>>>
             <<<Displacing   2/coordinate 2 (+)>>>
             <<<Displacing   2/coordinate 3 (+)>>>
             <<<Displacing   2/coordinate 1 (-)>>>
             <<<Displacing   2/coordinate 2 (-)>>>
             <<<Displacing   2/coordinate 3 (-)>>>

------------------------------
CARTESIAN GRADIENT (NUMERICAL)
-------------------------------
   1   Cu  :   -0.000000013   -0.000000006   -0.010470493
   2   Cu  :    0.000000013    0.000000006    0.010470493

Norm of the cartesian gradient     ...    0.014807513
RMS gradient                       ...    0.006045142
MAX gradient                       ...    0.010470493

-------
TIMINGS
-------

Total numerical gradient time      ...       73.372 sec

------------------------------------------------------------------------------
                         ORCA GEOMETRY RELAXATION STEP
------------------------------------------------------------------------------

Reading the OPT-File                    .... done
Getting information on internals        .... done
Copying old internal coords+grads       .... done
Making the new internal coordinates     .... (new redundants).... done
Validating the new internal coordinates .... (new redundants).... done
Calculating the B-matrix                .... done
Calculating the G,G- and P matrices     .... done
Transforming gradient to internals      .... done
Projecting the internal gradient        .... done
Number of atoms                         ....   2
Number of internal coordinates          ....   1
Current Energy                          .... -3280.708838761 Eh
Current gradient norm                   ....     0.014807513 Eh/bohr
Maximum allowed component of the step   ....  0.300
Current trust radius                    ....  0.300
Evaluating the initial hessian          ....  (Almloef) done
Projecting the Hessian                  .... done
Forming the augmented Hessian           .... done
Diagonalizing the augmented Hessian     .... done
Last element of RFO vector              ....  0.999994255
Lowest eigenvalues of augmented Hessian:
 -0.000035493
Length of the computed step             ....  0.003389822
The final length of the internal step   ....  0.003389822
Converting the step to cartesian space:
 Initial RMS(Int)=    0.0033898224
Transforming coordinates:
 Iter   0:  RMS(Cart)=    0.0009785574 RMS(Int)=    0.0033898224
 Iter   1:  RMS(Cart)=    0.0000000000 RMS(Int)=    0.0000000000
done
Storing new coordinates                 .... done

                                .--------------------.
          ----------------------|Geometry convergence|-------------------------
          Item                value                   Tolerance       Converged
          ---------------------------------------------------------------------
          RMS gradient        0.0104704932            0.0001000000      NO
          MAX gradient        0.0104704932            0.0003000000      NO
          RMS step            0.0033898224            0.0020000000      NO
          MAX step            0.0033898224            0.0040000000      YES
          ........................................................
          Max(Bonds)      0.0018      Max(Angles)    0.00
          Max(Dihed)        0.00      Max(Improp)    0.00
          ---------------------------------------------------------------------

The optimization has not yet converged - more geometry cycles are needed


    ---------------------------------------------------------------------------
                         Redundant Internal Coordinates
                            (Angstroem and degrees)

        Definition                    Value    dE/dq     Step     New-Value
    ----------------------------------------------------------------------------
     1. B(Cu  1,Cu  0)                2.2150 -0.010470  0.0018    2.2168   
    ----------------------------------------------------------------------------

         *************************************************************
         *                GEOMETRY OPTIMIZATION CYCLE   2            *
         *************************************************************
---------------------------------
CARTESIAN COORDINATES (ANGSTROEM)
---------------------------------
  Cu     0.000000    0.000000    1.108387
  Cu     0.000000    0.000000   -1.108387

----------------------------
CARTESIAN COORDINATES (A.U.)
----------------------------
  NO LB      ZA    FRAG     MASS         X           Y           Z
   0 Cu   29.0000    0    63.550    0.000000    0.000000    2.094548
   1 Cu   29.0000    0    63.550    0.000000    0.000000   -2.094548

--------------------------------
INTERNAL COORDINATES (ANGSTROEM)
--------------------------------
 Cu     0   0   0     0.000000000000     0.00000000     0.00000000
 Cu     1   0   0     2.216773816743     0.00000000     0.00000000

---------------------------
INTERNAL COORDINATES (A.U.)
---------------------------
 Cu     0   0   0     0.000000000000     0.00000000     0.00000000
 Cu     1   0   0     4.189095414491     0.00000000     0.00000000



           ************************************************************
           *        Program running with 24 parallel MPI-processes    *
           *              working on a common directory               *
           ************************************************************


           ************************************************************
           *        Program running with 24 parallel MPI-processes    *
           *              working on a common directory               *
           ************************************************************

Diagonalization of the overlap matrix:
Smallest eigenvalue                        ... 7.749e-04
Time for diagonalization                   ...    0.005 sec
Threshold for overlap eigenvalues          ... 1.000e-08
Number of eigenvalues below threshold      ... 0
Time for construction of square roots      ...    0.002 sec
Total time needed                          ...    0.007 sec

-------------------
DFT GRID GENERATION
-------------------

General Integration Accuracy     IntAcc      ...  4.670
Radial Grid Type                 RadialGrid  ... Gauss-Chebyshev
Angular Grid (max. acc.)         AngularGrid ... Lebedev-302
Angular grid pruning method      GridPruning ... 3 (G Style)
Weight generation scheme         WeightScheme... Becke
Basis function cutoff            BFCut       ...    1.0000e-11
Integration weight cutoff        WCut        ...    1.0000e-14
Grids for H and He will be reduced by one unit

# of grid points (after initial pruning)     ...  19112 (   0.0 sec)
# of grid points (after weights+screening)   ...  19084 (   0.0 sec)
nearest neighbour list constructed           ...    0.0 sec
Grid point re-assignment to atoms done       ...    0.0 sec
Grid point division into batches done        ...    0.1 sec
Reduced shell lists constructed in    0.1 sec

Total number of grid points                  ...    19084
Total number of batches                      ...      300
Average number of points per batch           ...       63
Average number of grid points per atom       ...     9542
Average number of shells per batch           ...     8.64 (22.74%)
Average number of basis functions per batch  ...    22.79 (17.00%)
Average number of large shells per batch     ...     5.86 (67.77%)
Average number of large basis fcns per batch ...    17.00 (74.61%)
Maximum spatial batch extension              ...  22.17, 22.17, 16.36 au
Average spatial batch extension              ...   0.76,  0.75,  0.60 au

Time for grid setup =    0.187 sec

--------------
SCF ITERATIONS
--------------
ITER       Energy         Delta-E        Max-DP      RMS-DP      [F,P]     Damp
               ***  Starting incremental Fock matrix formation  ***
  0  -3280.9537950799   0.000000000000 0.00002807  0.00000100  0.0006434 0.7000
  1  -3280.9537951116  -0.000000031680 0.00003024  0.00000087  0.0004507 0.7000
                               ***Turning on DIIS***
  2  -3280.9537951333  -0.000000021721 0.00010211  0.00000240  0.0003156 0.0000
  3  -3280.9537951858  -0.000000052555 0.00002744  0.00000054  0.0000167 0.0000
  4  -3280.9537951876  -0.000000001732 0.00001346  0.00000026  0.0000092 0.0000
  5  -3280.9537951873   0.000000000221 0.00000478  0.00000014  0.0000087 0.0000
  6  -3280.9537951874  -0.000000000045 0.00001087  0.00000021  0.0000042 0.0000
  7  -3280.9537951873   0.000000000078 0.00000404  0.00000009  0.0000012 0.0000
                 **** Energy Check signals convergence ****

               *****************************************************
               *                     SUCCESS                       *
               *           SCF CONVERGED AFTER   8 CYCLES          *
               *****************************************************


Setting up the DFT-NL grid :

General Integration Accuracy     IntAcc      ...  4.340
Radial Grid Type                 RadialGrid  ... Gauss-Chebyshev
Angular Grid (max. acc.)         AngularGrid ... Lebedev-110
Angular grid pruning method      GridPruning ... 3 (G Style)
Weight generation scheme         WeightScheme... Becke
Basis function cutoff            BFCut       ...    1.0000e-11
Integration weight cutoff        WCut        ...    1.0000e-14
Grids for H and He will be reduced by one unit

# of grid points (after initial pruning)     ...   5824 (   0.0 sec)
# of grid points (after weights+screening)   ...   5798 (   0.0 sec)
nearest neighbour list constructed           ...    0.0 sec
Grid point re-assignment to atoms done       ...    0.0 sec
Grid point division into batches done        ...    0.0 sec
Reduced shell lists constructed in    0.0 sec

Total number of grid points                  ...     5798
Total number of batches                      ...       92
Average number of points per batch           ...       63
Average number of grid points per atom       ...     2899
Average number of shells per batch           ...    11.20 (29.47%)
Average number of basis functions per batch  ...    33.60 (25.07%)
Average number of large shells per batch     ...    10.00 (89.29%)
Average number of large basis fcns per batch ...    29.20 (86.90%)
Maximum spatial batch extension              ...  17.23, 26.34, 14.81 au
Average spatial batch extension              ...   0.69,  0.95,  0.64 au

Final grid set up in    0.0 sec

-------------------------------------------------------------------------------
                         DFT-NL dispersion correction                          
-------------------------------------------------------------------------------

SC Energy -3280.953795188 
NL    Energy 0.244921491 
SC+NL Energy -3280.708873697 
NL done in    0.0 sec
-------------------------------------------------------------------------------
Total Energy       :        -3280.70887370 Eh          -89272.62699 eV
  Last Energy change         ...   -3.3242e-10  Tolerance :   1.0000e-08
  Last MAX-Density change    ...    2.5761e-06  Tolerance :   1.0000e-07
             **** THE GBW FILE WAS UPDATED (Cu02N0.gbw) ****
             **** DENSITY FILE WAS UPDATED (Cu02N0.scfp) ****
             **** ENERGY FILE WAS UPDATED (Cu02N0.en.tmp) ****
             **** THE GBW FILE WAS UPDATED (Cu02N0.gbw) ****
             **** DENSITY FILE WAS UPDATED (Cu02N0.scfp) ****
Total SCF time: 0 days 0 hours 0 min 3 sec 

-------------------------   --------------------
FINAL SINGLE POINT ENERGY     -3280.708873696753
-------------------------   --------------------


----------------------------------------------------------------------------
                           ORCA NUMERICAL GRADIENT
                              (24-process run)
----------------------------------------------------------------------------

I state                        ... 1
J state                        ... 0
Number of atoms                ... 2
Derivative's order of accuracy ... 2
Central differences            ... used
Number of displacements        ... 12
Numerical increment            ... 5.000e-03 bohr
Translation invariance         ... used

The output will be reduced. Please look at the following files:
SCF program output             ... >Cu02N0.lastscf
Integral program output        ... >Cu02N0.lastint
Gradient program output        ... >Cu02N0.lastgrad


     Note:   There are more processes than displacements to do
     ===>:   Reducing number of processes to   3

             <<<Displacing   2/coordinate 2 (+)>>>
             <<<Displacing   2/coordinate 1 (+)>>>
             <<<Displacing   2/coordinate 3 (+)>>>
             <<<Displacing   2/coordinate 2 (-)>>>
             <<<Displacing   2/coordinate 1 (-)>>>
             <<<Displacing   2/coordinate 3 (-)>>>

------------------------------
CARTESIAN GRADIENT (NUMERICAL)
-------------------------------
   1   Cu  :   -0.000000065    0.000000015   -0.010143545
   2   Cu  :    0.000000065   -0.000000015    0.010143545

Norm of the cartesian gradient     ...    0.014345138
RMS gradient                       ...    0.005856378
MAX gradient                       ...    0.010143545

-------
TIMINGS
-------

Total numerical gradient time      ...       73.304 sec

------------------------------------------------------------------------------
                         ORCA GEOMETRY RELAXATION STEP
------------------------------------------------------------------------------

Reading the OPT-File                    .... done
Getting information on internals        .... done
Copying old internal coords+grads       .... done
Making the new internal coordinates     .... (new redundants).... done
Validating the new internal coordinates .... (new redundants).... done
Calculating the B-matrix                .... done
Calculating the G,G- and P matrices     .... done
Transforming gradient to internals      .... done
Projecting the internal gradient        .... done
Number of atoms                         ....   2
Number of internal coordinates          ....   1
Current Energy                          .... -3280.708873697 Eh
Current gradient norm                   ....     0.014345138 Eh/bohr
Maximum allowed component of the step   ....  0.300
Current trust radius                    ....  0.300
Updating the Hessian (BFGS)             .... done
Forming the augmented Hessian           .... done
Diagonalizing the augmented Hessian     .... done
Last element of RFO vector              ....  0.994632334
Lowest eigenvalues of augmented Hessian:
 -0.001055240
Length of the computed step             ....  0.104030716
The final length of the internal step   ....  0.104030716
Converting the step to cartesian space:
 Initial RMS(Int)=    0.1040307164
Transforming coordinates:
 Iter   0:  RMS(Cart)=    0.0300310810 RMS(Int)=    0.1040307164
 Iter   1:  RMS(Cart)=    0.0000000000 RMS(Int)=    0.0000000000
done
Storing new coordinates                 .... done

                                .--------------------.
          ----------------------|Geometry convergence|-------------------------
          Item                value                   Tolerance       Converged
          ---------------------------------------------------------------------
          Energy change      -0.0000349357            0.0000050000      NO
          RMS gradient        0.0101435447            0.0001000000      NO
          MAX gradient        0.0101435447            0.0003000000      NO
          RMS step            0.1040307164            0.0020000000      NO
          MAX step            0.1040307164            0.0040000000      NO
          ........................................................
          Max(Bonds)      0.0551      Max(Angles)    0.00
          Max(Dihed)        0.00      Max(Improp)    0.00
          ---------------------------------------------------------------------

The optimization has not yet converged - more geometry cycles are needed


    ---------------------------------------------------------------------------
                         Redundant Internal Coordinates
                            (Angstroem and degrees)

        Definition                    Value    dE/dq     Step     New-Value
    ----------------------------------------------------------------------------
     1. B(Cu  1,Cu  0)                2.2168 -0.010144  0.0551    2.2718   
    ----------------------------------------------------------------------------

         *************************************************************
         *                GEOMETRY OPTIMIZATION CYCLE   3            *
         *************************************************************


           ************************************************************
           *        Program running with 24 parallel MPI-processes    *
           *              working on a common directory               *
           ************************************************************


           ************************************************************
           *        Program running with 24 parallel MPI-processes    *
           *              working on a common directory               *
           ************************************************************

Diagonalization of the overlap matrix:
Smallest eigenvalue                        ... 8.464e-04
Time for diagonalization                   ...    0.005 sec
Threshold for overlap eigenvalues          ... 1.000e-08
Number of eigenvalues below threshold      ... 0
Time for construction of square roots      ...    0.002 sec
Total time needed                          ...    0.008 sec

-------------------
DFT GRID GENERATION
-------------------

General Integration Accuracy     IntAcc      ...  4.670
Radial Grid Type                 RadialGrid  ... Gauss-Chebyshev
Angular Grid (max. acc.)         AngularGrid ... Lebedev-302
Angular grid pruning method      GridPruning ... 3 (G Style)
Weight generation scheme         WeightScheme... Becke
Basis function cutoff            BFCut       ...    1.0000e-11
Integration weight cutoff        WCut        ...    1.0000e-14
Grids for H and He will be reduced by one unit

# of grid points (after initial pruning)     ...  19112 (   0.0 sec)
# of grid points (after weights+screening)   ...  19084 (   0.0 sec)
nearest neighbour list constructed           ...    0.0 sec
Grid point re-assignment to atoms done       ...    0.0 sec
Grid point division into batches done        ...    0.1 sec
Reduced shell lists constructed in    0.1 sec

Total number of grid points                  ...    19084
Total number of batches                      ...      300
Average number of points per batch           ...       63
Average number of grid points per atom       ...     9542
Average number of shells per batch           ...     8.64 (22.74%)
Average number of basis functions per batch  ...    22.79 (17.00%)
Average number of large shells per batch     ...     5.86 (67.77%)
Average number of large basis fcns per batch ...    17.00 (74.61%)
Maximum spatial batch extension              ...  22.17, 22.17, 16.47 au
Average spatial batch extension              ...   0.76,  0.76,  0.60 au

Time for grid setup =    0.185 sec

--------------
SCF ITERATIONS
--------------
ITER       Energy         Delta-E        Max-DP      RMS-DP      [F,P]     Damp
               ***  Starting incremental Fock matrix formation  ***
  0  -3280.9544205803   0.000000000000 0.00089886  0.00003040  0.0192880 0.7000
  1  -3280.9544485163  -0.000027935962 0.00097479  0.00002670  0.0135106 0.7000
                               ***Turning on DIIS***
  2  -3280.9544677557  -0.000019239353 0.00292165  0.00007055  0.0094602 0.0000
  3  -3280.9545143864  -0.000046630750 0.00121452  0.00002070  0.0004935 0.0000
  4  -3280.9545163374  -0.000001950973 0.00042151  0.00000802  0.0002239 0.0000
  5  -3280.9545167089  -0.000000371493 0.00034797  0.00000642  0.0001506 0.0000
  6  -3280.9545168335  -0.000000124589 0.00018976  0.00000437  0.0001961 0.0000
  7  -3280.9545169662  -0.000000132705 0.00013095  0.00000285  0.0000376 0.0000
  8  -3280.9545169927  -0.000000026497 0.00007793  0.00000158  0.0000205 0.0000
  9  -3280.9545169999  -0.000000007263 0.00004398  0.00000092  0.0000088 0.0000
                 **** Energy Check signals convergence ****

               *****************************************************
               *                     SUCCESS                       *
               *           SCF CONVERGED AFTER  10 CYCLES          *
               *****************************************************


Setting up the DFT-NL grid :

General Integration Accuracy     IntAcc      ...  4.340
Radial Grid Type                 RadialGrid  ... Gauss-Chebyshev
Angular Grid (max. acc.)         AngularGrid ... Lebedev-110
Angular grid pruning method      GridPruning ... 3 (G Style)
Weight generation scheme         WeightScheme... Becke
Basis function cutoff            BFCut       ...    1.0000e-11
Integration weight cutoff        WCut        ...    1.0000e-14
Grids for H and He will be reduced by one unit

# of grid points (after initial pruning)     ...   5824 (   0.0 sec)
# of grid points (after weights+screening)   ...   5798 (   0.0 sec)
nearest neighbour list constructed           ...    0.0 sec
Grid point re-assignment to atoms done       ...    0.0 sec
Grid point division into batches done        ...    0.0 sec
Reduced shell lists constructed in    0.0 sec

Total number of grid points                  ...     5798
Total number of batches                      ...       92
Average number of points per batch           ...       63
Average number of grid points per atom       ...     2899
Average number of shells per batch           ...    11.20 (29.47%)
Average number of basis functions per batch  ...    33.60 (25.07%)
Average number of large shells per batch     ...    10.00 (89.29%)
Average number of large basis fcns per batch ...    29.20 (86.90%)
Maximum spatial batch extension              ...  17.23, 26.34, 14.81 au
Average spatial batch extension              ...   0.69,  0.95,  0.64 au

Final grid set up in    0.0 sec

-------------------------------------------------------------------------------
                         DFT-NL dispersion correction                          
-------------------------------------------------------------------------------

SC Energy -3280.954517002 
NL    Energy 0.245075932 
SC+NL Energy -3280.709441070 
NL done in    0.0 sec
-------------------------------------------------------------------------------
Total Energy       :        -3280.70944107 Eh          -89272.64242 eV
  Last Energy change         ...   -1.8690e-09  Tolerance :   1.0000e-08
  Last MAX-Density change    ...    1.3231e-05  Tolerance :   1.0000e-07
             **** THE GBW FILE WAS UPDATED (Cu02N0.gbw) ****
             **** DENSITY FILE WAS UPDATED (Cu02N0.scfp) ****
             **** ENERGY FILE WAS UPDATED (Cu02N0.en.tmp) ****
             **** THE GBW FILE WAS UPDATED (Cu02N0.gbw) ****
             **** DENSITY FILE WAS UPDATED (Cu02N0.scfp) ****
Total SCF time: 0 days 0 hours 0 min 4 sec 

-------------------------   --------------------
FINAL SINGLE POINT ENERGY     -3280.709441069630
-------------------------   --------------------


----------------------------------------------------------------------------
                           ORCA NUMERICAL GRADIENT
                              (24-process run)
----------------------------------------------------------------------------

I state                        ... 1
J state                        ... 0
Number of atoms                ... 2
Derivative's order of accuracy ... 2
Central differences            ... used
Number of displacements        ... 12
Numerical increment            ... 5.000e-03 bohr
Translation invariance         ... used

The output will be reduced. Please look at the following files:
SCF program output             ... >Cu02N0.lastscf
Integral program output        ... >Cu02N0.lastint
Gradient program output        ... >Cu02N0.lastgrad


     Note:   There are more processes than displacements to do
     ===>:   Reducing number of processes to   3

             <<<Displacing   2/coordinate 3 (+)>>>
             <<<Displacing   2/coordinate 1 (+)>>>
             <<<Displacing   2/coordinate 2 (+)>>>
             <<<Displacing   2/coordinate 1 (-)>>>
             <<<Displacing   2/coordinate 3 (-)>>>
             <<<Displacing   2/coordinate 2 (-)>>>

------------------------------
CARTESIAN GRADIENT (NUMERICAL)
-------------------------------
   1   Cu  :   -0.000000055    0.000000036   -0.001054764
   2   Cu  :    0.000000055   -0.000000036    0.001054764

Norm of the cartesian gradient     ...    0.001491662
RMS gradient                       ...    0.000608969
MAX gradient                       ...    0.001054764

-------
TIMINGS
-------

Total numerical gradient time      ...       71.563 sec

------------------------------------------------------------------------------
                         ORCA GEOMETRY RELAXATION STEP
------------------------------------------------------------------------------

Reading the OPT-File                    .... done
Getting information on internals        .... done
Copying old internal coords+grads       .... done
Making the new internal coordinates     .... (new redundants).... done
Validating the new internal coordinates .... (new redundants).... done
Calculating the B-matrix                .... done
Calculating the G,G- and P matrices     .... done
Transforming gradient to internals      .... done
Projecting the internal gradient        .... done
Number of atoms                         ....   2
Number of internal coordinates          ....   1
Current Energy                          .... -3280.709441070 Eh
Current gradient norm                   ....     0.001491662 Eh/bohr
Maximum allowed component of the step   ....  0.300
Current trust radius                    ....  0.300
Updating the Hessian (BFGS)             .... done
Forming the augmented Hessian           .... done
Diagonalizing the augmented Hessian     .... done
Last element of RFO vector              ....  0.999927152
Lowest eigenvalues of augmented Hessian:
 -0.000012732
Length of the computed step             ....  0.012071137
The final length of the internal step   ....  0.012071137
Converting the step to cartesian space:
 Initial RMS(Int)=    0.0120711374
Transforming coordinates:
 Iter   0:  RMS(Cart)=    0.0034846372 RMS(Int)=    0.0120711374
 Iter   1:  RMS(Cart)=    0.0000000000 RMS(Int)=    0.0000000000
done
Storing new coordinates                 .... done

                                .--------------------.
          ----------------------|Geometry convergence|-------------------------
          Item                value                   Tolerance       Converged
          ---------------------------------------------------------------------
          Energy change      -0.0005673729            0.0000050000      NO
          RMS gradient        0.0010547645            0.0001000000      NO
          MAX gradient        0.0010547645            0.0003000000      NO
          RMS step            0.0120711374            0.0020000000      NO
          MAX step            0.0120711374            0.0040000000      NO
          ........................................................
          Max(Bonds)      0.0064      Max(Angles)    0.00
          Max(Dihed)        0.00      Max(Improp)    0.00
          ---------------------------------------------------------------------

The optimization has not yet converged - more geometry cycles are needed


    ---------------------------------------------------------------------------
                         Redundant Internal Coordinates
                            (Angstroem and degrees)

        Definition                    Value    dE/dq     Step     New-Value
    ----------------------------------------------------------------------------
     1. B(Cu  1,Cu  0)                2.2718 -0.001055  0.0064    2.2782   
    ----------------------------------------------------------------------------

         *************************************************************
         *                GEOMETRY OPTIMIZATION CYCLE   4            *
         *************************************************************


           ************************************************************
           *        Program running with 24 parallel MPI-processes    *
           *              working on a common directory               *
           ************************************************************


           ************************************************************
           *        Program running with 24 parallel MPI-processes    *
           *              working on a common directory               *
           ************************************************************

Diagonalization of the overlap matrix:
Smallest eigenvalue                        ... 8.550e-04
Time for diagonalization                   ...    0.006 sec
Threshold for overlap eigenvalues          ... 1.000e-08
Number of eigenvalues below threshold      ... 0
Time for construction of square roots      ...    0.002 sec
Total time needed                          ...    0.008 sec

-------------------
DFT GRID GENERATION
-------------------

General Integration Accuracy     IntAcc      ...  4.670
Radial Grid Type                 RadialGrid  ... Gauss-Chebyshev
Angular Grid (max. acc.)         AngularGrid ... Lebedev-302
Angular grid pruning method      GridPruning ... 3 (G Style)
Weight generation scheme         WeightScheme... Becke
Basis function cutoff            BFCut       ...    1.0000e-11
Integration weight cutoff        WCut        ...    1.0000e-14
Grids for H and He will be reduced by one unit

# of grid points (after initial pruning)     ...  19112 (   0.0 sec)
# of grid points (after weights+screening)   ...  19084 (   0.0 sec)
nearest neighbour list constructed           ...    0.0 sec
Grid point re-assignment to atoms done       ...    0.0 sec
Grid point division into batches done        ...    0.2 sec
Reduced shell lists constructed in    0.2 sec

Total number of grid points                  ...    19084
Total number of batches                      ...      300
Average number of points per batch           ...       63
Average number of grid points per atom       ...     9542
Average number of shells per batch           ...     8.64 (22.74%)
Average number of basis functions per batch  ...    22.79 (17.00%)
Average number of large shells per batch     ...     5.86 (67.77%)
Average number of large basis fcns per batch ...    17.00 (74.61%)
Maximum spatial batch extension              ...  22.17, 22.17, 16.48 au
Average spatial batch extension              ...   0.75,  0.76,  0.60 au

Time for grid setup =    0.194 sec

--------------
SCF ITERATIONS
--------------
ITER       Energy         Delta-E        Max-DP      RMS-DP      [F,P]     Damp
               ***  Starting incremental Fock matrix formation  ***
  0  -3280.9545401973   0.000000000000 0.00010997  0.00000350  0.0019931 0.7000
  1  -3280.9545405286  -0.000000331264 0.00011976  0.00000311  0.0013961 0.7000
                               ***Turning on DIIS***
  2  -3280.9545407575  -0.000000228929 0.00040431  0.00000883  0.0009776 0.0000
  3  -3280.9545413204  -0.000000562936 0.00011709  0.00000206  0.0000557 0.0000
  4  -3280.9545413411  -0.000000020649 0.00005076  0.00000096  0.0000291 0.0000
  5  -3280.9545413448  -0.000000003716 0.00001946  0.00000052  0.0000281 0.0000
  6  -3280.9545413469  -0.000000002075 0.00003824  0.00000073  0.0000170 0.0000
  7  -3280.9545413486  -0.000000001703 0.00001613  0.00000035  0.0000047 0.0000
  8  -3280.9545413489  -0.000000000344 0.00000976  0.00000020  0.0000024 0.0000
                            ***DIIS convergence achieved***

               *****************************************************
               *                     SUCCESS                       *
               *           SCF CONVERGED AFTER   9 CYCLES          *
               *****************************************************


Setting up the DFT-NL grid :

General Integration Accuracy     IntAcc      ...  4.340
Radial Grid Type                 RadialGrid  ... Gauss-Chebyshev
Angular Grid (max. acc.)         AngularGrid ... Lebedev-110
Angular grid pruning method      GridPruning ... 3 (G Style)
Weight generation scheme         WeightScheme... Becke
Basis function cutoff            BFCut       ...    1.0000e-11
Integration weight cutoff        WCut        ...    1.0000e-14
Grids for H and He will be reduced by one unit

# of grid points (after initial pruning)     ...   5824 (   0.0 sec)
# of grid points (after weights+screening)   ...   5798 (   0.0 sec)
nearest neighbour list constructed           ...    0.0 sec
Grid point re-assignment to atoms done       ...    0.0 sec
Grid point division into batches done        ...    0.0 sec
Reduced shell lists constructed in    0.0 sec

Total number of grid points                  ...     5798
Total number of batches                      ...       92
Average number of points per batch           ...       63
Average number of grid points per atom       ...     2899
Average number of shells per batch           ...    11.20 (29.47%)
Average number of basis functions per batch  ...    33.60 (25.07%)
Average number of large shells per batch     ...    10.00 (89.29%)
Average number of large basis fcns per batch ...    29.20 (86.90%)
Maximum spatial batch extension              ...  17.23, 26.34, 14.81 au
Average spatial batch extension              ...   0.69,  0.95,  0.64 au

Final grid set up in    0.0 sec

-------------------------------------------------------------------------------
                         DFT-NL dispersion correction                          
-------------------------------------------------------------------------------

SC Energy -3280.954541349 
NL    Energy 0.245093295 
SC+NL Energy -3280.709448054 
NL done in    0.0 sec
-------------------------------------------------------------------------------
Total Energy       :        -3280.70944805 Eh          -89272.64262 eV
  Last Energy change         ...   -4.9249e-10  Tolerance :   1.0000e-08
  Last MAX-Density change    ...    4.8852e-06  Tolerance :   1.0000e-07
             **** THE GBW FILE WAS UPDATED (Cu02N0.gbw) ****
             **** DENSITY FILE WAS UPDATED (Cu02N0.scfp) ****
             **** ENERGY FILE WAS UPDATED (Cu02N0.en.tmp) ****
             **** THE GBW FILE WAS UPDATED (Cu02N0.gbw) ****
             **** DENSITY FILE WAS UPDATED (Cu02N0.scfp) ****
Total SCF time: 0 days 0 hours 0 min 4 sec 

-------------------------   --------------------
FINAL SINGLE POINT ENERGY     -3280.709448054195
-------------------------   --------------------


----------------------------------------------------------------------------
                           ORCA NUMERICAL GRADIENT
                              (24-process run)
----------------------------------------------------------------------------

I state                        ... 1
J state                        ... 0
Number of atoms                ... 2
Derivative's order of accuracy ... 2
Central differences            ... used
Number of displacements        ... 12
Numerical increment            ... 5.000e-03 bohr
Translation invariance         ... used

The output will be reduced. Please look at the following files:
SCF program output             ... >Cu02N0.lastscf
Integral program output        ... >Cu02N0.lastint
Gradient program output        ... >Cu02N0.lastgrad


     Note:   There are more processes than displacements to do
     ===>:   Reducing number of processes to   3

             <<<Displacing   2/coordinate 2 (+)>>>
             <<<Displacing   2/coordinate 1 (+)>>>
             <<<Displacing   2/coordinate 3 (+)>>>
             <<<Displacing   2/coordinate 1 (-)>>>
             <<<Displacing   2/coordinate 2 (-)>>>
             <<<Displacing   2/coordinate 3 (-)>>>

------------------------------
CARTESIAN GRADIENT (NUMERICAL)
-------------------------------
   1   Cu  :   -0.000000039    0.000000008   -0.000107241
   2   Cu  :    0.000000039   -0.000000008    0.000107241

Norm of the cartesian gradient     ...    0.000151661
RMS gradient                       ...    0.000061915
MAX gradient                       ...    0.000107241

-------
TIMINGS
-------

Total numerical gradient time      ...       71.622 sec

------------------------------------------------------------------------------
                         ORCA GEOMETRY RELAXATION STEP
------------------------------------------------------------------------------

Reading the OPT-File                    .... done
Getting information on internals        .... done
Copying old internal coords+grads       .... done
Making the new internal coordinates     .... (new redundants).... done
Validating the new internal coordinates .... (new redundants).... done
Calculating the B-matrix                .... done
Calculating the G,G- and P matrices     .... done
Transforming gradient to internals      .... done
Projecting the internal gradient        .... done
Number of atoms                         ....   2
Number of internal coordinates          ....   1
Current Energy                          .... -3280.709448054 Eh
Current gradient norm                   ....     0.000151661 Eh/bohr
Maximum allowed component of the step   ....  0.300
Current trust radius                    ....  0.300
Updating the Hessian (BFGS)             .... done
Forming the augmented Hessian           .... done
Diagonalizing the augmented Hessian     .... done
Last element of RFO vector              ....  0.999999067
Lowest eigenvalues of augmented Hessian:
 -0.000000147
Length of the computed step             ....  0.001366207
The final length of the internal step   ....  0.001366207
Converting the step to cartesian space:
 Initial RMS(Int)=    0.0013662070
Transforming coordinates:
 Iter   0:  RMS(Cart)=    0.0003943900 RMS(Int)=    0.0013662070
 Iter   1:  RMS(Cart)=    0.0000000000 RMS(Int)=    0.0000000000
done
Storing new coordinates                 .... done

                                .--------------------.
          ----------------------|Geometry convergence|-------------------------
          Item                value                   Tolerance       Converged
          ---------------------------------------------------------------------
          Energy change      -0.0000069846            0.0000050000      NO
          RMS gradient        0.0001072406            0.0001000000      NO
          MAX gradient        0.0001072406            0.0003000000      YES
          RMS step            0.0013662070            0.0020000000      YES
          MAX step            0.0013662070            0.0040000000      YES
          ........................................................
          Max(Bonds)      0.0007      Max(Angles)    0.00
          Max(Dihed)        0.00      Max(Improp)    0.00
          ---------------------------------------------------------------------

The optimization has not yet converged - more geometry cycles are needed


    ---------------------------------------------------------------------------
                         Redundant Internal Coordinates
                            (Angstroem and degrees)

        Definition                    Value    dE/dq     Step     New-Value
    ----------------------------------------------------------------------------
     1. B(Cu  1,Cu  0)                2.2782 -0.000107  0.0007    2.2789   
    ----------------------------------------------------------------------------

         *************************************************************
         *                GEOMETRY OPTIMIZATION CYCLE   5            *
         *************************************************************


           ************************************************************
           *        Program running with 24 parallel MPI-processes    *
           *              working on a common directory               *
           ************************************************************


           ************************************************************
           *        Program running with 24 parallel MPI-processes    *
           *              working on a common directory               *
           ************************************************************

Diagonalization of the overlap matrix:
Smallest eigenvalue                        ... 8.560e-04
Time for diagonalization                   ...    0.004 sec
Threshold for overlap eigenvalues          ... 1.000e-08
Number of eigenvalues below threshold      ... 0
Time for construction of square roots      ...    0.002 sec
Total time needed                          ...    0.006 sec

-------------------
DFT GRID GENERATION
-------------------

General Integration Accuracy     IntAcc      ...  4.670
Radial Grid Type                 RadialGrid  ... Gauss-Chebyshev
Angular Grid (max. acc.)         AngularGrid ... Lebedev-302
Angular grid pruning method      GridPruning ... 3 (G Style)
Weight generation scheme         WeightScheme... Becke
Basis function cutoff            BFCut       ...    1.0000e-11
Integration weight cutoff        WCut        ...    1.0000e-14
Grids for H and He will be reduced by one unit

# of grid points (after initial pruning)     ...  19112 (   0.0 sec)
# of grid points (after weights+screening)   ...  19084 (   0.0 sec)
nearest neighbour list constructed           ...    0.0 sec
Grid point re-assignment to atoms done       ...    0.0 sec
Grid point division into batches done        ...    0.1 sec
Reduced shell lists constructed in    0.2 sec

Total number of grid points                  ...    19084
Total number of batches                      ...      300
Average number of points per batch           ...       63
[...]
  64   0.0000       1.058456        28.8021 
  65   0.0000       1.058461        28.8022 
  66   0.0000       1.080884        29.4123 
  67   0.0000       1.202644        32.7256 
  68   0.0000       1.202644        32.7256 
  69   0.0000       1.411896        38.4196 
  70   0.0000       3.081776        83.8594 
  71   0.0000       3.115133        84.7671 
  72   0.0000       3.115133        84.7671 
  73   0.0000       3.199126        87.0526 
  74   0.0000       3.201325        87.1125 
  75   0.0000       3.201325        87.1125 
  76   0.0000       3.226431        87.7956 
  77   0.0000       3.522468        95.8512 
  78   0.0000       3.541664        96.3736 
  79   0.0000       3.541664        96.3736 
  80   0.0000       3.564192        96.9866 
  81   0.0000       3.564204        96.9869 
  82   0.0000       3.572486        97.2123 
  83   0.0000       3.573165        97.2308 
  84   0.0000       3.573165        97.2308 
  85   0.0000       3.573506        97.2400 
  86   0.0000       3.573506        97.2400 
  87   0.0000       3.574934        97.2789 
  88   0.0000       3.574948        97.2793 
  89   0.0000       3.588346        97.6439 
  90   0.0000       3.588346        97.6439 
  91   0.0000       3.714119       101.0663 
  92   0.0000       3.796305       103.3027 
  93   0.0000       3.796350       103.3039 
  94   0.0000       3.838803       104.4591 
  95   0.0000       3.838846       104.4603 
  96   0.0000       3.855223       104.9060 
  97   0.0000       3.855223       104.9060 
  98   0.0000       3.932659       107.0131 
  99   0.0000       3.932659       107.0131 
 100   0.0000       4.111134       111.8696 
 101   0.0000       4.215010       114.6963 
 102   0.0000      13.099073       356.4439 
 103   0.0000      13.099073       356.4439 
 104   0.0000      13.099137       356.4456 
 105   0.0000      13.099475       356.4548 
 106   0.0000      13.099475       356.4548 
 107   0.0000      13.099505       356.4557 
 108   0.0000      13.099522       356.4561 
 109   0.0000      13.100135       356.4728 
 110   0.0000      13.100153       356.4733 
 111   0.0000      13.100952       356.4950 
 112   0.0000      13.101301       356.5045 
 113   0.0000      13.101301       356.5045 
 114   0.0000      13.101307       356.5047 
 115   0.0000      13.101307       356.5047 
 116   0.0000      13.102832       356.5462 
 117   0.0000      13.102832       356.5462 
 118   0.0000      13.103000       356.5508 
 119   0.0000      13.103001       356.5508 
 120   0.0000      13.275247       361.2378 
 121   0.0000      13.275266       361.2383 
 122   0.0000      13.275266       361.2383 
 123   0.0000      13.276435       361.2702 
 124   0.0000      13.276618       361.2751 
 125   0.0000      13.278201       361.3182 
 126   0.0000      13.278201       361.3182 
 127   0.0000      13.278294       361.3207 
 128   0.0000      13.278294       361.3207 
 129   0.0000      13.278671       361.3310 
 130   0.0000      13.278854       361.3360 
 131   0.0000      13.296224       361.8087 
 132   0.0000      13.296224       361.8087 
 133   0.0000      13.394492       364.4827 

                    ********************************
                    * MULLIKEN POPULATION ANALYSIS *
                    ********************************

-----------------------
MULLIKEN ATOMIC CHARGES
-----------------------
   0 Cu:   -0.000006
   1 Cu:    0.000006
Sum of atomic charges:   -0.0000000

--------------------------------
MULLIKEN REDUCED ORBITAL CHARGES
--------------------------------
  0 Cus       :     6.974798  s :     6.974798
      pz      :     4.049772  p :    12.061935
      px      :     4.006082
      py      :     4.006082
      dz2     :     1.975363  d :     9.963060
      dxz     :     1.993868
      dyz     :     1.993868
      dx2y2   :     1.999980
      dxy     :     1.999980
      f0      :     0.000072  f :     0.000212
      f+1     :     0.000050
      f-1     :     0.000050
      f+2     :     0.000020
      f-2     :     0.000020
      f+3     :     0.000000
      f-3     :     0.000000
      g0      :     0.000000  g :     0.000001
      g+1     :     0.000000
      g-1     :     0.000000
      g+2     :     0.000000
      g-2     :     0.000000
      g+3     :     0.000000
      g-3     :     0.000000
      g+4     :     0.000000
      g-4     :     0.000000
  1 Cus       :     6.974789  s :     6.974789
      pz      :     4.049770  p :    12.061933
      px      :     4.006082
      py      :     4.006082
      dz2     :     1.975363  d :     9.963060
      dxz     :     1.993868
      dyz     :     1.993868
      dx2y2   :     1.999980
      dxy     :     1.999980
      f0      :     0.000072  f :     0.000212
      f+1     :     0.000050
      f-1     :     0.000050
      f+2     :     0.000020
      f-2     :     0.000020
      f+3     :     0.000000
      f-3     :     0.000000
      g0      :     0.000000  g :     0.000001
      g+1     :     0.000000
      g-1     :     0.000000
      g+2     :     0.000000
      g-2     :     0.000000
      g+3     :     0.000000
      g-3     :     0.000000
      g+4     :     0.000000
      g-4     :     0.000000


                     *******************************
                     * LOEWDIN POPULATION ANALYSIS *
                     *******************************

----------------------
LOEWDIN ATOMIC CHARGES
----------------------
   0 Cu:   -0.000000
   1 Cu:    0.000000

-------------------------------
LOEWDIN REDUCED ORBITAL CHARGES
-------------------------------
  0 Cus       :     6.840167  s :     6.840167
      pz      :     4.139660  p :    12.156682
      px      :     4.008511
      py      :     4.008511
      dz2     :     2.020002  d :    10.002728
      dxz     :     1.991386
      dyz     :     1.991386
      dx2y2   :     1.999978
      dxy     :     1.999978
      f0      :     0.000171  f :     0.000421
      f+1     :     0.000103
      f-1     :     0.000103
      f+2     :     0.000022
      f-2     :     0.000022
      f+3     :     0.000000
      f-3     :     0.000000
      g0      :     0.000000  g :     0.000001
      g+1     :     0.000000
      g-1     :     0.000000
      g+2     :     0.000000
      g-2     :     0.000000
      g+3     :     0.000000
      g-3     :     0.000000
      g+4     :     0.000000
      g-4     :     0.000000
  1 Cus       :     6.840167  s :     6.840167
      pz      :     4.139660  p :    12.156682
      px      :     4.008511
      py      :     4.008511
      dz2     :     2.020002  d :    10.002728
      dxz     :     1.991386
      dyz     :     1.991386
      dx2y2   :     1.999978
      dxy     :     1.999978
      f0      :     0.000171  f :     0.000421
      f+1     :     0.000103
      f-1     :     0.000103
      f+2     :     0.000022
      f-2     :     0.000022
      f+3     :     0.000000
      f-3     :     0.000000
      g0      :     0.000000  g :     0.000001
      g+1     :     0.000000
      g-1     :     0.000000
      g+2     :     0.000000
      g-2     :     0.000000
      g+3     :     0.000000
      g-3     :     0.000000
      g+4     :     0.000000
      g-4     :     0.000000


                      *****************************
                      * MAYER POPULATION ANALYSIS *
                      *****************************

  NA   - Mulliken gross atomic population
  ZA   - Total nuclear charge
  QA   - Mulliken gross atomic charge
  VA   - Mayer's total valence
  BVA  - Mayer's bonded valence
  FA   - Mayer's free valence

  ATOM       NA         ZA         QA         VA         BVA        FA
  0 Cu    29.0000    29.0000    -0.0000     1.0481     1.0481     0.0000
  1 Cu    29.0000    29.0000     0.0000     1.0481     1.0481     0.0000

  Mayer bond orders larger than 0.100000
B(  0-Cu,  1-Cu) :   1.0481 

-------
TIMINGS
-------

Total SCF time: 0 days 0 hours 0 min 1 sec 

Total time                  ....       1.214 sec
Sum of individual times     ....       0.947 sec  ( 78.0%)

Fock matrix formation       ....       0.732 sec  ( 60.3%)
  XC integration            ....       0.031 sec  (  4.3% of F)
    Basis function eval.    ....       0.005 sec  ( 14.8% of XC)
    Density eval.           ....       0.003 sec  (  9.6% of XC)
    XC-Functional eval.     ....       0.002 sec  (  7.7% of XC)
    XC-Potential eval.      ....       0.003 sec  ( 10.9% of XC)
Diagonalization             ....       0.005 sec  (  0.4%)
Density matrix formation    ....       0.001 sec  (  0.1%)
Population analysis         ....       0.003 sec  (  0.2%)
Initial guess               ....       0.009 sec  (  0.7%)
Orbital Transformation      ....       0.000 sec  (  0.0%)
Orbital Orthonormalization  ....       0.005 sec  (  0.4%)
DIIS solution               ....       0.001 sec  (  0.1%)
Grid generation             ....       0.197 sec  ( 16.3%)

-------------------------   --------------------
FINAL SINGLE POINT ENERGY     -3280.709448127277
-------------------------   --------------------

                                *** OPTIMIZATION RUN DONE ***

                            ***************************************
                            *     ORCA property calculations      *
                            ***************************************

                                    ---------------------
                                    Active property flags
                                    ---------------------
   (+) Dipole Moment


------------------------------------------------------------------------------
                       ORCA ELECTRIC PROPERTIES CALCULATION
------------------------------------------------------------------------------

Dipole Moment Calculation                       ... on
Quadrupole Moment Calculation                   ... off
Polarizability Calculation                      ... off
GBWName                                         ... Cu02N0.gbw
Electron density file                           ... Cu02N0.scfp
The origin for moment calculation is the CENTER OF MASS  = ( 0.000000,  0.000000  0.000000)

-------------
DIPOLE MOMENT
-------------
                                X             Y             Z
Electronic contribution:      0.00000       0.00000      -0.00000
Nuclear contribution   :      0.00000       0.00000       0.00000
                        -----------------------------------------
Total Dipole Moment    :      0.00000       0.00000      -0.00000
                        -----------------------------------------
Magnitude (a.u.)       :      0.00000
Magnitude (Debye)      :      0.00000



--------------------
Rotational spectrum 
--------------------
 
Rotational constants in cm-1:     0.000000     0.102151     0.102151 
Rotational constants in MHz :     0.000000  3062.419409  3062.419409 

 Dipole components along the rotational axes: 
x,y,z [a.u.] :    -0.000000     0.000000     0.000000 
x,y,z [Debye]:    -0.000000     0.000000     0.000000 

 

----------------------------------------------------------------------------
                           ORCA NUMERICAL FREQUENCIES
                              (24-process run)
----------------------------------------------------------------------------

Number of atoms                ... 2
Central differences            ... used
Number of displacements        ... 12
Numerical increment            ... 5.000e-03 bohr
IR-spectrum generation         ... on
Raman-spectrum generation      ... off
Surface Crossing Hessian       ... off

 WARNING: There are more processes than displacements to do
  ====> : Reducing number of processes to   6

The output will be reduced. Please look at the following files:
SCF program output             ... >Cu02N0.lastscf
Integral program output        ... >Cu02N0.lastint
Gradient program output        ... >Cu02N0.lastgrad
Dipole moment program output   ... >Cu02N0.lastmom
AutoCI program output          ... >Cu02N0.lastautoci


         <<< Energy and Gradient at the input geometry >>>

        <<< Energy and Gradient at displaced geometries >>>
             <<<Displacing   1/coordinate 2 (+)>>>
             <<<Displacing   1/coordinate 3 (+)>>>
             <<<Displacing   1/coordinate 1 (+)>>>
             <<<Displacing   2/coordinate 2 (+)>>>
             <<<Displacing   2/coordinate 3 (+)>>>
             <<<Displacing   2/coordinate 1 (+)>>>
             <<<Displacing   2/coordinate 2 (-)>>>
             <<<Displacing   2/coordinate 1 (-)>>>
             <<<Displacing   1/coordinate 2 (-)>>>
             <<<Displacing   1/coordinate 1 (-)>>>
             <<<Displacing   2/coordinate 3 (-)>>>
             <<<Displacing   1/coordinate 3 (-)>>>
Warning: T+R mode no 5 is zero 

-----------------------
VIBRATIONAL FREQUENCIES
-----------------------

Scaling factor for frequencies =  1.000000000 (already applied!)

   0:         0.00 cm**-1
   1:         0.00 cm**-1
   2:         0.00 cm**-1
   3:         0.00 cm**-1
   4:         0.00 cm**-1
   5:       253.73 cm**-1


------------
NORMAL MODES
------------

These modes are the cartesian displacements weighted by the diagonal matrix
M(i,i)=1/sqrt(m[i]) where m[i] is the mass of the displaced atom
Thus, these vectors are normalized but *not* orthogonal

                  0          1          2          3          4          5    
      0       0.000000   0.000000   0.000000   0.000000   0.000000   0.000000
      1       0.000000   0.000000   0.000000   0.000000   0.000000   0.000000
      2       0.000000   0.000000   0.000000   0.000000   0.000000   0.707107
      3       0.000000   0.000000   0.000000   0.000000   0.000000   0.000000
      4       0.000000   0.000000   0.000000   0.000000   0.000000   0.000000
      5       0.000000   0.000000   0.000000   0.000000   0.000000  -0.707107


-----------
IR SPECTRUM  
-----------

 Mode    freq (cm**-1)   T**2         TX         TY         TZ
-------------------------------------------------------------------
   5:       253.73    0.000000  ( -0.000002   0.000002   0.000044)

The first frequency considered to be a vibration is 5
The total number of vibrations considered is 1


--------------------------
THERMOCHEMISTRY AT 298.15K
--------------------------

Temperature         ... 298.15 K
Pressure            ... 1.00 atm
Total Mass          ... 127.10 AMU
The molecule is recognized as being linear

Throughout the following assumptions are being made:
  (1) The electronic state is orbitally nondegenerate
  (2) There are no thermally accessible electronically excited states
  (3) Hindered rotations indicated by low frequency modes are not
      treated as such but are treated as vibrations and this may
      cause some error
  (4) All equations used are the standard statistical mechanics
      equations for an ideal gas
  (5) All vibrations are strictly harmonic

freq.     253.73  E(vib)   ...       0.30 

------------
INNER ENERGY
------------

The inner energy is: U= E(el) + E(ZPE) + E(vib) + E(rot) + E(trans)
    E(el)   - is the total energy from the electronic structure calculation
              = E(kin-el) + E(nuc-el) + E(el-el) + E(nuc-nuc)
    E(ZPE)  - the the zero temperature vibrational energy from the frequency calculation
    E(vib)  - the the finite temperature correction to E(ZPE) due to population
              of excited vibrational states
    E(rot)  - is the rotational thermal energy
    E(trans)- is the translational thermal energy

Summary of contributions to the inner energy U:
Electronic energy                ...  -3280.70944813 Eh
Zero point energy                ...      0.00057804 Eh       0.36 kcal/mol
Thermal vibrational correction   ...      0.00048128 Eh       0.30 kcal/mol
Thermal rotational correction    ...      0.00094418 Eh       0.59 kcal/mol
Thermal translational correction ...      0.00141627 Eh       0.89 kcal/mol
-----------------------------------------------------------------------
Total thermal energy                  -3280.70602835 Eh


Summary of corrections to the electronic energy:
(perhaps to be used in another calculation)
Total thermal correction                  0.00284173 Eh       1.78 kcal/mol
Non-thermal (ZPE) correction              0.00057804 Eh       0.36 kcal/mol
-----------------------------------------------------------------------
Total correction                          0.00341977 Eh       2.15 kcal/mol


--------
ENTHALPY
--------

The enthalpy is H = U + kB*T
                kB is Boltzmann's constant
Total free energy                 ...  -3280.70602835 Eh 
Thermal Enthalpy correction       ...      0.00094421 Eh       0.59 kcal/mol
-----------------------------------------------------------------------
Total Enthalpy                    ...  -3280.70508415 Eh


Note: Rotational entropy computed according to Herzberg 
Infrared and Raman Spectra, Chapter V,1, Van Nostrand Reinhold, 1945 
Point Group:  Dinfh, Symmetry Number:   2  
Rotational constants in cm-1:     0.000000     0.102151     0.102151 

Vibrational entropy computed according to the QRRHO of S. Grimme
Chem.Eur.J. 2012 18 9955


-------
ENTROPY
-------

The entropy contributions are T*S = T*(S(el)+S(vib)+S(rot)+S(trans))
     S(el)   - electronic entropy
     S(vib)  - vibrational entropy
     S(rot)  - rotational entropy
     S(trans)- translational entropy
The entropies will be listed as mutliplied by the temperature to get
units of energy

Electronic entropy                ...      0.00000000 Eh      0.00 kcal/mol
Vibrational entropy               ...      0.00081241 Eh      0.51 kcal/mol
Rotational entropy                ...      0.00747977 Eh      4.69 kcal/mol
Translational entropy             ...      0.01921087 Eh     12.05 kcal/mol
-----------------------------------------------------------------------
Final entropy term                ...      0.02750305 Eh     17.26 kcal/mol

In case the symmetry of your molecule has not been determined correctly
or in case you have a reason to use a different symmetry number we print 
out the resulting rotational entropy values for sn=1,12 :
 --------------------------------------------------------
|  sn= 1 | S(rot)=             -inf Eh      -inf kcal/mol|
|  sn= 2 | S(rot)=             -inf Eh      -inf kcal/mol|
|  sn= 3 | S(rot)=             -inf Eh      -inf kcal/mol|
|  sn= 4 | S(rot)=             -inf Eh      -inf kcal/mol|
|  sn= 5 | S(rot)=             -inf Eh      -inf kcal/mol|
|  sn= 6 | S(rot)=             -inf Eh      -inf kcal/mol|
|  sn= 7 | S(rot)=             -inf Eh      -inf kcal/mol|
|  sn= 8 | S(rot)=             -inf Eh      -inf kcal/mol|
|  sn= 9 | S(rot)=             -inf Eh      -inf kcal/mol|
|  sn=10 | S(rot)=             -inf Eh      -inf kcal/mol|
|  sn=11 | S(rot)=             -inf Eh      -inf kcal/mol|
|  sn=12 | S(rot)=             -inf Eh      -inf kcal/mol|
 --------------------------------------------------------


-------------------
GIBBS FREE ENERGY
-------------------

The Gibbs free energy is G = H - T*S

Total enthalpy                    ...  -3280.70508415 Eh 
Total entropy correction          ...     -0.02750305 Eh    -17.26 kcal/mol
-----------------------------------------------------------------------
Final Gibbs free energy         ...  -3280.73258719 Eh

For completeness - the Gibbs free energy minus the electronic energy
G-E(el)                           ...     -0.02313906 Eh    -14.52 kcal/mol


Total Time for Numerical Frequencies  :       579.876 sec

Timings for individual modules:

Sum of individual times         ...      467.406 sec (=   7.790 min)
GTO integral calculation        ...        5.291 sec (=   0.088 min)   1.1 %
SCF iterations                  ...       30.087 sec (=   0.501 min)   6.4 %
SCF Gradient evaluation         ...      431.830 sec (=   7.197 min)  92.4 %
Geometry relaxation             ...        0.197 sec (=   0.003 min)   0.0 %
                             ****ORCA TERMINATED NORMALLY****
TOTAL RUN TIME: 0 days 0 hours 16 minutes 14 seconds 785 msec
