
                                 *****************
                                 * O   R   C   A *
                                 *****************

           --- An Ab Initio, DFT and Semiempirical electronic structure package ---

                  #######################################################
                  #                        -***-                        #
                  #          Department of theory and spectroscopy      #
                  #               Directorship: Frank Neese             #
                  #        Max Planck Institute fuer Kohlenforschung    #
                  #                Kaiser Wilhelm Platz 1               #
                  #                 D-45470 Muelheim/Ruhr               #
                  #                      Germany                        #
                  #                                                     #
                  #                  All rights reserved                #
                  #                        -***-                        #
                  #######################################################


                         Program Version 4.2.0 -  RELEASE  -


 With contributions from (in alphabetic order):
   Daniel Aravena         : Magnetic Suceptibility
   Michael Atanasov       : Ab Initio Ligand Field Theory (pilot matlab implementation)
   Alexander A. Auer      : GIAO ZORA, VPT2
   Ute Becker             : Parallelization
   Giovanni Bistoni       : ED, misc. LED, open-shell LED, HFLED
   Martin Brehm           : Molecular dynamics
   Dmytro Bykov           : SCF Hessian
   Vijay G. Chilkuri      : MRCI spin determinant printing, contributions to CSF-ICE
   Dipayan Datta          : RHF DLPNO-CCSD density
   Achintya Kumar Dutta   : EOM-CC, STEOM-CC
   Dmitry Ganyushin       : Spin-Orbit,Spin-Spin,Magnetic field MRCI
   Miquel Garcia          : C-PCM Hessian, Gaussian charge scheme
   Yang Guo               : DLPNO-NEVPT2, CIM, IAO-localization
   Andreas Hansen         : Spin unrestricted coupled pair/coupled cluster methods
   Benjamin Helmich-Paris : CASSCF linear response (MC-RPA)
   Lee Huntington         : MR-EOM, pCC
   Robert Izsak           : Overlap fitted RIJCOSX, COSX-SCS-MP3, EOM
   Christian Kollmar      : KDIIS, OOCD, Brueckner-CCSD(T), CCSD density
   Simone Kossmann        : Meta GGA functionals, TD-DFT gradient, OOMP2, MP2 Hessian
   Martin Krupicka        : AUTO-CI
   Lucas Lang             : DCDCAS
   Dagmar Lenk            : GEPOL surface, SMD
   Dimitrios Liakos       : Extrapolation schemes; Compound Job, initial MDCI parallelization
   Dimitrios Manganas     : Further ROCIS development; embedding schemes
   Dimitrios Pantazis     : SARC Basis sets
   Taras Petrenko         : DFT Hessian,TD-DFT gradient, ASA, ECA, R-Raman, ABS, FL, XAS/XES, NRVS
   Peter Pinski           : DLPNO-MP2, DLPNO-MP2 Gradient
   Christoph Reimann      : Effective Core Potentials
   Marius Retegan         : Local ZFS, SOC
   Christoph Riplinger    : Optimizer, TS searches, QM/MM, DLPNO-CCSD(T), (RO)-DLPNO pert. Triples
   Tobias Risthaus        : Range-separated hybrids, TD-DFT gradient, RPA, STAB
   Michael Roemelt        : Original ROCIS implementation
   Masaaki Saitow         : Open-shell DLPNO-CCSD energy and density
   Barbara Sandhoefer     : DKH picture change effects
   Avijit Sen             : IP-ROCIS
   Kantharuban Sivalingam : CASSCF convergence, NEVPT2, FIC-MRCI
   Bernardo de Souza      : ESD, SOC TD-DFT
   Georgi Stoychev        : AutoAux, RI-MP2 NMR
   Willem Van den Heuvel  : Paramagnetic NMR
   Boris Wezisla          : Elementary symmetry handling
   Frank Wennmohs         : Technical directorship


 We gratefully acknowledge several colleagues who have allowed us to
 interface, adapt or use parts of their codes:
   Stefan Grimme, W. Hujo, H. Kruse,             : VdW corrections, initial TS optimization,
                  C. Bannwarth                     DFT functionals, gCP, sTDA/sTD-DF
   Ed Valeev, F. Pavosevic, A. Kumar             : LibInt (2-el integral package), F12 methods
   Garnet Chan, S. Sharma, J. Yang, R. Olivares  : DMRG
   Ulf Ekstrom                                   : XCFun DFT Library
   Mihaly Kallay                                 : mrcc  (arbitrary order and MRCC methods)
   Andreas Klamt, Michael Diedenhofen            : otool_cosmo (COSMO solvation model)
   Jiri Pittner, Ondrej Demel                    : Mk-CCSD
   Frank Weinhold                                : gennbo (NPA and NBO analysis)
   Christopher J. Cramer and Donald G. Truhlar   : smd solvation model
   Lars Goerigk                                  : TD-DFT with DH, B97 family of functionals
   V. Asgeirsson, H. Jonsson                     : NEB implementation
   FAccTs GmbH                                   : IRC, NEB, NEB-TS, Multilevel, MM, QM/MM, CI optimization
   S Lehtola, MJT Oliveira, MAL Marques          : LibXC Library


 Your calculation uses the libint2 library for the computation of 2-el integrals
 For citations please refer to: http://libint.valeyev.net

 Your ORCA version has been built with support for libXC version: 4.2.3
 For citations please refer to: https://tddft.org/programs/libxc/

 This ORCA versions uses:
   CBLAS   interface :  Fast vector & matrix operations
   LAPACKE interface :  Fast linear algebra routines
   SCALAPACK package :  Parallel linear algebra routines


Your calculation utilizes the DFT-NL dispersion correction.
Cite in your paper:
Vydrov, O. A.; Van Voorhis, T. J. Chem. Phys. 2010, 133, 244103
Hujo, W.; Grimme, S. J. Chem. Theory Comput. 2011, 7, 3866 
   

----- Orbital basis set information -----
Your calculation utilizes the basis: def2-TZVPPD
   F. Weigend and R. Ahlrichs, Phys. Chem. Chem. Phys. 7, 3297 (2005).
   D. Rappoport and F. Furche, J. Chem. Phys. 133 134105 (2010).

----- AuxJK basis set information -----
Your calculation utilizes the auxiliary basis: def2/JK
   H-Ba, Hf-Rn: F. Weigend, J. Comput. Chem. 29, 167 (2008).

================================================================================
                                        WARNINGS
                       Please study these warnings very carefully!
================================================================================


WARNING: your system is open-shell and RHF/RKS was chosen
  ===> : WILL SWITCH to UHF/UKS


WARNING: Geometry Optimization
  ===> : Switching off AutoStart
         For restart on a previous wavefunction, please use MOREAD

INFO   : the flag for use of LIBINT has been found!

================================================================================
                                       INPUT FILE
================================================================================
NAME = Cu03N0_D3H.in
|  1> #
|  2> # Cu03N0_D3H wB97X-V/Def2-TZVPPD
|  3> #
|  4> ! wb97x-v def2-tzvppd def2/jk grid4 nofinalgrid opt xyzfile numfreq numgrad
|  5> 
|  6> *xyz 0 2
|  7> Cu       0.000000    1.346828   -0.000000 
|  8> Cu       1.166387   -0.673414   -0.000000 
|  9> Cu      -1.166387   -0.673414   -0.000000 
| 10> *
| 11> 
| 12> %maxcore 5000
| 13> 
| 14> %pal
| 15> nprocs = 24
| 16> end
| 17> 
| 18> 
| 19>                          ****END OF INPUT****
================================================================================

                       *****************************
                       * Geometry Optimization Run *
                       *****************************

Geometry optimization settings:
Update method            Update   .... BFGS
Choice of coordinates    CoordSys .... Z-matrix Internals
Initial Hessian          InHess   .... Almoef's Model

Convergence Tolerances:
Energy Change            TolE     ....  5.0000e-06 Eh
Max. Gradient            TolMAXG  ....  3.0000e-04 Eh/bohr
RMS Gradient             TolRMSG  ....  1.0000e-04 Eh/bohr
Max. Displacement        TolMAXD  ....  4.0000e-03 bohr
RMS Displacement         TolRMSD  ....  2.0000e-03 bohr
Strict Convergence                ....  False
------------------------------------------------------------------------------
                        ORCA OPTIMIZATION COORDINATE SETUP
------------------------------------------------------------------------------

The optimization will be done in new redundant internal coordinates
Making redundant internal coordinates   ...  (new redundants) done
Evaluating the initial hessian          ...  (Almloef) done
Evaluating the coordinates              ...  done
Calculating the B-matrix                .... done
Calculating the G-matrix                .... done
Diagonalizing the G-matrix              .... done
The first mode is                       ....    3
The number of degrees of freedom        ....    3

    -----------------------------------------------------------------
                    Redundant Internal Coordinates


    -----------------------------------------------------------------
         Definition                    Initial Value    Approx d2E/dq
    -----------------------------------------------------------------
      1. B(Cu  1,Cu  0)                  2.3328         2.003788   
      2. B(Cu  2,Cu  1)                  2.3328         2.003791   
      3. B(Cu  2,Cu  0)                  2.3328         2.003788   
      4. A(Cu  1,Cu  0,Cu  2)           60.0000         1.058655   
      5. A(Cu  0,Cu  1,Cu  2)           60.0000         1.058655   
      6. A(Cu  0,Cu  2,Cu  1)           60.0000         1.058655   
    -----------------------------------------------------------------

Number of atoms                         .... 3
Number of degrees of freedom            .... 6

         *************************************************************
         *                GEOMETRY OPTIMIZATION CYCLE   1            *
         *************************************************************
---------------------------------
CARTESIAN COORDINATES (ANGSTROEM)
---------------------------------
  Cu     0.000000    1.346828   -0.000000
  Cu     1.166387   -0.673414   -0.000000
  Cu    -1.166387   -0.673414   -0.000000

----------------------------
CARTESIAN COORDINATES (A.U.)
----------------------------
  NO LB      ZA    FRAG     MASS         X           Y           Z
   0 Cu   29.0000    0    63.550    0.000000    2.545136   -0.000000
   1 Cu   29.0000    0    63.550    2.204152   -1.272568   -0.000000
   2 Cu   29.0000    0    63.550   -2.204152   -1.272568   -0.000000

--------------------------------
INTERNAL COORDINATES (ANGSTROEM)
--------------------------------
 Cu     0   0   0     0.000000000000     0.00000000     0.00000000
 Cu     1   0   0     2.332774393792     0.00000000     0.00000000
 Cu     2   1   0     2.332774000000    60.00000558     0.00000000

---------------------------
INTERNAL COORDINATES (A.U.)
---------------------------
 Cu     0   0   0     0.000000000000     0.00000000     0.00000000
 Cu     1   0   0     4.408304736492     0.00000000     0.00000000
 Cu     2   1   0     4.408303992332    60.00000558     0.00000000

---------------------
BASIS SET INFORMATION
---------------------
There are 1 groups of distinct atoms

 Group   1 Type Cu  : 17s13p7d2f1g contracted to 6s6p4d2f1g pattern {842111/631111/4111/11/1}

Atom   0Cu   basis set group =>   1
Atom   1Cu   basis set group =>   1
Atom   2Cu   basis set group =>   1
----------------------------------
AUXILIARY/JK BASIS SET INFORMATION
----------------------------------
There are 1 groups of distinct atoms

 Group   1 Type Cu  : 19s14p12d10f7g3h1i contracted to 16s13p11d9f5g3h1i pattern {4111111111111111/2111111111111/21111111111/211111111/31111/111/1}

Atom   0Cu   basis set group =>   1
Atom   1Cu   basis set group =>   1
Atom   2Cu   basis set group =>   1


           ************************************************************
           *        Program running with 24 parallel MPI-processes    *
           *              working on a common directory               *
           ************************************************************
------------------------------------------------------------------------------
                           ORCA GTO INTEGRAL CALCULATION
------------------------------------------------------------------------------

                         BASIS SET STATISTICS AND STARTUP INFO

 # of primitive gaussian shells          ...  120
 # of primitive gaussian functions       ...  342
 # of contracted shells                  ...   57
 # of contracted basis functions         ...  201
 Highest angular momentum                ...    4
 Maximum contraction depth               ...    8
 Integral package used                   ... LIBINT
 Integral threshhold            Thresh   ...  2.500e-11
 Primitive cut-off              TCut     ...  2.500e-12


------------------------------ INTEGRAL EVALUATION ----------------------------


 * One electron integrals 
 Pre-screening matrix                    ... done
 Shell pair data                         ... done (   0.000 sec)



           ************************************************************
           *        Program running with 24 parallel MPI-processes    *
           *              working on a common directory               *
           ************************************************************
-------------------------------------------------------------------------------
                                 ORCA SCF
-------------------------------------------------------------------------------

------------
SCF SETTINGS
------------
Hamiltonian:
 Density Functional     Method          .... DFT(GTOs)
 Exchange Functional    Exchange        .... WB97X-V
 Correlation Functional Correlation     .... WB97X-V
 Gradients option       PostSCFGGA      .... off
 Hybrid DFT is turned on
   Fraction HF Exchange ScalHFX         ....  0.167000
   Scaling of DF-GGA-X  ScalDFX         ....  0.000000
   Scaling of DF-GGA-C  ScalDFC         ....  1.000000
   Scaling of DF-LDA-C  ScalLDAC        ....  1.000000
   Perturbative correction              ....  0.000000
   Density functional embedding theory  .... OFF
 Long-range corrected/Screened/Range-Separated Hybrid DFT is turned on
   Amount of maximum screened exact exchange              ....  0.833000
   Range separation parameter mu (erf(mu*r12)/r12)        ....  0.300000
   NL short-range parameter             ....  6.000000
   NL long-range parameter              ....  0.010000


General Settings:
 Integral files         IntName         .... Cu03N0_D3H
 Hartree-Fock type      HFTyp           .... UHF
 Total Charge           Charge          ....    0
 Multiplicity           Mult            ....    2
 Number of Electrons    NEL             ....   87
 Basis Dimension        Dim             ....  201
 Nuclear Repulsion      ENuc            ....    572.3288866767 Eh

Convergence Acceleration:
 DIIS                   CNVDIIS         .... on
   Start iteration      DIISMaxIt       ....    12
   Startup error        DIISStart       ....  0.200000
   # of expansion vecs  DIISMaxEq       ....     5
   Bias factor          DIISBfac        ....   1.050
   Max. coefficient     DIISMaxC        ....  10.000
 Newton-Raphson         CNVNR           .... off
 SOSCF                  CNVSOSCF        .... off
 Level Shifting         CNVShift        .... on
   Level shift para.    LevelShift      ....    0.2500
   Turn off err/grad.   ShiftErr        ....    0.0010
 Zerner damping         CNVZerner       .... off
 Static damping         CNVDamp         .... on
   Fraction old density DampFac         ....    0.7000
   Max. Damping (<1)    DampMax         ....    0.9800
   Min. Damping (>=0)   DampMin         ....    0.0000
   Turn off err/grad.   DampErr         ....    0.1000
 Fernandez-Rico         CNVRico         .... off

SCF Procedure:
 Maximum # iterations   MaxIter         ....   125
 SCF integral mode      SCFMode         .... Direct
   Integral package                     .... LIBINT
 Reset frequency        DirectResetFreq ....    20
 Integral Threshold     Thresh          ....  2.500e-11 Eh
 Primitive CutOff       TCut            ....  2.500e-12 Eh

Convergence Tolerance:
 Convergence Check Mode ConvCheckMode   .... Total+1el-Energy
 Convergence forced     ConvForced      .... 0
 Energy Change          TolE            ....  1.000e-08 Eh
 1-El. energy change                    ....  1.000e-05 Eh
 DIIS Error             TolErr          ....  5.000e-07


Diagonalization of the overlap matrix:
Smallest eigenvalue                        ... 7.631e-04
Time for diagonalization                   ...    0.008 sec
Threshold for overlap eigenvalues          ... 1.000e-08
Number of eigenvalues below threshold      ... 0
Time for construction of square roots      ...    0.005 sec
Total time needed                          ...    0.014 sec

-------------------
DFT GRID GENERATION
-------------------

General Integration Accuracy     IntAcc      ...  4.670
Radial Grid Type                 RadialGrid  ... Gauss-Chebyshev
Angular Grid (max. acc.)         AngularGrid ... Lebedev-302
Angular grid pruning method      GridPruning ... 3 (G Style)
Weight generation scheme         WeightScheme... Becke
Basis function cutoff            BFCut       ...    1.0000e-11
Integration weight cutoff        WCut        ...    1.0000e-14
Grids for H and He will be reduced by one unit

# of grid points (after initial pruning)     ...  28668 (   0.0 sec)
# of grid points (after weights+screening)   ...  28566 (   0.0 sec)
nearest neighbour list constructed           ...    0.0 sec
Grid point re-assignment to atoms done       ...    0.0 sec
Grid point division into batches done        ...    0.2 sec
Reduced shell lists constructed in    0.2 sec

Total number of grid points                  ...    28566
Total number of batches                      ...      448
Average number of points per batch           ...       63
Average number of grid points per atom       ...     9522
Average number of shells per batch           ...    13.75 (24.12%)
Average number of basis functions per batch  ...    38.75 (19.28%)
Average number of large shells per batch     ...    10.10 (73.45%)
Average number of large basis fcns per batch ...    27.90 (72.00%)
Maximum spatial batch extension              ...  20.08, 17.16, 22.17 au
Average spatial batch extension              ...   0.56,  0.48,  0.54 au

Time for grid setup =    0.268 sec

------------------------------
INITIAL GUESS: MODEL POTENTIAL
------------------------------
Loading Hartree-Fock densities                     ... done
Calculating cut-offs                               ... done
Setting up the integral package                    ... done
Initializing the effective Hamiltonian             ... done
Starting the Coulomb interaction                   ... done (   0.0 sec)
Reading the grid                                   ... done
Mapping shells                                     ... done
Starting the XC term evaluation                    ... done (   0.0 sec)
  promolecular density results
     # of electrons  =     87.000079887
     EX              =   -151.133444588
     EC              =     -5.397503439
     EX+EC           =   -156.530948027
Transforming the Hamiltonian                       ... done (   0.0 sec)
Diagonalizing the Hamiltonian                      ... done (   0.0 sec)
Back transforming the eigenvectors                 ... done (   0.0 sec)
Now organizing SCF variables                       ... done
                      ------------------
                      INITIAL GUESS DONE (   0.4 sec)
                      ------------------
--------------
SCF ITERATIONS
--------------
ITER       Energy         Delta-E        Max-DP      RMS-DP      [F,P]     Damp
               ***  Starting incremental Fock matrix formation  ***
  0  -4913.0354635527   0.000000000000 0.58441224  0.00860017  1.7551461 0.7000
  1  -4917.5095465472  -4.474082994446 0.41490140  0.00569930  0.4635250 0.7000
  2  -4918.8119322146  -1.302385667474 0.28980028  0.00377289  0.2722074 0.7000
  3  -4919.5593467902  -0.747414575553 0.22249574  0.00282686  0.2785771 0.7000
                               ***Turning on DIIS***
  4  -4920.1004125030  -0.541065712796 0.15959654  0.00213916  0.1887132 0.7000
  5  -4920.4859507718  -0.385538268790 0.14626098  0.00167386  0.1139458 0.7000
  6  -4920.7602980656  -0.274347293851 0.45657907  0.00432598  0.0841537 0.0000
  7  -4921.4261116226  -0.665813556988 0.03708507  0.00024757  0.0139732 0.0000
  8  -4921.4273312895  -0.001219666850 0.04282310  0.00024992  0.0170579 0.0000
  9  -4921.4281789885  -0.000847698974 0.01156092  0.00008519  0.0151512 0.0000
 10  -4921.4286520659  -0.000473077418 0.00565073  0.00006307  0.0048529 0.0000
 11  -4921.4288006110  -0.000148545099 0.00771883  0.00006309  0.0024235 0.0000
 12  -4921.4288696913  -0.000069080348 0.02088310  0.00014780  0.0009099 0.0000
 13  -4921.4289245008  -0.000054809475 0.00932636  0.00006721  0.0004616 0.0000
 14  -4921.4289392082  -0.000014707443 0.00206315  0.00002064  0.0001833 0.0000
 15  -4921.4289435285  -0.000004320288 0.00035486  0.00000661  0.0001427 0.0000
 16  -4921.4289446450  -0.000001116459 0.00069220  0.00000641  0.0002247 0.0000
 17  -4921.4289452281  -0.000000583098 0.00010728  0.00000162  0.0001532 0.0000
 18  -4921.4289453620  -0.000000133921 0.00069900  0.00000481  0.0000771 0.0000
 19  -4921.4289455128  -0.000000150801 0.00041449  0.00000297  0.0000207 0.0000
               *** Restarting incremental Fock matrix formation ***
                                   *** Resetting DIIS ***
 20  -4921.4289455658  -0.000000052959 0.00009876  0.00000071  0.0000090 0.0000
 21  -4921.4289455735  -0.000000007769 0.00002949  0.00000025  0.0000154 0.0000
 22  -4921.4289455764  -0.000000002862 0.00006528  0.00000052  0.0000144 0.0000
 23  -4921.4289455805  -0.000000004086 0.00004132  0.00000038  0.0000043 0.0000
 24  -4921.4289455825  -0.000000001990 0.00000353  0.00000008  0.0000018 0.0000
 25  -4921.4289455828  -0.000000000305 0.00000246  0.00000005  0.0000021 0.0000
                            ***DIIS convergence achieved***

               *****************************************************
               *                     SUCCESS                       *
               *           SCF CONVERGED AFTER  26 CYCLES          *
               *****************************************************


Setting up the DFT-NL grid :

General Integration Accuracy     IntAcc      ...  4.340
Radial Grid Type                 RadialGrid  ... Gauss-Chebyshev
Angular Grid (max. acc.)         AngularGrid ... Lebedev-110
Angular grid pruning method      GridPruning ... 3 (G Style)
Weight generation scheme         WeightScheme... Becke
Basis function cutoff            BFCut       ...    1.0000e-11
Integration weight cutoff        WCut        ...    1.0000e-14
Grids for H and He will be reduced by one unit

# of grid points (after initial pruning)     ...   8736 (   0.0 sec)
# of grid points (after weights+screening)   ...   8688 (   0.0 sec)
nearest neighbour list constructed           ...    0.0 sec
Grid point re-assignment to atoms done       ...    0.0 sec
Grid point division into batches done        ...    0.0 sec
Reduced shell lists constructed in    0.0 sec

Total number of grid points                  ...     8688
Total number of batches                      ...      137
Average number of points per batch           ...       63
Average number of grid points per atom       ...     2896
Average number of shells per batch           ...    16.71 (29.32%)
Average number of basis functions per batch  ...    49.29 (24.52%)
Average number of large shells per batch     ...    13.71 (82.05%)
Average number of large basis fcns per batch ...    38.00 (77.10%)
Maximum spatial batch extension              ...  32.25, 15.58, 17.81 au
Average spatial batch extension              ...   1.02,  0.65,  0.70 au

Final grid set up in    0.0 sec

-------------------------------------------------------------------------------
                         DFT-NL dispersion correction                          
-------------------------------------------------------------------------------

SC Energy -4921.428945582 
NL    Energy 0.364140999 
SC+NL Energy -4921.064804583 
NL done in    0.0 sec
-------------------------------------------------------------------------------

----------------
TOTAL SCF ENERGY
----------------

Total Energy       :        -4921.06480458 Eh         -133908.98113 eV

Components:
Nuclear Repulsion  :          572.32888668 Eh           15573.86077 eV
Electronic Energy  :        -5493.39369126 Eh         -149482.84190 eV
One Electron Energy:        -8007.32864642 Eh         -217890.48981 eV
Two Electron Energy:         2513.93495516 Eh           68407.64791 eV

Virial components:
Potential Energy   :        -9835.26485124 Eh         -267631.16271 eV
Kinetic Energy     :         4914.20004666 Eh          133722.18157 eV
Virial Ratio       :            2.00139692


DFT components:
N(Alpha)           :       44.000001410295 electrons
N(Beta)            :       43.000000685891 electrons
N(Total)           :       87.000002096185 electrons
E(X)               :     -151.387768782721 Eh       
E(C)               :       -5.417588478068 Eh       
NL Energy, E(C,NL) :        0.364140998519 Eh       
E(XC)              :     -156.441216262270 Eh       
DFET-embed. en.    :        0.000000000000 Eh       

---------------
SCF CONVERGENCE
---------------

  Last Energy change         ...    8.0399e-10  Tolerance :   1.0000e-08
  Last MAX-Density change    ...    6.6009e-06  Tolerance :   1.0000e-07
  Last RMS-Density change    ...    8.6824e-08  Tolerance :   5.0000e-09
  Last DIIS Error            ...    7.1667e-07  Tolerance :   5.0000e-07

             **** THE GBW FILE WAS UPDATED (Cu03N0_D3H.gbw) ****
             **** DENSITY FILE WAS UPDATED (Cu03N0_D3H.scfp) ****
             **** ENERGY FILE WAS UPDATED (Cu03N0_D3H.en.tmp) ****
----------------------
UHF SPIN CONTAMINATION
----------------------

Warning: in a DFT calculation there is little theoretical justification to 
         calculate <S**2> as in Hartree-Fock theory. We will do it anyways
         but you should keep in mind that the values have only limited relevance

Expectation value of <S**2>     :     0.771708
Ideal value S*(S+1) for S=0.5   :     0.750000
Deviation                       :     0.021708

             **** THE GBW FILE WAS UPDATED (Cu03N0_D3H.gbw) ****
             **** DENSITY FILE WAS UPDATED (Cu03N0_D3H.scfp) ****
----------------
ORBITAL ENERGIES
----------------
                 SPIN UP ORBITALS
  NO   OCC          E(Eh)            E(eV) 
   0   1.0000    -322.859451     -8785.4523 
   1   1.0000    -322.859445     -8785.4521 
   2   1.0000    -322.844352     -8785.0415 
   3   1.0000     -38.840334     -1056.8992 
   4   1.0000     -38.840300     -1056.8983 
   5   1.0000     -38.827926     -1056.5616 
   6   1.0000     -34.037672      -926.2121 
   7   1.0000     -34.037665      -926.2119 
   8   1.0000     -34.037186      -926.1989 
   9   1.0000     -34.037174      -926.1986 
  10   1.0000     -34.036706      -926.1859 
  11   1.0000     -34.036700      -926.1857 
  12   1.0000     -34.025280      -925.8749 
  13   1.0000     -34.024913      -925.8650 
  14   1.0000     -34.022948      -925.8115 
  15   1.0000      -4.391527      -119.4995 
  16   1.0000      -4.391164      -119.4897 
  17   1.0000      -4.377027      -119.1050 
  18   1.0000      -2.889818       -78.6359 
  19   1.0000      -2.886661       -78.5500 
  20   1.0000      -2.885844       -78.5278 
  21   1.0000      -2.885043       -78.5060 
  22   1.0000      -2.884499       -78.4912 
  23   1.0000      -2.884239       -78.4841 
  24   1.0000      -2.872589       -78.1671 
  25   1.0000      -2.871989       -78.1508 
  26   1.0000      -2.867977       -78.0416 
  27   1.0000      -0.427041       -11.6204 
  28   1.0000      -0.406063       -11.0495 
  29   1.0000      -0.403417       -10.9775 
  30   1.0000      -0.399913       -10.8822 
  31   1.0000      -0.390264       -10.6196 
  32   1.0000      -0.387398       -10.5416 
  33   1.0000      -0.382378       -10.4050 
  34   1.0000      -0.368824       -10.0362 
  35   1.0000      -0.365019        -9.9327 
  36   1.0000      -0.364396        -9.9157 
  37   1.0000      -0.357945        -9.7402 
  38   1.0000      -0.355909        -9.6848 
  39   1.0000      -0.355824        -9.6825 
  40   1.0000      -0.352492        -9.5918 
  41   1.0000      -0.341068        -9.2809 
  42   1.0000      -0.338636        -9.2147 
  43   1.0000      -0.198598        -5.4041 
  44   0.0000      -0.034352        -0.9348 
  45   0.0000       0.014220         0.3869 
  46   0.0000       0.029511         0.8030 
  47   0.0000       0.053762         1.4629 
  48   0.0000       0.054426         1.4810 
  49   0.0000       0.075131         2.0444 
  50   0.0000       0.075468         2.0536 
  51   0.0000       0.081818         2.2264 
  52   0.0000       0.082032         2.2322 
  53   0.0000       0.116628         3.1736 
  54   0.0000       0.150528         4.0961 
  55   0.0000       0.158704         4.3185 
  56   0.0000       0.177041         4.8175 
  57   0.0000       0.178770         4.8646 
  58   0.0000       0.178925         4.8688 
  59   0.0000       0.225232         6.1289 
  60   0.0000       0.227157         6.1813 
  61   0.0000       0.240961         6.5569 
  62   0.0000       0.244597         6.6558 
  63   0.0000       0.258043         7.0217 
  64   0.0000       0.273829         7.4513 
  65   0.0000       0.277355         7.5472 
  66   0.0000       0.279766         7.6128 
  67   0.0000       0.287028         7.8104 
  68   0.0000       0.291540         7.9332 
  69   0.0000       0.304908         8.2970 
  70   0.0000       0.352170         9.5830 
  71   0.0000       0.353199         9.6110 
  72   0.0000       0.371142        10.0993 
  73   0.0000       0.382938        10.4203 
  74   0.0000       0.404673        11.0117 
  75   0.0000       0.405244        11.0273 
  76   0.0000       0.406483        11.0610 
  77   0.0000       0.412743        11.2313 
  78   0.0000       0.517811        14.0903 
  79   0.0000       0.564200        15.3527 
  80   0.0000       0.567467        15.4416 
  81   0.0000       0.718271        19.5451 
  82   0.0000       0.722331        19.6556 
  83   0.0000       0.773969        21.0608 
  84   0.0000       0.774062        21.0633 
  85   0.0000       0.822349        22.3773 
  86   0.0000       0.831528        22.6270 
  87   0.0000       0.880822        23.9684 
  88   0.0000       0.885654        24.0999 
  89   0.0000       0.892726        24.2923 
  90   0.0000       0.911721        24.8092 
  91   0.0000       0.944887        25.7117 
  92   0.0000       0.948049        25.7977 
  93   0.0000       1.011409        27.5218 
  94   0.0000       1.026134        27.9225 
  95   0.0000       1.052796        28.6480 
  96   0.0000       1.052988        28.6533 
  97   0.0000       1.131962        30.8022 
  98   0.0000       1.147924        31.2366 
  99   0.0000       1.152550        31.3625 
 100   0.0000       1.189867        32.3779 
 101   0.0000       1.196286        32.5526 
 102   0.0000       1.371360        37.3166 
 103   0.0000       1.374386        37.3989 
 104   0.0000       1.390801        37.8456 
 105   0.0000       3.083502        83.9064 
 106   0.0000       3.142115        85.5013 
 107   0.0000       3.163812        86.0917 
 108   0.0000       3.168617        86.2225 
 109   0.0000       3.186574        86.7111 
 110   0.0000       3.198357        87.0317 
 111   0.0000       3.209426        87.3329 
 112   0.0000       3.211661        87.3937 
 113   0.0000       3.226412        87.7951 
 114   0.0000       3.333185        90.7006 
 115   0.0000       3.502981        95.3210 
 116   0.0000       3.522879        95.8624 
 117   0.0000       3.523577        95.8814 
 118   0.0000       3.533668        96.1560 
 119   0.0000       3.534319        96.1737 
 120   0.0000       3.534512        96.1790 
 121   0.0000       3.548154        96.5502 
 122   0.0000       3.550246        96.6071 
 123   0.0000       3.551119        96.6309 
 124   0.0000       3.552521        96.6690 
 125   0.0000       3.556957        96.7897 
 126   0.0000       3.560594        96.8887 
 127   0.0000       3.560613        96.8892 
 128   0.0000       3.564049        96.9827 
 129   0.0000       3.568810        97.1123 
 130   0.0000       3.568923        97.1153 
 131   0.0000       3.568989        97.1171 
 132   0.0000       3.571627        97.1889 
 133   0.0000       3.574522        97.2677 
 134   0.0000       3.594971        97.8241 
 135   0.0000       3.656976        99.5114 
 136   0.0000       3.707956       100.8986 
 137   0.0000       3.715739       101.1104 
 138   0.0000       3.807663       103.6118 
 139   0.0000       3.811803       103.7244 
 140   0.0000       3.814177       103.7890 
 141   0.0000       3.845343       104.6371 
 142   0.0000       3.859814       105.0309 
 143   0.0000       3.869975       105.3074 
 144   0.0000       3.884218       105.6949 
 145   0.0000       3.928458       106.8988 
 146   0.0000       3.939285       107.1934 
 147   0.0000       4.070636       110.7676 
 148   0.0000       4.073503       110.8456 
 149   0.0000       4.099050       111.5408 
 150   0.0000       4.119170       112.0883 
 151   0.0000       4.358878       118.6111 
 152   0.0000       4.364185       118.7555 
 153   0.0000      13.074786       355.7830 
 154   0.0000      13.075093       355.7914 
 155   0.0000      13.075094       355.7914 
 156   0.0000      13.075176       355.7936 
 157   0.0000      13.075950       355.8147 
 158   0.0000      13.075965       355.8151 
 159   0.0000      13.076208       355.8217 
 160   0.0000      13.076265       355.8233 
 161   0.0000      13.077200       355.8487 
 162   0.0000      13.077239       355.8498 
 163   0.0000      13.077474       355.8561 
 164   0.0000      13.077609       355.8598 
 165   0.0000      13.077706       355.8625 
 166   0.0000      13.078021       355.8710 
 167   0.0000      13.079373       355.9078 
 168   0.0000      13.079376       355.9079 
 169   0.0000      13.079504       355.9114 
 170   0.0000      13.079519       355.9118 
 171   0.0000      13.090493       356.2104 
 172   0.0000      13.091605       356.2407 
 173   0.0000      13.092365       356.2614 
 174   0.0000      13.093198       356.2840 
 175   0.0000      13.094549       356.3208 
 176   0.0000      13.094927       356.3311 
 177   0.0000      13.095265       356.3403 
 178   0.0000      13.095887       356.3572 
 179   0.0000      13.096064       356.3620 
 180   0.0000      13.251964       360.6043 
 181   0.0000      13.253286       360.6402 
 182   0.0000      13.253365       360.6424 
 183   0.0000      13.253484       360.6456 
 184   0.0000      13.253833       360.6551 
 185   0.0000      13.254642       360.6771 
 186   0.0000      13.254982       360.6864 
 187   0.0000      13.256244       360.7207 
 188   0.0000      13.256867       360.7377 
 189   0.0000      13.260486       360.8362 
 190   0.0000      13.265331       360.9680 
 191   0.0000      13.265925       360.9842 
 192   0.0000      13.267488       361.0267 
 193   0.0000      13.270685       361.1137 
 194   0.0000      13.271026       361.1230 
 195   0.0000      13.277984       361.3123 
 196   0.0000      13.278051       361.3141 
 197   0.0000      13.280213       361.3730 
 198   0.0000      13.350220       363.2780 
 199   0.0000      13.358444       363.5017 
 200   0.0000      13.360989       363.5710 

                 SPIN DOWN ORBITALS
  NO   OCC          E(Eh)            E(eV) 
   0   1.0000    -322.859263     -8785.4472 
   1   1.0000    -322.859257     -8785.4470 
   2   1.0000    -322.843772     -8785.0257 
   3   1.0000     -38.840201     -1056.8956 
   4   1.0000     -38.840166     -1056.8946 
   5   1.0000     -38.827234     -1056.5428 
   6   1.0000     -34.037443      -926.2059 
   7   1.0000     -34.037431      -926.2056 
   8   1.0000     -34.036990      -926.1936 
   9   1.0000     -34.036980      -926.1933 
  10   1.0000     -34.036705      -926.1858 
  11   1.0000     -34.036698      -926.1856 
  12   1.0000     -34.024554      -925.8552 
  13   1.0000     -34.024408      -925.8512 
  14   1.0000     -34.022768      -925.8066 
  15   1.0000      -4.391145      -119.4891 
  16   1.0000      -4.390784      -119.4793 
  17   1.0000      -4.375320      -119.0585 
  18   1.0000      -2.889483       -78.6268 
  19   1.0000      -2.886640       -78.5495 
  20   1.0000      -2.885265       -78.5121 
  21   1.0000      -2.884318       -78.4863 
  22   1.0000      -2.884234       -78.4840 
  23   1.0000      -2.884068       -78.4795 
  24   1.0000      -2.871499       -78.1375 
  25   1.0000      -2.870179       -78.1015 
  26   1.0000      -2.866751       -78.0083 
  27   1.0000      -0.424512       -11.5516 
  28   1.0000      -0.404466       -11.0061 
  29   1.0000      -0.403331       -10.9752 
  30   1.0000      -0.397112       -10.8060 
  31   1.0000      -0.387656       -10.5486 
  32   1.0000      -0.386329       -10.5125 
  33   1.0000      -0.381622       -10.3845 
  34   1.0000      -0.367906       -10.0112 
  35   1.0000      -0.364784        -9.9263 
  36   1.0000      -0.364537        -9.9196 
  37   1.0000      -0.356074        -9.6893 
  38   1.0000      -0.354209        -9.6385 
  39   1.0000      -0.351341        -9.5605 
  40   1.0000      -0.350433        -9.5358 
  41   1.0000      -0.336903        -9.1676 
  42   1.0000      -0.325877        -8.8676 
  43   0.0000      -0.028380        -0.7722 
  44   0.0000      -0.009852        -0.2681 
  45   0.0000       0.018569         0.5053 
  46   0.0000       0.043578         1.1858 
  47   0.0000       0.068933         1.8758 
  48   0.0000       0.073166         1.9909 
  49   0.0000       0.081530         2.2186 
  50   0.0000       0.084361         2.2956 
  51   0.0000       0.092897         2.5278 
  52   0.0000       0.094099         2.5606 
  53   0.0000       0.126086         3.4310 
  54   0.0000       0.154868         4.2142 
  55   0.0000       0.162298         4.4163 
  56   0.0000       0.180510         4.9119 
  57   0.0000       0.189420         5.1544 
  58   0.0000       0.195994         5.3333 
  59   0.0000       0.226618         6.1666 
  60   0.0000       0.237388         6.4597 
  61   0.0000       0.244895         6.6639 
  62   0.0000       0.255424         6.9504 
  63   0.0000       0.258998         7.0477 
  64   0.0000       0.277341         7.5468 
  65   0.0000       0.277853         7.5608 
  66   0.0000       0.279234         7.5984 
  67   0.0000       0.288640         7.8543 
  68   0.0000       0.296710         8.0739 
  69   0.0000       0.306157         8.3310 
  70   0.0000       0.352976         9.6050 
  71   0.0000       0.353345         9.6150 
  72   0.0000       0.370504        10.0819 
  73   0.0000       0.384828        10.4717 
  74   0.0000       0.405270        11.0279 
  75   0.0000       0.407827        11.0975 
  76   0.0000       0.411609        11.2004 
  77   0.0000       0.415595        11.3089 
  78   0.0000       0.523543        14.2463 
  79   0.0000       0.564682        15.3658 
  80   0.0000       0.571361        15.5475 
  81   0.0000       0.719065        19.5668 
  82   0.0000       0.722089        19.6490 
  83   0.0000       0.774941        21.0872 
  84   0.0000       0.775301        21.0970 
  85   0.0000       0.822599        22.3841 
  86   0.0000       0.834128        22.6978 
  87   0.0000       0.883177        24.0325 
  88   0.0000       0.889244        24.1975 
  89   0.0000       0.901495        24.5309 
  90   0.0000       0.915265        24.9056 
  91   0.0000       0.948825        25.8188 
  92   0.0000       0.951775        25.8991 
  93   0.0000       1.012595        27.5541 
  94   0.0000       1.029578        28.0162 
  95   0.0000       1.058287        28.7974 
  96   0.0000       1.058556        28.8048 
  97   0.0000       1.136886        30.9362 
  98   0.0000       1.152125        31.3509 
  99   0.0000       1.159334        31.5471 
 100   0.0000       1.192215        32.4418 
 101   0.0000       1.201639        32.6983 
 102   0.0000       1.373123        37.3646 
 103   0.0000       1.377721        37.4897 
 104   0.0000       1.396424        37.9986 
 105   0.0000       3.084513        83.9339 
 106   0.0000       3.143540        85.5401 
 107   0.0000       3.166149        86.1553 
 108   0.0000       3.170221        86.2661 
 109   0.0000       3.187146        86.7267 
 110   0.0000       3.200744        87.0967 
 111   0.0000       3.210698        87.3675 
 112   0.0000       3.214668        87.4756 
 113   0.0000       3.228267        87.8456 
 114   0.0000       3.335724        90.7697 
 115   0.0000       3.505523        95.3901 
 116   0.0000       3.523554        95.8808 
 117   0.0000       3.524061        95.8946 
 118   0.0000       3.536484        96.2326 
 119   0.0000       3.537472        96.2595 
 120   0.0000       3.537746        96.2670 
 121   0.0000       3.549597        96.5894 
 122   0.0000       3.551776        96.6487 
 123   0.0000       3.552083        96.6571 
 124   0.0000       3.553050        96.6834 
 125   0.0000       3.557581        96.8067 
 126   0.0000       3.560775        96.8936 
 127   0.0000       3.561810        96.9218 
 128   0.0000       3.566716        97.0553 
 129   0.0000       3.570999        97.1718 
 130   0.0000       3.571186        97.1769 
 131   0.0000       3.571443        97.1839 
 132   0.0000       3.573761        97.2470 
 133   0.0000       3.577298        97.3432 
 134   0.0000       3.598492        97.9199 
 135   0.0000       3.657976        99.5386 
 136   0.0000       3.708967       100.9261 
 137   0.0000       3.717748       101.1651 
 138   0.0000       3.808284       103.6287 
 139   0.0000       3.812609       103.7464 
 140   0.0000       3.815272       103.8188 
 141   0.0000       3.846039       104.6560 
 142   0.0000       3.861078       105.0653 
 143   0.0000       3.872440       105.3744 
 144   0.0000       3.885954       105.7422 
 145   0.0000       3.929271       106.9209 
 146   0.0000       3.942188       107.2724 
 147   0.0000       4.072684       110.8234 
 148   0.0000       4.075592       110.9025 
 149   0.0000       4.099903       111.5640 
 150   0.0000       4.121942       112.1637 
 151   0.0000       4.359252       118.6213 
 152   0.0000       4.365753       118.7982 
 153   0.0000      13.074907       355.7863 
 154   0.0000      13.074991       355.7886 
 155   0.0000      13.075013       355.7892 
 156   0.0000      13.075172       355.7935 
 157   0.0000      13.075750       355.8092 
 158   0.0000      13.076155       355.8203 
 159   0.0000      13.076193       355.8213 
 160   0.0000      13.076215       355.8219 
 161   0.0000      13.077098       355.8459 
 162   0.0000      13.077244       355.8499 
 163   0.0000      13.077631       355.8604 
 164   0.0000      13.077777       355.8644 
 165   0.0000      13.077880       355.8672 
 166   0.0000      13.078400       355.8813 
 167   0.0000      13.079168       355.9023 
 168   0.0000      13.079179       355.9026 
 169   0.0000      13.079315       355.9063 
 170   0.0000      13.079352       355.9073 
 171   0.0000      13.091107       356.2271 
 172   0.0000      13.092213       356.2572 
 173   0.0000      13.092562       356.2667 
 174   0.0000      13.093471       356.2915 
 175   0.0000      13.094644       356.3234 
 176   0.0000      13.095099       356.3358 
 177   0.0000      13.095418       356.3444 
 178   0.0000      13.095951       356.3589 
 179   0.0000      13.096193       356.3655 
 180   0.0000      13.252345       360.6147 
 181   0.0000      13.253678       360.6509 
 182   0.0000      13.254023       360.6603 
 183   0.0000      13.254147       360.6637 
 184   0.0000      13.254223       360.6657 
 185   0.0000      13.255166       360.6914 
 186   0.0000      13.255388       360.6975 
 187   0.0000      13.256858       360.7374 
 188   0.0000      13.257102       360.7441 
 189   0.0000      13.260539       360.8376 
 190   0.0000      13.266115       360.9893 
 191   0.0000      13.267104       361.0163 
 192   0.0000      13.269402       361.0788 
 193   0.0000      13.271158       361.1266 
 194   0.0000      13.272644       361.1670 
 195   0.0000      13.279081       361.3422 
 196   0.0000      13.279453       361.3523 
 197   0.0000      13.281065       361.3962 
 198   0.0000      13.350826       363.2945 
 199   0.0000      13.358977       363.5163 
 200   0.0000      13.361978       363.5979 

                    ********************************
                    * MULLIKEN POPULATION ANALYSIS *
                    ********************************

--------------------------------------------
MULLIKEN ATOMIC CHARGES AND SPIN POPULATIONS
--------------------------------------------
   0 Cu:   -0.126327    0.599090
   1 Cu:    0.063164    0.200456
   2 Cu:    0.063163    0.200455
Sum of atomic charges         :   -0.0000000
Sum of atomic spin populations:    1.0000000

-----------------------------------------------------
MULLIKEN REDUCED ORBITAL CHARGES AND SPIN POPULATIONS
-----------------------------------------------------
CHARGE
  0 Cus       :     7.142681  s :     7.142681
      pz      :     4.011081  p :    12.097281
      px      :     4.009287
      py      :     4.076913
      dz2     :     1.986137  d :     9.886166
      dxz     :     1.996081
      dyz     :     1.987688
      dx2y2   :     1.977810
      dxy     :     1.938450
      f0      :     0.000021  f :     0.000199
      f+1     :     0.000011
      f-1     :     0.000030
      f+2     :     0.000014
      f-2     :     0.000026
      f+3     :     0.000044
      f-3     :     0.000052
      g0      :     0.000000  g :     0.000001
      g+1     :     0.000000
      g-1     :     0.000000
      g+2     :     0.000000
      g-2     :     0.000000
      g+3     :     0.000000
      g-3     :     0.000000
      g+4     :     0.000000
      g-4     :     0.000000
  1 Cus       :     6.802965  s :     6.802965
      pz      :     4.012612  p :    12.203257
      px      :     4.054734
      py      :     4.135912
      dz2     :     1.990429  d :     9.930341
      dxz     :     1.993635
      dyz     :     1.996207
      dx2y2   :     1.970970
      dxy     :     1.979100
      f0      :     0.000027  f :     0.000271
      f+1     :     0.000037
      f-1     :     0.000017
      f+2     :     0.000034
      f-2     :     0.000029
      f+3     :     0.000061
      f-3     :     0.000065
      g0      :     0.000000  g :     0.000001
      g+1     :     0.000000
      g-1     :     0.000000
      g+2     :     0.000000
      g-2     :     0.000000
      g+3     :     0.000000
      g-3     :     0.000000
      g+4     :     0.000000
      g-4     :     0.000000
  2 Cus       :     6.802966  s :     6.802966
      pz      :     4.012612  p :    12.203257
      px      :     4.054734
      py      :     4.135911
      dz2     :     1.990429  d :     9.930341
      dxz     :     1.993635
      dyz     :     1.996207
      dx2y2   :     1.970970
      dxy     :     1.979100
      f0      :     0.000027  f :     0.000271
      f+1     :     0.000037
      f-1     :     0.000017
      f+2     :     0.000034
      f-2     :     0.000029
      f+3     :     0.000061
      f-3     :     0.000065
      g0      :     0.000000  g :     0.000001
      g+1     :     0.000000
      g-1     :     0.000000
      g+2     :     0.000000
      g-2     :     0.000000
      g+3     :     0.000000
      g-3     :     0.000000
      g+4     :     0.000000
      g-4     :     0.000000

SPIN
  0 Cus       :     0.586337  s :     0.586337
      pz      :     0.000155  p :     0.000568
      px      :    -0.000708
      py      :     0.001121
      dz2     :    -0.000179  d :     0.012184
      dxz     :     0.000134
      dyz     :     0.000963
      dx2y2   :     0.002901
      dxy     :     0.008365
      f0      :    -0.000000  f :     0.000000
      f+1     :    -0.000000
      f-1     :    -0.000001
      f+2     :     0.000000
      f-2     :    -0.000000
      f+3     :    -0.000002
      f-3     :     0.000002
      g0      :     0.000000  g :     0.000000
      g+1     :     0.000000
      g-1     :     0.000000
      g+2     :     0.000000
      g-2     :     0.000000
      g+3     :    -0.000000
      g-3     :    -0.000000
      g+4     :    -0.000000
      g-4     :    -0.000000
  1 Cus       :     0.102485  s :     0.102485
      pz      :    -0.000168  p :     0.097681
      px      :     0.004367
      py      :     0.093482
      dz2     :     0.000405  d :     0.000288
      dxz     :    -0.000223
      dyz     :    -0.000235
      dx2y2   :    -0.000404
      dxy     :     0.000746
      f0      :    -0.000000  f :     0.000001
      f+1     :    -0.000001
      f-1     :     0.000001
      f+2     :    -0.000000
      f-2     :     0.000000
      f+3     :     0.000003
      f-3     :    -0.000001
      g0      :     0.000000  g :     0.000000
      g+1     :     0.000000
      g-1     :     0.000000
      g+2     :     0.000000
      g-2     :     0.000000
      g+3     :     0.000000
      g-3     :    -0.000000
      g+4     :    -0.000000
      g-4     :     0.000000
  2 Cus       :     0.102485  s :     0.102485
      pz      :    -0.000168  p :     0.097681
      px      :     0.004367
      py      :     0.093482
      dz2     :     0.000405  d :     0.000288
      dxz     :    -0.000223
      dyz     :    -0.000235
      dx2y2   :    -0.000404
      dxy     :     0.000745
      f0      :    -0.000000  f :     0.000001
      f+1     :    -0.000001
      f-1     :     0.000001
      f+2     :    -0.000000
      f-2     :     0.000000
      f+3     :     0.000003
      f-3     :    -0.000001
      g0      :     0.000000  g :     0.000000
      g+1     :     0.000000
      g-1     :     0.000000
      g+2     :     0.000000
      g-2     :     0.000000
      g+3     :     0.000000
      g-3     :    -0.000000
      g+4     :    -0.000000
      g-4     :     0.000000


                     *******************************
                     * LOEWDIN POPULATION ANALYSIS *
                     *******************************

-------------------------------------------
LOEWDIN ATOMIC CHARGES AND SPIN POPULATIONS
-------------------------------------------
   0 Cu:   -0.023104    0.393862
   1 Cu:    0.011552    0.303069
   2 Cu:    0.011552    0.303069

----------------------------------------------------
LOEWDIN REDUCED ORBITAL CHARGES AND SPIN POPULATIONS
----------------------------------------------------
CHARGE
  0 Cus       :     6.661693  s :     6.661693
      pz      :     4.012760  p :    12.392206
      px      :     4.029343
      py      :     4.350104
      dz2     :     2.013689  d :     9.968672
      dxz     :     1.996050
      dyz     :     1.985886
      dx2y2   :     2.003193
      dxy     :     1.969854
      f0      :     0.000047  f :     0.000531
      f+1     :     0.000032
      f-1     :     0.000084
      f+2     :     0.000026
      f-2     :     0.000063
      f+3     :     0.000167
      f-3     :     0.000112
      g0      :     0.000000  g :     0.000002
      g+1     :     0.000000
      g-1     :     0.000000
      g+2     :     0.000000
      g-2     :     0.000000
      g+3     :     0.000000
      g-3     :     0.000000
      g+4     :     0.000000
      g-4     :     0.000000
  1 Cus       :     6.528436  s :     6.528436
      pz      :     4.014636  p :    12.440858
      px      :     4.136779
      py      :     4.289442
      dz2     :     2.012272  d :    10.018510
      dxz     :     1.992347
      dyz     :     1.995431
      dx2y2   :     2.007564
      dxy     :     2.010895
      f0      :     0.000055  f :     0.000643
      f+1     :     0.000080
      f-1     :     0.000050
      f+2     :     0.000066
      f-2     :     0.000049
      f+3     :     0.000214
      f-3     :     0.000129
      g0      :     0.000000  g :     0.000002
      g+1     :     0.000000
      g-1     :     0.000000
      g+2     :     0.000000
      g-2     :     0.000000
      g+3     :     0.000000
      g-3     :     0.000000
      g+4     :     0.000000
      g-4     :     0.000000
  2 Cus       :     6.528435  s :     6.528435
      pz      :     4.014636  p :    12.440858
      px      :     4.136779
      py      :     4.289442
      dz2     :     2.012272  d :    10.018510
      dxz     :     1.992347
      dyz     :     1.995431
      dx2y2   :     2.007565
      dxy     :     2.010895
      f0      :     0.000055  f :     0.000643
      f+1     :     0.000080
      f-1     :     0.000050
      f+2     :     0.000066
      f-2     :     0.000049
      f+3     :     0.000214
      f-3     :     0.000129
      g0      :     0.000000  g :     0.000002
      g+1     :     0.000000
      g-1     :     0.000000
      g+2     :     0.000000
      g-2     :     0.000000
      g+3     :     0.000000
      g-3     :     0.000000
      g+4     :     0.000000
      g-4     :     0.000000

SPIN
  0 Cus       :     0.217617  s :     0.217617
      pz      :     0.000231  p :     0.147994
      px      :    -0.000834
      py      :     0.148597
      dz2     :     0.004685  d :     0.028236
      dxz     :    -0.000059
      dyz     :     0.000995
      dx2y2   :     0.015618
      dxy     :     0.006996
      f0      :     0.000000  f :     0.000015
      f+1     :     0.000000
      f-1     :     0.000009
      f+2     :     0.000001
      f-2     :     0.000000
      f+3     :     0.000004
      f-3     :     0.000001
      g0      :     0.000000  g :     0.000000
      g+1     :     0.000000
      g-1     :     0.000000
      g+2     :     0.000000
      g-2     :     0.000000
      g+3     :    -0.000000
      g-3     :    -0.000000
      g+4     :     0.000000
      g-4     :     0.000000
  1 Cus       :     0.051904  s :     0.051904
      pz      :    -0.000185  p :     0.217712
      px      :     0.002062
      py      :     0.215834
      dz2     :     0.003613  d :     0.033426
      dxz     :    -0.000289
      dyz     :    -0.000109
      dx2y2   :     0.013092
      dxy     :     0.017119
      f0      :     0.000000  f :     0.000028
      f+1     :    -0.000001
      f-1     :     0.000007
      f+2     :    -0.000000
      f-2     :     0.000000
      f+3     :     0.000023
      f-3     :    -0.000002
      g0      :     0.000000  g :     0.000000
      g+1     :     0.000000
      g-1     :     0.000000
      g+2     :     0.000000
      g-2     :     0.000000
      g+3     :     0.000000
      g-3     :    -0.000000
      g+4     :     0.000000
      g-4     :     0.000000
  2 Cus       :     0.051903  s :     0.051903
      pz      :    -0.000185  p :     0.217712
      px      :     0.002062
      py      :     0.215834
      dz2     :     0.003613  d :     0.033426
      dxz     :    -0.000289
      dyz     :    -0.000109
      dx2y2   :     0.013092
      dxy     :     0.017119
      f0      :     0.000000  f :     0.000028
      f+1     :    -0.000001
      f-1     :     0.000007
      f+2     :    -0.000000
      f-2     :     0.000000
      f+3     :     0.000023
      f-3     :    -0.000002
      g0      :     0.000000  g :     0.000000
      g+1     :     0.000000
      g-1     :     0.000000
      g+2     :     0.000000
      g-2     :     0.000000
      g+3     :     0.000000
      g-3     :    -0.000000
      g+4     :     0.000000
      g-4     :     0.000000


                      *****************************
                      * MAYER POPULATION ANALYSIS *
                      *****************************

  NA   - Mulliken gross atomic population
  ZA   - Total nuclear charge
  QA   - Mulliken gross atomic charge
  VA   - Mayer's total valence
  BVA  - Mayer's bonded valence
  FA   - Mayer's free valence

  ATOM       NA         ZA         QA         VA         BVA        FA
  0 Cu    29.1263    29.0000    -0.1263     1.2520     0.8364     0.4156
  1 Cu    28.9368    29.0000     0.0632     1.3106     1.2066     0.1040
  2 Cu    28.9368    29.0000     0.0632     1.3106     1.2066     0.1040

  Mayer bond orders larger than 0.100000
B(  0-Cu,  1-Cu) :   0.4182 B(  0-Cu,  2-Cu) :   0.4182 B(  1-Cu,  2-Cu) :   0.7884 


-------
TIMINGS
-------

Total SCF time: 0 days 0 hours 0 min 24 sec 

Total time                  ....      24.499 sec
Sum of individual times     ....      24.163 sec  ( 98.6%)

Fock matrix formation       ....      23.307 sec  ( 95.1%)
  XC integration            ....       1.296 sec  (  5.6% of F)
    Basis function eval.    ....       0.103 sec  (  7.9% of XC)
    Density eval.           ....       0.132 sec  ( 10.2% of XC)
    XC-Functional eval.     ....       0.055 sec  (  4.2% of XC)
    XC-Potential eval.      ....       0.261 sec  ( 20.2% of XC)
Diagonalization             ....       0.310 sec  (  1.3%)
Density matrix formation    ....       0.036 sec  (  0.1%)
Population analysis         ....       0.014 sec  (  0.1%)
Initial guess               ....       0.101 sec  (  0.4%)
Orbital Transformation      ....       0.000 sec  (  0.0%)
Orbital Orthonormalization  ....       0.000 sec  (  0.0%)
DIIS solution               ....       0.103 sec  (  0.4%)
Grid generation             ....       0.293 sec  (  1.2%)

-------------------------   --------------------
FINAL SINGLE POINT ENERGY     -4921.064804583451
-------------------------   --------------------


----------------------------------------------------------------------------
                           ORCA NUMERICAL GRADIENT
                              (24-process run)
----------------------------------------------------------------------------

I state                        ... 1
J state                        ... 0
Number of atoms                ... 3
Derivative's order of accuracy ... 2
Central differences            ... used
Number of displacements        ... 18
Numerical increment            ... 5.000e-03 bohr
Translation invariance         ... used

The output will be reduced. Please look at the following files:
SCF program output             ... >Cu03N0_D3H.lastscf
Integral program output        ... >Cu03N0_D3H.lastint
Gradient program output        ... >Cu03N0_D3H.lastgrad


     Note:   There are more processes than displacements to do
     ===>:   Reducing number of processes to   6

             <<<Displacing   3/coordinate 1 (+)>>>
             <<<Displacing   3/coordinate 2 (+)>>>
             <<<Displacing   2/coordinate 1 (+)>>>
             <<<Displacing   2/coordinate 3 (+)>>>
             <<<Displacing   3/coordinate 3 (+)>>>
             <<<Displacing   2/coordinate 2 (+)>>>
             <<<Displacing   3/coordinate 1 (-)>>>
             <<<Displacing   2/coordinate 3 (-)>>>
             <<<Displacing   3/coordinate 3 (-)>>>
             <<<Displacing   2/coordinate 1 (-)>>>
             <<<Displacing   2/coordinate 2 (-)>>>
             <<<Displacing   3/coordinate 2 (-)>>>

------------------------------
CARTESIAN GRADIENT (NUMERICAL)
-------------------------------
   1   Cu  :    0.000000008   -0.020431892    0.000000015
   2   Cu  :   -0.000574758    0.010215974    0.000000000
   3   Cu  :    0.000574750    0.010215918   -0.000000015

Norm of the cartesian gradient     ...    0.025037052
RMS gradient                       ...    0.008345684
MAX gradient                       ...    0.020431892

-------
TIMINGS
-------

Total numerical gradient time      ...      665.094 sec

------------------------------------------------------------------------------
                         ORCA GEOMETRY RELAXATION STEP
------------------------------------------------------------------------------

Reading the OPT-File                    .... done
Getting information on internals        .... done
Copying old internal coords+grads       .... done
Making the new internal coordinates     .... (new redundants).... done
Validating the new internal coordinates .... (new redundants).... done
Calculating the B-matrix                .... done
Calculating the G,G- and P matrices     .... done
Transforming gradient to internals      .... done
Projecting the internal gradient        .... done
Number of atoms                         ....   3
Number of internal coordinates          ....   6
Current Energy                          .... -4921.064804583 Eh
Current gradient norm                   ....     0.025037052 Eh/bohr
Maximum allowed component of the step   ....  0.300
Current trust radius                    ....  0.300
Evaluating the initial hessian          ....  (Almloef) done
Projecting the Hessian                  .... done
Forming the augmented Hessian           .... done
Diagonalizing the augmented Hessian     .... done
Last element of RFO vector              ....  0.999962142
Lowest eigenvalues of augmented Hessian:
 -0.000145669  1.877394735  1.877486567  2.003844497 1000.000000000
Length of the computed step             ....  0.008701730
The final length of the internal step   ....  0.008701730
Converting the step to cartesian space:
 Initial RMS(Int)=    0.0035524662
Transforming coordinates:
 Iter   0:  RMS(Cart)=    0.0020266111 RMS(Int)=    0.0035533332
 Iter   1:  RMS(Cart)=    0.0000005451 RMS(Int)=    0.0000011373
 Iter   2:  RMS(Cart)=    0.0000000001 RMS(Int)=    0.0000000002
done
Storing new coordinates                 .... done

                                .--------------------.
          ----------------------|Geometry convergence|-------------------------
          Item                value                   Tolerance       Converged
          ---------------------------------------------------------------------
          RMS gradient        0.0068376062            0.0001000000      NO
          MAX gradient        0.0110332291            0.0003000000      NO
          RMS step            0.0035524662            0.0020000000      NO
          MAX step            0.0056718524            0.0040000000      NO
          ........................................................
          Max(Bonds)      0.0030      Max(Angles)    0.12
          Max(Dihed)        0.00      Max(Improp)    0.00
          ---------------------------------------------------------------------

The optimization has not yet converged - more geometry cycles are needed


    ---------------------------------------------------------------------------
                         Redundant Internal Coordinates
                            (Angstroem and degrees)

        Definition                    Value    dE/dq     Step     New-Value
    ----------------------------------------------------------------------------
     1. B(Cu  1,Cu  0)                2.3328 -0.011033  0.0030    2.3358   
     2. B(Cu  2,Cu  1)                2.3328  0.003797 -0.0012    2.3316   
     3. B(Cu  2,Cu  0)                2.3328 -0.011033  0.0030    2.3358   
     4. A(Cu  1,Cu  0,Cu  2)           60.00  0.003885   -0.12     59.88   
     5. A(Cu  0,Cu  1,Cu  2)           60.00 -0.001942    0.06     60.06   
     6. A(Cu  0,Cu  2,Cu  1)           60.00 -0.001942    0.06     60.06   
    ----------------------------------------------------------------------------

         *************************************************************
         *                GEOMETRY OPTIMIZATION CYCLE   2            *
         *************************************************************
---------------------------------
CARTESIAN COORDINATES (ANGSTROEM)
---------------------------------
  Cu    -0.000000    1.349365    0.000000
  Cu     1.165797   -0.674682    0.000000
  Cu    -1.165797   -0.674682    0.000000

----------------------------
CARTESIAN COORDINATES (A.U.)
----------------------------
  NO LB      ZA    FRAG     MASS         X           Y           Z
   0 Cu   29.0000    0    63.550   -0.000000    2.549930    0.000000
   1 Cu   29.0000    0    63.550    2.203038   -1.274965    0.000000
   2 Cu   29.0000    0    63.550   -2.203038   -1.274965    0.000000

--------------------------------
INTERNAL COORDINATES (ANGSTROEM)
--------------------------------
 Cu     0   0   0     0.000000000000     0.00000000     0.00000000
 Cu     1   0   0     2.335776103767     0.00000000     0.00000000
 Cu     2   1   0     2.331594949500    60.05919642     0.00000000

---------------------------
INTERNAL COORDINATES (A.U.)
---------------------------
 Cu     0   0   0     0.000000000000     0.00000000     0.00000000
 Cu     1   0   0     4.413977146278     0.00000000     0.00000000
 Cu     2   1   0     4.406075909789    60.05919642     0.00000000



           ************************************************************
           *        Program running with 24 parallel MPI-processes    *
           *              working on a common directory               *
           ************************************************************


           ************************************************************
           *        Program running with 24 parallel MPI-processes    *
           *              working on a common directory               *
           ************************************************************

Diagonalization of the overlap matrix:
Smallest eigenvalue                        ... 7.629e-04
Time for diagonalization                   ...    0.007 sec
Threshold for overlap eigenvalues          ... 1.000e-08
Number of eigenvalues below threshold      ... 0
Time for construction of square roots      ...    0.006 sec
Total time needed                          ...    0.013 sec

-------------------
DFT GRID GENERATION
-------------------

General Integration Accuracy     IntAcc      ...  4.670
Radial Grid Type                 RadialGrid  ... Gauss-Chebyshev
Angular Grid (max. acc.)         AngularGrid ... Lebedev-302
Angular grid pruning method      GridPruning ... 3 (G Style)
Weight generation scheme         WeightScheme... Becke
Basis function cutoff            BFCut       ...    1.0000e-11
Integration weight cutoff        WCut        ...    1.0000e-14
Grids for H and He will be reduced by one unit

# of grid points (after initial pruning)     ...  28668 (   0.0 sec)
# of grid points (after weights+screening)   ...  28568 (   0.0 sec)
nearest neighbour list constructed           ...    0.0 sec
Grid point re-assignment to atoms done       ...    0.0 sec
Grid point division into batches done        ...    0.2 sec
Reduced shell lists constructed in    0.2 sec

Total number of grid points                  ...    28568
Total number of batches                      ...      448
Average number of points per batch           ...       63
Average number of grid points per atom       ...     9523
Average number of shells per batch           ...    13.75 (24.12%)
Average number of basis functions per batch  ...    38.75 (19.28%)
Average number of large shells per batch     ...    10.10 (73.45%)
Average number of large basis fcns per batch ...    27.90 (72.00%)
Maximum spatial batch extension              ...  20.07, 17.16, 22.17 au
Average spatial batch extension              ...   0.56,  0.48,  0.54 au

Time for grid setup =    0.256 sec

--------------
SCF ITERATIONS
--------------
ITER       Energy         Delta-E        Max-DP      RMS-DP      [F,P]     Damp
               ***  Starting incremental Fock matrix formation  ***
  0  -4921.4291009829   0.000000000000 0.00006899  0.00000111  0.0010156 0.7000
  1  -4921.4291011198  -0.000000136852 0.00006727  0.00000102  0.0007114 0.7000
                               ***Turning on DIIS***
  2  -4921.4291012190  -0.000000099225 0.00019933  0.00000276  0.0004982 0.0000
  3  -4921.4291014748  -0.000000255830 0.00005570  0.00000082  0.0000308 0.0000
  4  -4921.4291014889  -0.000000014107 0.00002897  0.00000031  0.0000153 0.0000
  5  -4921.4291014908  -0.000000001867 0.00002848  0.00000030  0.0000115 0.0000
  6  -4921.4291014920  -0.000000001212 0.00001796  0.00000017  0.0000182 0.0000
  7  -4921.4291014922  -0.000000000252 0.00001063  0.00000012  0.0000040 0.0000
  8  -4921.4291014928  -0.000000000579 0.00000264  0.00000003  0.0000031 0.0000
  9  -4921.4291014926   0.000000000194 0.00000512  0.00000005  0.0000021 0.0000
                 **** Energy Check signals convergence ****

               *****************************************************
               *                     SUCCESS                       *
               *           SCF CONVERGED AFTER  10 CYCLES          *
               *****************************************************


Setting up the DFT-NL grid :

General Integration Accuracy     IntAcc      ...  4.340
Radial Grid Type                 RadialGrid  ... Gauss-Chebyshev
Angular Grid (max. acc.)         AngularGrid ... Lebedev-110
Angular grid pruning method      GridPruning ... 3 (G Style)
Weight generation scheme         WeightScheme... Becke
Basis function cutoff            BFCut       ...    1.0000e-11
Integration weight cutoff        WCut        ...    1.0000e-14
Grids for H and He will be reduced by one unit

# of grid points (after initial pruning)     ...   8736 (   0.0 sec)
# of grid points (after weights+screening)   ...   8688 (   0.0 sec)
nearest neighbour list constructed           ...    0.0 sec
Grid point re-assignment to atoms done       ...    0.0 sec
Grid point division into batches done        ...    0.0 sec
Reduced shell lists constructed in    0.0 sec

Total number of grid points                  ...     8688
Total number of batches                      ...      138
Average number of points per batch           ...       62
Average number of grid points per atom       ...     2896
Average number of shells per batch           ...    16.71 (29.32%)
Average number of basis functions per batch  ...    49.29 (24.52%)
Average number of large shells per batch     ...    13.71 (82.05%)
Average number of large basis fcns per batch ...    38.00 (77.10%)
Maximum spatial batch extension              ...  32.25, 15.58, 17.81 au
Average spatial batch extension              ...   1.01,  0.65,  0.70 au

Final grid set up in    0.0 sec

-------------------------------------------------------------------------------
                         DFT-NL dispersion correction                          
-------------------------------------------------------------------------------

SC Energy -4921.429101492 
NL    Energy 0.364153009 
SC+NL Energy -4921.064948483 
NL done in    0.0 sec
-------------------------------------------------------------------------------
Total Energy       :        -4921.06494848 Eh         -133908.98505 eV
  Last Energy change         ...    2.3374e-10  Tolerance :   1.0000e-08
  Last MAX-Density change    ...    5.0512e-06  Tolerance :   1.0000e-07
             **** THE GBW FILE WAS UPDATED (Cu03N0_D3H.gbw) ****
             **** DENSITY FILE WAS UPDATED (Cu03N0_D3H.scfp) ****
             **** ENERGY FILE WAS UPDATED (Cu03N0_D3H.en.tmp) ****
----------------------
UHF SPIN CONTAMINATION
----------------------

Warning: in a DFT calculation there is little theoretical justification to 
         calculate <S**2> as in Hartree-Fock theory. We will do it anyways
         but you should keep in mind that the values have only limited relevance

Expectation value of <S**2>     :     0.771749
Ideal value S*(S+1) for S=0.5   :     0.750000
Deviation                       :     0.021749

             **** THE GBW FILE WAS UPDATED (Cu03N0_D3H.gbw) ****
             **** DENSITY FILE WAS UPDATED (Cu03N0_D3H.scfp) ****
Total SCF time: 0 days 0 hours 0 min 9 sec 

-------------------------   --------------------
FINAL SINGLE POINT ENERGY     -4921.064948483384
-------------------------   --------------------


----------------------------------------------------------------------------
                           ORCA NUMERICAL GRADIENT
                              (24-process run)
----------------------------------------------------------------------------

I state                        ... 1
J state                        ... 0
Number of atoms                ... 3
Derivative's order of accuracy ... 2
Central differences            ... used
Number of displacements        ... 18
Numerical increment            ... 5.000e-03 bohr
Translation invariance         ... used

The output will be reduced. Please look at the following files:
SCF program output             ... >Cu03N0_D3H.lastscf
Integral program output        ... >Cu03N0_D3H.lastint
Gradient program output        ... >Cu03N0_D3H.lastgrad


     Note:   There are more processes than displacements to do
     ===>:   Reducing number of processes to   6

             <<<Displacing   2/coordinate 1 (+)>>>
             <<<Displacing   2/coordinate 3 (+)>>>
             <<<Displacing   2/coordinate 2 (+)>>>
             <<<Displacing   3/coordinate 3 (+)>>>
             <<<Displacing   3/coordinate 2 (+)>>>
             <<<Displacing   3/coordinate 1 (+)>>>
             <<<Displacing   2/coordinate 3 (-)>>>
             <<<Displacing   3/coordinate 3 (-)>>>
             <<<Displacing   2/coordinate 1 (-)>>>
             <<<Displacing   3/coordinate 1 (-)>>>
             <<<Displacing   3/coordinate 2 (-)>>>

ORCA finished by error termination in SCF
Calling Command: /sw/apps/orca/orca_4_2_0_linux_x86-64_openmpi314/orca_scf Cu03N0_D3H.proc1.gbw b >Cu03N0_D3H.proc1.lastscf
Check for SCF-logfiles
ORCA_NUMFREQ: ORCA finished with an error in the energy calculation
              Please check Cu03N0_D3H.lastint.dpl4 for details
              Please check Cu03N0_D3H.lastscf.dpl4 for details

------------------------------
CARTESIAN GRADIENT (NUMERICAL)
-------------------------------
   1   Cu  :   -0.000000370   -0.020230337   -0.000000011
   2   Cu  :   -0.000453159    0.010215974    0.000000006
   3   Cu  :    0.000453529    0.010014363    0.000000005

Norm of the cartesian gradient     ...    0.024785705
RMS gradient                       ...    0.008261902
MAX gradient                       ...    0.020230337

-------
TIMINGS
-------

Total numerical gradient time      ...     1688.511 sec

------------------------------------------------------------------------------
                         ORCA GEOMETRY RELAXATION STEP
------------------------------------------------------------------------------

Reading the OPT-File                    .... done
Getting information on internals        .... done
Copying old internal coords+grads       .... done
Making the new internal coordinates     .... (new redundants).... done
Validating the new internal coordinates .... (new redundants).... done
Calculating the B-matrix                .... done
Calculating the G,G- and P matrices     .... done
Transforming gradient to internals      .... done
Projecting the internal gradient        .... done
Number of atoms                         ....   3
Number of internal coordinates          ....   6
Current Energy                          .... -4921.064948483 Eh
Current gradient norm                   ....     0.024785705 Eh/bohr
Maximum allowed component of the step   ....  0.300
Current trust radius                    ....  0.300
Updating the Hessian (BFGS)             .... done
Forming the augmented Hessian           .... done
Diagonalizing the augmented Hessian     .... done
Last element of RFO vector              ....  0.849488168
Lowest eigenvalues of augmented Hessian:
 -0.010306333  0.026717049  1.881617050  1.964723588 999.904657933
Length of the computed step             ....  0.621088896
Warning: the length of the step is outside the trust region - taking restricted step instead
The input lambda is                     ....    -0.010306
   iter:   1  x=   -0.020548  g=   28.876640 f(x)=     0.295751
   iter:   2  x=   -0.030777  g=   10.908260 f(x)=     0.111580
   iter:   3  x=   -0.037199  g=    5.241122 f(x)=     0.033659
   iter:   4  x=   -0.038824  g=    3.574199 f(x)=     0.005807
   iter:   5  x=   -0.038901  g=    3.268002 f(x)=     0.000254
   iter:   6  x=   -0.038902  g=    3.254263 f(x)=     0.000001
   iter:   7  x=   -0.038902  g=    3.254234 f(x)=     0.000000
   iter:   8  x=   -0.038902  g=    3.254234 f(x)=     0.000000
The output lambda is                    ....    -0.038902 (8 iterations)
The final length of the internal step   ....  0.300000000
Converting the step to cartesian space:
 Initial RMS(Int)=    0.1224744871
Transforming coordinates:
 Iter   0:  RMS(Cart)=    0.0699297005 RMS(Int)=    0.1234762721
 Iter   1:  RMS(Cart)=    0.0006234544 RMS(Int)=    0.0013069802
 Iter   2:  RMS(Cart)=    0.0000035810 RMS(Int)=    0.0000071640
 Iter   3:  RMS(Cart)=    0.0000000472 RMS(Int)=    0.0000000912
done
Storing new coordinates                 .... done

                                .--------------------.
          ----------------------|Geometry convergence|-------------------------
          Item                value                   Tolerance       Converged
          ---------------------------------------------------------------------
          Energy change      -0.0001438999            0.0000050000      NO
          RMS gradient        0.0067777902            0.0001000000      NO
          MAX gradient        0.0109681557            0.0003000000      NO
          RMS step            0.1224744871            0.0020000000      NO
          MAX step            0.1961235206            0.0040000000      NO
          ........................................................
          Max(Bonds)      0.1038      Max(Angles)    4.10
          Max(Dihed)        0.00      Max(Improp)    0.00
          ---------------------------------------------------------------------

The optimization has not yet converged - more geometry cycles are needed


    ---------------------------------------------------------------------------
                         Redundant Internal Coordinates
                            (Angstroem and degrees)

        Definition                    Value    dE/dq     Step     New-Value
    ----------------------------------------------------------------------------
     1. B(Cu  1,Cu  0)                2.3358 -0.010968  0.1038    2.4396   
     2. B(Cu  2,Cu  1)                2.3316  0.003860 -0.0414    2.2902   
     3. B(Cu  2,Cu  0)                2.3358 -0.010867  0.1028    2.4386   
     4. A(Cu  1,Cu  0,Cu  2)           59.88  0.003858   -4.10     55.78   
     5. A(Cu  0,Cu  1,Cu  2)           60.06 -0.001909    2.03     62.09   
     6. A(Cu  0,Cu  2,Cu  1)           60.06 -0.001949    2.07     62.13   
    ----------------------------------------------------------------------------

         *************************************************************
         *                GEOMETRY OPTIMIZATION CYCLE   3            *
         *************************************************************


           ************************************************************
           *        Program running with 24 parallel MPI-processes    *
           *              working on a common directory               *
           ************************************************************


           ************************************************************
           *        Program running with 24 parallel MPI-processes    *
           *              working on a common directory               *
           ************************************************************

Diagonalization of the overlap matrix:
Smallest eigenvalue                        ... 7.470e-04
Time for diagonalization                   ...    0.007 sec
Threshold for overlap eigenvalues          ... 1.000e-08
[...]
      f-1     :     0.000001
      f+2     :    -0.000000
      f-2     :     0.000000
      f+3     :     0.000003
      f-3     :    -0.000001
      g0      :     0.000000  g :     0.000000
      g+1     :     0.000000
      g-1     :     0.000000
      g+2     :     0.000000
      g-2     :     0.000000
      g+3     :     0.000000
      g-3     :    -0.000000
      g+4     :    -0.000000
      g-4     :     0.000000


                     *******************************
                     * LOEWDIN POPULATION ANALYSIS *
                     *******************************

-------------------------------------------
LOEWDIN ATOMIC CHARGES AND SPIN POPULATIONS
-------------------------------------------
   0 Cu:   -0.020761    0.407211
   1 Cu:    0.010497    0.296598
   2 Cu:    0.010263    0.296191

----------------------------------------------------
LOEWDIN REDUCED ORBITAL CHARGES AND SPIN POPULATIONS
----------------------------------------------------
CHARGE
  0 Cus       :     6.680371  s :     6.680371
      pz      :     4.009169  p :    12.354633
      px      :     4.021397
      py      :     4.324066
      dz2     :     2.014376  d :     9.985461
      dxz     :     1.997368
      dyz     :     1.988903
      dx2y2   :     2.009108
      dxy     :     1.975706
      f0      :     0.000024  f :     0.000295
      f+1     :     0.000016
      f-1     :     0.000056
      f+2     :     0.000016
      f-2     :     0.000030
      f+3     :     0.000092
      f-3     :     0.000060
      g0      :     0.000000  g :     0.000001
      g+1     :     0.000000
      g-1     :     0.000000
      g+2     :     0.000000
      g-2     :     0.000000
      g+3     :     0.000000
      g-3     :     0.000000
      g+4     :     0.000000
      g-4     :     0.000000
  1 Cus       :     6.548308  s :     6.548308
      pz      :     4.013357  p :    12.418056
      px      :     4.134612
      py      :     4.270087
      dz2     :     2.012999  d :    10.022581
      dxz     :     1.992024
      dyz     :     1.996685
      dx2y2   :     2.011271
      dxy     :     2.009601
      f0      :     0.000048  f :     0.000557
      f+1     :     0.000080
      f-1     :     0.000035
      f+2     :     0.000068
      f-2     :     0.000034
      f+3     :     0.000176
      f-3     :     0.000116
      g0      :     0.000000  g :     0.000002
      g+1     :     0.000000
      g-1     :     0.000000
      g+2     :     0.000000
      g-2     :     0.000000
      g+3     :     0.000000
      g-3     :     0.000000
      g+4     :     0.000000
      g-4     :     0.000000
  2 Cus       :     6.547207  s :     6.547207
      pz      :     4.013394  p :    12.419027
      px      :     4.134910
      py      :     4.270724
      dz2     :     2.012989  d :    10.022942
      dxz     :     1.992047
      dyz     :     1.996681
      dx2y2   :     2.011654
      dxy     :     2.009571
      f0      :     0.000048  f :     0.000558
      f+1     :     0.000081
      f-1     :     0.000035
      f+2     :     0.000068
      f-2     :     0.000034
      f+3     :     0.000177
      f-3     :     0.000116
      g0      :     0.000000  g :     0.000002
      g+1     :     0.000000
      g-1     :     0.000000
      g+2     :     0.000000
      g-2     :     0.000000
      g+3     :     0.000000
      g-3     :     0.000000
      g+4     :     0.000000
      g-4     :     0.000000

SPIN
  0 Cus       :     0.262430  s :     0.262430
      pz      :     0.000210  p :     0.120043
      px      :    -0.000628
      py      :     0.120460
      dz2     :     0.004109  d :     0.024727
      dxz     :    -0.000060
      dyz     :     0.000734
      dx2y2   :     0.014832
      dxy     :     0.005111
      f0      :     0.000000  f :     0.000012
      f+1     :     0.000000
      f-1     :     0.000005
      f+2     :     0.000001
      f-2     :     0.000000
      f+3     :     0.000003
      f-3     :     0.000003
      g0      :     0.000000  g :     0.000000
      g+1     :     0.000000
      g-1     :     0.000000
      g+2     :     0.000000
      g-2     :     0.000000
      g+3     :    -0.000000
      g-3     :     0.000000
      g+4     :    -0.000000
      g-4     :     0.000000
  1 Cus       :     0.055277  s :     0.055277
      pz      :    -0.000065  p :     0.205382
      px      :     0.003172
      py      :     0.202275
      dz2     :     0.003738  d :     0.035915
      dxz     :    -0.000268
      dyz     :    -0.000104
      dx2y2   :     0.016104
      dxy     :     0.016445
      f0      :     0.000000  f :     0.000024
      f+1     :    -0.000001
      f-1     :     0.000006
      f+2     :    -0.000000
      f-2     :     0.000000
      f+3     :     0.000020
      f-3     :    -0.000001
      g0      :     0.000000  g :     0.000000
      g+1     :     0.000000
      g-1     :     0.000000
      g+2     :     0.000000
      g-2     :     0.000000
      g+3     :     0.000000
      g-3     :     0.000000
      g+4     :     0.000000
      g-4     :     0.000000
  2 Cus       :     0.053511  s :     0.053511
      pz      :    -0.000069  p :     0.206549
      px      :     0.003640
      py      :     0.202979
      dz2     :     0.003735  d :     0.036106
      dxz     :    -0.000272
      dyz     :    -0.000109
      dx2y2   :     0.016404
      dxy     :     0.016348
      f0      :     0.000000  f :     0.000025
      f+1     :    -0.000001
      f-1     :     0.000006
      f+2     :    -0.000000
      f-2     :     0.000000
      f+3     :     0.000020
      f-3     :    -0.000001
      g0      :     0.000000  g :     0.000000
      g+1     :     0.000000
      g-1     :     0.000000
      g+2     :     0.000000
      g-2     :     0.000000
      g+3     :     0.000000
      g-3     :     0.000000
      g+4     :     0.000000
      g-4     :     0.000000


                      *****************************
                      * MAYER POPULATION ANALYSIS *
                      *****************************

  NA   - Mulliken gross atomic population
  ZA   - Total nuclear charge
  QA   - Mulliken gross atomic charge
  VA   - Mayer's total valence
  BVA  - Mayer's bonded valence
  FA   - Mayer's free valence

  ATOM       NA         ZA         QA         VA         BVA        FA
  0 Cu    29.0996    29.0000    -0.0996     1.1750     0.7250     0.4500
  1 Cu    28.9509    29.0000     0.0491     1.2960     1.1966     0.0994
  2 Cu    28.9496    29.0000     0.0504     1.2964     1.1991     0.0974

  Mayer bond orders larger than 0.100000
B(  0-Cu,  1-Cu) :   0.3613 B(  0-Cu,  2-Cu) :   0.3638 B(  1-Cu,  2-Cu) :   0.8353 


-------
TIMINGS
-------

Total SCF time: 0 days 0 hours 0 min 6 sec 

Total time                  ....       6.633 sec
Sum of individual times     ....       6.341 sec  ( 95.6%)

Fock matrix formation       ....       5.891 sec  ( 88.8%)
  XC integration            ....       0.382 sec  (  6.5% of F)
    Basis function eval.    ....       0.042 sec  ( 11.0% of XC)
    Density eval.           ....       0.048 sec  ( 12.6% of XC)
    XC-Functional eval.     ....       0.021 sec  (  5.4% of XC)
    XC-Potential eval.      ....       0.071 sec  ( 18.5% of XC)
Diagonalization             ....       0.093 sec  (  1.4%)
Density matrix formation    ....       0.015 sec  (  0.2%)
Population analysis         ....       0.015 sec  (  0.2%)
Initial guess               ....       0.025 sec  (  0.4%)
Orbital Transformation      ....       0.000 sec  (  0.0%)
Orbital Orthonormalization  ....       0.017 sec  (  0.3%)
DIIS solution               ....       0.027 sec  (  0.4%)
Grid generation             ....       0.277 sec  (  4.2%)

-------------------------   --------------------
FINAL SINGLE POINT ENERGY     -4921.067877205180
-------------------------   --------------------

                                *** OPTIMIZATION RUN DONE ***

                            ***************************************
                            *     ORCA property calculations      *
                            ***************************************

                                    ---------------------
                                    Active property flags
                                    ---------------------
   (+) Dipole Moment


------------------------------------------------------------------------------
                       ORCA ELECTRIC PROPERTIES CALCULATION
------------------------------------------------------------------------------

Dipole Moment Calculation                       ... on
Quadrupole Moment Calculation                   ... off
Polarizability Calculation                      ... off
GBWName                                         ... Cu03N0_D3H.gbw
Electron density file                           ... Cu03N0_D3H.scfp
The origin for moment calculation is the CENTER OF MASS  = (-0.000000,  0.000000  0.000000)

-------------
DIPOLE MOMENT
-------------
                                X             Y             Z
Electronic contribution:     -0.00115      -0.35919       0.00000
Nuclear contribution   :      0.00000       0.00000       0.00000
                        -----------------------------------------
Total Dipole Moment    :     -0.00115      -0.35919       0.00000
                        -----------------------------------------
Magnitude (a.u.)       :      0.35920
Magnitude (Debye)      :      0.91301



--------------------
Rotational spectrum 
--------------------
 
Rotational constants in cm-1:     0.100883     0.082617     0.045420 
Rotational constants in MHz :  3024.383701  2476.787062  1361.665497 

 Dipole components along the rotational axes: 
x,y,z [a.u.] :     0.359187     0.002677     0.000000 
x,y,z [Debye]:     0.912980     0.006804     0.000000 

 

----------------------------------------------------------------------------
                           ORCA NUMERICAL FREQUENCIES
                              (24-process run)
----------------------------------------------------------------------------

Number of atoms                ... 3
Central differences            ... used
Number of displacements        ... 18
Numerical increment            ... 5.000e-03 bohr
IR-spectrum generation         ... on
Raman-spectrum generation      ... off
Surface Crossing Hessian       ... off

 WARNING: There are more processes than displacements to do
  ====> : Reducing number of processes to   9

The output will be reduced. Please look at the following files:
SCF program output             ... >Cu03N0_D3H.lastscf
Integral program output        ... >Cu03N0_D3H.lastint
Gradient program output        ... >Cu03N0_D3H.lastgrad
Dipole moment program output   ... >Cu03N0_D3H.lastmom
AutoCI program output          ... >Cu03N0_D3H.lastautoci


         <<< Energy and Gradient at the input geometry >>>

        <<< Energy and Gradient at displaced geometries >>>
             <<<Displacing   1/coordinate 1 (+)>>>
             <<<Displacing   1/coordinate 2 (+)>>>
             <<<Displacing   1/coordinate 3 (+)>>>
             <<<Displacing   2/coordinate 2 (+)>>>
             <<<Displacing   2/coordinate 3 (+)>>>
             <<<Displacing   3/coordinate 2 (+)>>>
             <<<Displacing   2/coordinate 1 (+)>>>
             <<<Displacing   3/coordinate 1 (+)>>>
             <<<Displacing   3/coordinate 3 (+)>>>
             <<<Displacing   1/coordinate 3 (-)>>>
             <<<Displacing   3/coordinate 3 (-)>>>
             <<<Displacing   2/coordinate 3 (-)>>>
             <<<Displacing   1/coordinate 2 (-)>>>
             <<<Displacing   2/coordinate 2 (-)>>>
             <<<Displacing   2/coordinate 1 (-)>>>
             <<<Displacing   1/coordinate 1 (-)>>>
             <<<Displacing   3/coordinate 2 (-)>>>
             <<<Displacing   3/coordinate 1 (-)>>>

-----------------------
VIBRATIONAL FREQUENCIES
-----------------------

Scaling factor for frequencies =  1.000000000 (already applied!)

   0:         0.00 cm**-1
   1:         0.00 cm**-1
   2:         0.00 cm**-1
   3:         0.00 cm**-1
   4:         0.00 cm**-1
   5:         0.00 cm**-1
   6:      -107.47 cm**-1 ***imaginary mode***
   7:       168.42 cm**-1
   8:       254.46 cm**-1


------------
NORMAL MODES
------------

These modes are the cartesian displacements weighted by the diagonal matrix
M(i,i)=1/sqrt(m[i]) where m[i] is the mass of the displaced atom
Thus, these vectors are normalized but *not* orthogonal

                  0          1          2          3          4          5    
      0       0.000000   0.000000   0.000000   0.000000   0.000000   0.000000
      1       0.000000   0.000000   0.000000   0.000000   0.000000   0.000000
      2       0.000000   0.000000   0.000000   0.000000   0.000000   0.000000
      3       0.000000   0.000000   0.000000   0.000000   0.000000   0.000000
      4       0.000000   0.000000   0.000000   0.000000   0.000000   0.000000
      5       0.000000   0.000000   0.000000   0.000000   0.000000   0.000000
      6       0.000000   0.000000   0.000000   0.000000   0.000000   0.000000
      7       0.000000   0.000000   0.000000   0.000000   0.000000   0.000000
      8       0.000000   0.000000   0.000000   0.000000   0.000000   0.000000
                   6          7          8    
      0       0.547858  -0.002193   0.000896
      1       0.002596   0.793462   0.192558
      2       0.000000   0.000000   0.000000
      3      -0.275481  -0.165659   0.686713
      4       0.522993  -0.398452  -0.095661
      5       0.000000   0.000000   0.000000
      6      -0.272377   0.167852  -0.687609
      7      -0.525589  -0.395009  -0.096897
      8       0.000000   0.000000   0.000000


-----------
IR SPECTRUM  
-----------

 Mode    freq (cm**-1)   T**2         TX         TY         TZ
-------------------------------------------------------------------
   7:       168.42    0.184417  (  0.011132  -0.429294   0.000000)
   8:       254.46    1.863841  ( -0.024910  -1.364998  -0.000011)

The first frequency considered to be a vibration is 7
The total number of vibrations considered is 2


--------------------------
THERMOCHEMISTRY AT 298.15K
--------------------------

Temperature         ... 298.15 K
Pressure            ... 1.00 atm
Total Mass          ... 190.65 AMU

Throughout the following assumptions are being made:
  (1) The electronic state is orbitally nondegenerate
      but the spin degeneracy is treated
  (2) There are no thermally accessible electronically excited states
  (3) Hindered rotations indicated by low frequency modes are not
      treated as such but are treated as vibrations and this may
      cause some error
  (4) All equations used are the standard statistical mechanics
      equations for an ideal gas
  (5) All vibrations are strictly harmonic

freq.     168.42  E(vib)   ...       0.38 
freq.     254.46  E(vib)   ...       0.30 

------------
INNER ENERGY
------------

The inner energy is: U= E(el) + E(ZPE) + E(vib) + E(rot) + E(trans)
    E(el)   - is the total energy from the electronic structure calculation
              = E(kin-el) + E(nuc-el) + E(el-el) + E(nuc-nuc)
    E(ZPE)  - the the zero temperature vibrational energy from the frequency calculation
    E(vib)  - the the finite temperature correction to E(ZPE) due to population
              of excited vibrational states
    E(rot)  - is the rotational thermal energy
    E(trans)- is the translational thermal energy

Summary of contributions to the inner energy U:
Electronic energy                ...  -4921.06787721 Eh
Zero point energy                ...      0.00096339 Eh       0.60 kcal/mol
Thermal vibrational correction   ...      0.00109219 Eh       0.69 kcal/mol
Thermal rotational correction    ...      0.00141627 Eh       0.89 kcal/mol
Thermal translational correction ...      0.00141627 Eh       0.89 kcal/mol
-----------------------------------------------------------------------
Total thermal energy                  -4921.06298908 Eh


Summary of corrections to the electronic energy:
(perhaps to be used in another calculation)
Total thermal correction                  0.00392474 Eh       2.46 kcal/mol
Non-thermal (ZPE) correction              0.00096339 Eh       0.60 kcal/mol
-----------------------------------------------------------------------
Total correction                          0.00488813 Eh       3.07 kcal/mol


--------
ENTHALPY
--------

The enthalpy is H = U + kB*T
                kB is Boltzmann's constant
Total free energy                 ...  -4921.06298908 Eh 
Thermal Enthalpy correction       ...      0.00094421 Eh       0.59 kcal/mol
-----------------------------------------------------------------------
Total Enthalpy                    ...  -4921.06204487 Eh


Note: Rotational entropy computed according to Herzberg 
Infrared and Raman Spectra, Chapter V,1, Van Nostrand Reinhold, 1945 
Point Group:  Cs, Symmetry Number:   1  
Rotational constants in cm-1:     0.100883     0.082617     0.045420 

Vibrational entropy computed according to the QRRHO of S. Grimme
Chem.Eur.J. 2012 18 9955


-------
ENTROPY
-------

The entropy contributions are T*S = T*(S(el)+S(vib)+S(rot)+S(trans))
     S(el)   - electronic entropy
     S(vib)  - vibrational entropy
     S(rot)  - rotational entropy
     S(trans)- translational entropy
The entropies will be listed as mutliplied by the temperature to get
units of energy

Electronic entropy                ...      0.00065446 Eh      0.41 kcal/mol
Vibrational entropy               ...      0.00196946 Eh      1.24 kcal/mol
Rotational entropy                ...      0.01323048 Eh      8.30 kcal/mol
Translational entropy             ...      0.01978512 Eh     12.42 kcal/mol
-----------------------------------------------------------------------
Final entropy term                ...      0.03563952 Eh     22.36 kcal/mol

In case the symmetry of your molecule has not been determined correctly
or in case you have a reason to use a different symmetry number we print 
out the resulting rotational entropy values for sn=1,12 :
 --------------------------------------------------------
|  sn= 1 | S(rot)=       0.01323048 Eh      8.30 kcal/mol|
|  sn= 2 | S(rot)=       0.01257602 Eh      7.89 kcal/mol|
|  sn= 3 | S(rot)=       0.01219319 Eh      7.65 kcal/mol|
|  sn= 4 | S(rot)=       0.01192156 Eh      7.48 kcal/mol|
|  sn= 5 | S(rot)=       0.01171088 Eh      7.35 kcal/mol|
|  sn= 6 | S(rot)=       0.01153873 Eh      7.24 kcal/mol|
|  sn= 7 | S(rot)=       0.01139318 Eh      7.15 kcal/mol|
|  sn= 8 | S(rot)=       0.01126711 Eh      7.07 kcal/mol|
|  sn= 9 | S(rot)=       0.01115590 Eh      7.00 kcal/mol|
|  sn=10 | S(rot)=       0.01105642 Eh      6.94 kcal/mol|
|  sn=11 | S(rot)=       0.01096643 Eh      6.88 kcal/mol|
|  sn=12 | S(rot)=       0.01088427 Eh      6.83 kcal/mol|
 --------------------------------------------------------


-------------------
GIBBS FREE ENERGY
-------------------

The Gibbs free energy is G = H - T*S

Total enthalpy                    ...  -4921.06204487 Eh 
Total entropy correction          ...     -0.03563952 Eh    -22.36 kcal/mol
-----------------------------------------------------------------------
Final Gibbs free energy         ...  -4921.09768438 Eh

For completeness - the Gibbs free energy minus the electronic energy
G-E(el)                           ...     -0.02980718 Eh    -18.70 kcal/mol


Total Time for Numerical Frequencies  :      5323.290 sec

Timings for individual modules:

Sum of individual times         ...     6578.497 sec (= 109.642 min)
GTO integral calculation        ...        9.871 sec (=   0.165 min)   0.2 %
SCF iterations                  ...      142.342 sec (=   2.372 min)   2.2 %
SCF Gradient evaluation         ...     6425.904 sec (= 107.098 min)  97.7 %
Geometry relaxation             ...        0.380 sec (=   0.006 min)   0.0 %
                             ****ORCA TERMINATED NORMALLY****
TOTAL RUN TIME: 0 days 3 hours 10 minutes 35 seconds 611 msec
