
                                 *****************
                                 * O   R   C   A *
                                 *****************

           --- An Ab Initio, DFT and Semiempirical electronic structure package ---

                  #######################################################
                  #                        -***-                        #
                  #          Department of theory and spectroscopy      #
                  #               Directorship: Frank Neese             #
                  #        Max Planck Institute fuer Kohlenforschung    #
                  #                Kaiser Wilhelm Platz 1               #
                  #                 D-45470 Muelheim/Ruhr               #
                  #                      Germany                        #
                  #                                                     #
                  #                  All rights reserved                #
                  #                        -***-                        #
                  #######################################################


                         Program Version 4.2.0 -  RELEASE  -


 With contributions from (in alphabetic order):
   Daniel Aravena         : Magnetic Suceptibility
   Michael Atanasov       : Ab Initio Ligand Field Theory (pilot matlab implementation)
   Alexander A. Auer      : GIAO ZORA, VPT2
   Ute Becker             : Parallelization
   Giovanni Bistoni       : ED, misc. LED, open-shell LED, HFLED
   Martin Brehm           : Molecular dynamics
   Dmytro Bykov           : SCF Hessian
   Vijay G. Chilkuri      : MRCI spin determinant printing, contributions to CSF-ICE
   Dipayan Datta          : RHF DLPNO-CCSD density
   Achintya Kumar Dutta   : EOM-CC, STEOM-CC
   Dmitry Ganyushin       : Spin-Orbit,Spin-Spin,Magnetic field MRCI
   Miquel Garcia          : C-PCM Hessian, Gaussian charge scheme
   Yang Guo               : DLPNO-NEVPT2, CIM, IAO-localization
   Andreas Hansen         : Spin unrestricted coupled pair/coupled cluster methods
   Benjamin Helmich-Paris : CASSCF linear response (MC-RPA)
   Lee Huntington         : MR-EOM, pCC
   Robert Izsak           : Overlap fitted RIJCOSX, COSX-SCS-MP3, EOM
   Christian Kollmar      : KDIIS, OOCD, Brueckner-CCSD(T), CCSD density
   Simone Kossmann        : Meta GGA functionals, TD-DFT gradient, OOMP2, MP2 Hessian
   Martin Krupicka        : AUTO-CI
   Lucas Lang             : DCDCAS
   Dagmar Lenk            : GEPOL surface, SMD
   Dimitrios Liakos       : Extrapolation schemes; Compound Job, initial MDCI parallelization
   Dimitrios Manganas     : Further ROCIS development; embedding schemes
   Dimitrios Pantazis     : SARC Basis sets
   Taras Petrenko         : DFT Hessian,TD-DFT gradient, ASA, ECA, R-Raman, ABS, FL, XAS/XES, NRVS
   Peter Pinski           : DLPNO-MP2, DLPNO-MP2 Gradient
   Christoph Reimann      : Effective Core Potentials
   Marius Retegan         : Local ZFS, SOC
   Christoph Riplinger    : Optimizer, TS searches, QM/MM, DLPNO-CCSD(T), (RO)-DLPNO pert. Triples
   Tobias Risthaus        : Range-separated hybrids, TD-DFT gradient, RPA, STAB
   Michael Roemelt        : Original ROCIS implementation
   Masaaki Saitow         : Open-shell DLPNO-CCSD energy and density
   Barbara Sandhoefer     : DKH picture change effects
   Avijit Sen             : IP-ROCIS
   Kantharuban Sivalingam : CASSCF convergence, NEVPT2, FIC-MRCI
   Bernardo de Souza      : ESD, SOC TD-DFT
   Georgi Stoychev        : AutoAux, RI-MP2 NMR
   Willem Van den Heuvel  : Paramagnetic NMR
   Boris Wezisla          : Elementary symmetry handling
   Frank Wennmohs         : Technical directorship


 We gratefully acknowledge several colleagues who have allowed us to
 interface, adapt or use parts of their codes:
   Stefan Grimme, W. Hujo, H. Kruse,             : VdW corrections, initial TS optimization,
                  C. Bannwarth                     DFT functionals, gCP, sTDA/sTD-DF
   Ed Valeev, F. Pavosevic, A. Kumar             : LibInt (2-el integral package), F12 methods
   Garnet Chan, S. Sharma, J. Yang, R. Olivares  : DMRG
   Ulf Ekstrom                                   : XCFun DFT Library
   Mihaly Kallay                                 : mrcc  (arbitrary order and MRCC methods)
   Andreas Klamt, Michael Diedenhofen            : otool_cosmo (COSMO solvation model)
   Jiri Pittner, Ondrej Demel                    : Mk-CCSD
   Frank Weinhold                                : gennbo (NPA and NBO analysis)
   Christopher J. Cramer and Donald G. Truhlar   : smd solvation model
   Lars Goerigk                                  : TD-DFT with DH, B97 family of functionals
   V. Asgeirsson, H. Jonsson                     : NEB implementation
   FAccTs GmbH                                   : IRC, NEB, NEB-TS, Multilevel, MM, QM/MM, CI optimization
   S Lehtola, MJT Oliveira, MAL Marques          : LibXC Library


 Your calculation uses the libint2 library for the computation of 2-el integrals
 For citations please refer to: http://libint.valeyev.net

 Your ORCA version has been built with support for libXC version: 4.2.3
 For citations please refer to: https://tddft.org/programs/libxc/

 This ORCA versions uses:
   CBLAS   interface :  Fast vector & matrix operations
   LAPACKE interface :  Fast linear algebra routines
   SCALAPACK package :  Parallel linear algebra routines


Your calculation utilizes the DFT-NL dispersion correction.
Cite in your paper:
Vydrov, O. A.; Van Voorhis, T. J. Chem. Phys. 2010, 133, 244103
Hujo, W.; Grimme, S. J. Chem. Theory Comput. 2011, 7, 3866 
   

----- Orbital basis set information -----
Your calculation utilizes the basis: def2-TZVPPD
   F. Weigend and R. Ahlrichs, Phys. Chem. Chem. Phys. 7, 3297 (2005).
   D. Rappoport and F. Furche, J. Chem. Phys. 133 134105 (2010).

----- AuxJK basis set information -----
Your calculation utilizes the auxiliary basis: def2/JK
   H-Ba, Hf-Rn: F. Weigend, J. Comput. Chem. 29, 167 (2008).

================================================================================
                                        WARNINGS
                       Please study these warnings very carefully!
================================================================================


WARNING: Geometry Optimization
  ===> : Switching off AutoStart
         For restart on a previous wavefunction, please use MOREAD

INFO   : the flag for use of LIBINT has been found!

================================================================================
                                       INPUT FILE
================================================================================
NAME = Cu03C1_D3H.in
|  1> #
|  2> # Cu03C1_D3H wB97X-V/Def2-TZVPPD
|  3> #
|  4> ! wb97x-v def2-tzvppd def2/jk grid4 nofinalgrid opt xyzfile numfreq numgrad
|  5> 
|  6> *xyz 1 1
|  7> Cu       0.000000    1.349261   -0.000000 
|  8> Cu       1.168494   -0.674630    0.000000 
|  9> Cu      -1.168494   -0.674630   -0.000000 
| 10> *
| 11> 
| 12> %maxcore 5000
| 13> 
| 14> %pal
| 15> nprocs = 24
| 16> end
| 17> 
| 18> 
| 19>                          ****END OF INPUT****
================================================================================

                       *****************************
                       * Geometry Optimization Run *
                       *****************************

Geometry optimization settings:
Update method            Update   .... BFGS
Choice of coordinates    CoordSys .... Z-matrix Internals
Initial Hessian          InHess   .... Almoef's Model

Convergence Tolerances:
Energy Change            TolE     ....  5.0000e-06 Eh
Max. Gradient            TolMAXG  ....  3.0000e-04 Eh/bohr
RMS Gradient             TolRMSG  ....  1.0000e-04 Eh/bohr
Max. Displacement        TolMAXD  ....  4.0000e-03 bohr
RMS Displacement         TolRMSD  ....  2.0000e-03 bohr
Strict Convergence                ....  False
------------------------------------------------------------------------------
                        ORCA OPTIMIZATION COORDINATE SETUP
------------------------------------------------------------------------------

The optimization will be done in new redundant internal coordinates
Making redundant internal coordinates   ...  (new redundants) done
Evaluating the initial hessian          ...  (Almloef) done
Evaluating the coordinates              ...  done
Calculating the B-matrix                .... done
Calculating the G-matrix                .... done
Diagonalizing the G-matrix              .... done
The first mode is                       ....    3
The number of degrees of freedom        ....    3

    -----------------------------------------------------------------
                    Redundant Internal Coordinates


    -----------------------------------------------------------------
         Definition                    Initial Value    Approx d2E/dq
    -----------------------------------------------------------------
      1. B(Cu  1,Cu  0)                  2.3370         1.973010   
      2. B(Cu  2,Cu  1)                  2.3370         1.973010   
      3. B(Cu  2,Cu  0)                  2.3370         1.973010   
      4. A(Cu  1,Cu  0,Cu  2)           60.0000         1.051884   
      5. A(Cu  0,Cu  1,Cu  2)           60.0000         1.051884   
      6. A(Cu  0,Cu  2,Cu  1)           60.0000         1.051884   
    -----------------------------------------------------------------

Number of atoms                         .... 3
Number of degrees of freedom            .... 6

         *************************************************************
         *                GEOMETRY OPTIMIZATION CYCLE   1            *
         *************************************************************
---------------------------------
CARTESIAN COORDINATES (ANGSTROEM)
---------------------------------
  Cu     0.000000    1.349261   -0.000000
  Cu     1.168494   -0.674630    0.000000
  Cu    -1.168494   -0.674630   -0.000000

----------------------------
CARTESIAN COORDINATES (A.U.)
----------------------------
  NO LB      ZA    FRAG     MASS         X           Y           Z
   0 Cu   29.0000    0    63.550    0.000000    2.549734   -0.000000
   1 Cu   29.0000    0    63.550    2.208134   -1.274866    0.000000
   2 Cu   29.0000    0    63.550   -2.208134   -1.274866   -0.000000

--------------------------------
INTERNAL COORDINATES (ANGSTROEM)
--------------------------------
 Cu     0   0   0     0.000000000000     0.00000000     0.00000000
 Cu     1   0   0     2.336988020491     0.00000000     0.00000000
 Cu     2   1   0     2.336988000000    60.00000029     0.00000000

---------------------------
INTERNAL COORDINATES (A.U.)
---------------------------
 Cu     0   0   0     0.000000000000     0.00000000     0.00000000
 Cu     1   0   0     4.416267336982     0.00000000     0.00000000
 Cu     2   1   0     4.416267298260    60.00000029     0.00000000

---------------------
BASIS SET INFORMATION
---------------------
There are 1 groups of distinct atoms

 Group   1 Type Cu  : 17s13p7d2f1g contracted to 6s6p4d2f1g pattern {842111/631111/4111/11/1}

Atom   0Cu   basis set group =>   1
Atom   1Cu   basis set group =>   1
Atom   2Cu   basis set group =>   1
----------------------------------
AUXILIARY/JK BASIS SET INFORMATION
----------------------------------
There are 1 groups of distinct atoms

 Group   1 Type Cu  : 19s14p12d10f7g3h1i contracted to 16s13p11d9f5g3h1i pattern {4111111111111111/2111111111111/21111111111/211111111/31111/111/1}

Atom   0Cu   basis set group =>   1
Atom   1Cu   basis set group =>   1
Atom   2Cu   basis set group =>   1


           ************************************************************
           *        Program running with 24 parallel MPI-processes    *
           *              working on a common directory               *
           ************************************************************
------------------------------------------------------------------------------
                           ORCA GTO INTEGRAL CALCULATION
------------------------------------------------------------------------------

                         BASIS SET STATISTICS AND STARTUP INFO

 # of primitive gaussian shells          ...  120
 # of primitive gaussian functions       ...  342
 # of contracted shells                  ...   57
 # of contracted basis functions         ...  201
 Highest angular momentum                ...    4
 Maximum contraction depth               ...    8
 Integral package used                   ... LIBINT
 Integral threshhold            Thresh   ...  2.500e-11
 Primitive cut-off              TCut     ...  2.500e-12


------------------------------ INTEGRAL EVALUATION ----------------------------


 * One electron integrals 
 Pre-screening matrix                    ... done
 Shell pair data                         ... done (   0.000 sec)



           ************************************************************
           *        Program running with 24 parallel MPI-processes    *
           *              working on a common directory               *
           ************************************************************
-------------------------------------------------------------------------------
                                 ORCA SCF
-------------------------------------------------------------------------------

------------
SCF SETTINGS
------------
Hamiltonian:
 Density Functional     Method          .... DFT(GTOs)
 Exchange Functional    Exchange        .... WB97X-V
 Correlation Functional Correlation     .... WB97X-V
 Gradients option       PostSCFGGA      .... off
 Hybrid DFT is turned on
   Fraction HF Exchange ScalHFX         ....  0.167000
   Scaling of DF-GGA-X  ScalDFX         ....  0.000000
   Scaling of DF-GGA-C  ScalDFC         ....  1.000000
   Scaling of DF-LDA-C  ScalLDAC        ....  1.000000
   Perturbative correction              ....  0.000000
   Density functional embedding theory  .... OFF
 Long-range corrected/Screened/Range-Separated Hybrid DFT is turned on
   Amount of maximum screened exact exchange              ....  0.833000
   Range separation parameter mu (erf(mu*r12)/r12)        ....  0.300000
   NL short-range parameter             ....  6.000000
   NL long-range parameter              ....  0.010000


General Settings:
 Integral files         IntName         .... Cu03C1_D3H
 Hartree-Fock type      HFTyp           .... RHF
 Total Charge           Charge          ....    1
 Multiplicity           Mult            ....    1
 Number of Electrons    NEL             ....   86
 Basis Dimension        Dim             ....  201
 Nuclear Repulsion      ENuc            ....    571.2969380830 Eh

Convergence Acceleration:
 DIIS                   CNVDIIS         .... on
   Start iteration      DIISMaxIt       ....    12
   Startup error        DIISStart       ....  0.200000
   # of expansion vecs  DIISMaxEq       ....     5
   Bias factor          DIISBfac        ....   1.050
   Max. coefficient     DIISMaxC        ....  10.000
 Newton-Raphson         CNVNR           .... off
 SOSCF                  CNVSOSCF        .... off
 Level Shifting         CNVShift        .... on
   Level shift para.    LevelShift      ....    0.2500
   Turn off err/grad.   ShiftErr        ....    0.0010
 Zerner damping         CNVZerner       .... off
 Static damping         CNVDamp         .... on
   Fraction old density DampFac         ....    0.7000
   Max. Damping (<1)    DampMax         ....    0.9800
   Min. Damping (>=0)   DampMin         ....    0.0000
   Turn off err/grad.   DampErr         ....    0.1000
 Fernandez-Rico         CNVRico         .... off

SCF Procedure:
 Maximum # iterations   MaxIter         ....   125
 SCF integral mode      SCFMode         .... Direct
   Integral package                     .... LIBINT
 Reset frequency        DirectResetFreq ....    20
 Integral Threshold     Thresh          ....  2.500e-11 Eh
 Primitive CutOff       TCut            ....  2.500e-12 Eh

Convergence Tolerance:
 Convergence Check Mode ConvCheckMode   .... Total+1el-Energy
 Convergence forced     ConvForced      .... 0
 Energy Change          TolE            ....  1.000e-08 Eh
 1-El. energy change                    ....  1.000e-05 Eh
 DIIS Error             TolErr          ....  5.000e-07


Diagonalization of the overlap matrix:
Smallest eigenvalue                        ... 7.677e-04
Time for diagonalization                   ...    0.010 sec
Threshold for overlap eigenvalues          ... 1.000e-08
Number of eigenvalues below threshold      ... 0
Time for construction of square roots      ...    0.005 sec
Total time needed                          ...    0.016 sec

-------------------
DFT GRID GENERATION
-------------------

General Integration Accuracy     IntAcc      ...  4.670
Radial Grid Type                 RadialGrid  ... Gauss-Chebyshev
Angular Grid (max. acc.)         AngularGrid ... Lebedev-302
Angular grid pruning method      GridPruning ... 3 (G Style)
Weight generation scheme         WeightScheme... Becke
Basis function cutoff            BFCut       ...    1.0000e-11
Integration weight cutoff        WCut        ...    1.0000e-14
Grids for H and He will be reduced by one unit

# of grid points (after initial pruning)     ...  28668 (   0.0 sec)
# of grid points (after weights+screening)   ...  28566 (   0.0 sec)
nearest neighbour list constructed           ...    0.0 sec
Grid point re-assignment to atoms done       ...    0.0 sec
Grid point division into batches done        ...    0.2 sec
Reduced shell lists constructed in    0.2 sec

Total number of grid points                  ...    28566
Total number of batches                      ...      448
Average number of points per batch           ...       63
Average number of grid points per atom       ...     9522
Average number of shells per batch           ...    13.75 (24.12%)
Average number of basis functions per batch  ...    38.75 (19.28%)
Average number of large shells per batch     ...    10.10 (73.45%)
Average number of large basis fcns per batch ...    28.00 (72.26%)
Maximum spatial batch extension              ...  20.08, 17.16, 22.17 au
Average spatial batch extension              ...   0.56,  0.48,  0.54 au

Time for grid setup =    0.267 sec

------------------------------
INITIAL GUESS: MODEL POTENTIAL
------------------------------
Loading Hartree-Fock densities                     ... done
Calculating cut-offs                               ... done
Setting up the integral package                    ... done
Initializing the effective Hamiltonian             ... done
Starting the Coulomb interaction                   ... done (   0.0 sec)
Reading the grid                                   ... done
Mapping shells                                     ... done
Starting the XC term evaluation                    ... done (   0.0 sec)
  promolecular density results
     # of electrons  =     87.000079694
     EX              =   -151.132514667
     EC              =     -5.397331533
     EX+EC           =   -156.529846201
Transforming the Hamiltonian                       ... done (   0.0 sec)
Diagonalizing the Hamiltonian                      ... done (   0.0 sec)
Back transforming the eigenvectors                 ... done (   0.0 sec)
Now organizing SCF variables                       ... done
                      ------------------
                      INITIAL GUESS DONE (   0.4 sec)
                      ------------------
--------------
SCF ITERATIONS
--------------
ITER       Energy         Delta-E        Max-DP      RMS-DP      [F,P]     Damp
               ***  Starting incremental Fock matrix formation  ***
  0  -4912.2987461959   0.000000000000 1.16417542  0.01606266  1.7954668 0.7000
  1  -4916.9848218948  -4.686075698885 0.82544599  0.01084715  0.4932214 0.7000
  2  -4918.4125582153  -1.427736320470 0.57687326  0.00748193  0.2708640 0.7000
  3  -4919.2323675909  -0.819809375602 0.40464626  0.00529681  0.2861390 0.7000
  4  -4919.8183407638  -0.585973172973 0.28503916  0.00375824  0.2014900 0.7000
                               ***Turning on DIIS***
  5  -4920.2331279683  -0.414787204490 0.20097228  0.00266941  0.1256508 0.7000
  6  -4920.5264413261  -0.293313357806 0.47464249  0.00647253  0.0781567 0.0000
  7  -4921.2293001151  -0.702858788965 0.01712928  0.00054707  0.0163745 0.0000
  8  -4921.2303704196  -0.001070304513 0.00540431  0.00017399  0.0250290 0.0000
  9  -4921.2319965249  -0.001626105294 0.00365179  0.00009902  0.0029980 0.0000
 10  -4921.2321551413  -0.000158616365 0.00254225  0.00005494  0.0028055 0.0000
 11  -4921.2322199425  -0.000064801219 0.00222839  0.00004083  0.0015260 0.0000
 12  -4921.2322467830  -0.000026840550 0.00237782  0.00003864  0.0006693 0.0000
 13  -4921.2322582033  -0.000011420224 0.00112544  0.00001739  0.0002801 0.0000
 14  -4921.2322599894  -0.000001786174 0.00038622  0.00000688  0.0005526 0.0000
 15  -4921.2322605658  -0.000000576346 0.00046149  0.00000700  0.0002114 0.0000
 16  -4921.2322607879  -0.000000222111 0.00008280  0.00000141  0.0000315 0.0000
 17  -4921.2322607976  -0.000000009733 0.00005367  0.00000085  0.0000479 0.0000
 18  -4921.2322608041  -0.000000006482 0.00001538  0.00000033  0.0000140 0.0000
 19  -4921.2322608059  -0.000000001775 0.00000440  0.00000012  0.0000033 0.0000
               *** Restarting incremental Fock matrix formation ***
                                   *** Resetting DIIS ***
 20  -4921.2322608065  -0.000000000651 0.00000338  0.00000007  0.0000024 0.0000
 21  -4921.2322608078  -0.000000001251 0.00000334  0.00000006  0.0000056 0.0000
                            ***DIIS convergence achieved***

               *****************************************************
               *                     SUCCESS                       *
               *           SCF CONVERGED AFTER  22 CYCLES          *
               *****************************************************


Setting up the DFT-NL grid :

General Integration Accuracy     IntAcc      ...  4.340
Radial Grid Type                 RadialGrid  ... Gauss-Chebyshev
Angular Grid (max. acc.)         AngularGrid ... Lebedev-110
Angular grid pruning method      GridPruning ... 3 (G Style)
Weight generation scheme         WeightScheme... Becke
Basis function cutoff            BFCut       ...    1.0000e-11
Integration weight cutoff        WCut        ...    1.0000e-14
Grids for H and He will be reduced by one unit

# of grid points (after initial pruning)     ...   8736 (   0.0 sec)
# of grid points (after weights+screening)   ...   8688 (   0.0 sec)
nearest neighbour list constructed           ...    0.0 sec
Grid point re-assignment to atoms done       ...    0.0 sec
Grid point division into batches done        ...    0.0 sec
Reduced shell lists constructed in    0.0 sec

Total number of grid points                  ...     8688
Total number of batches                      ...      137
Average number of points per batch           ...       63
Average number of grid points per atom       ...     2896
Average number of shells per batch           ...    16.71 (29.32%)
Average number of basis functions per batch  ...    49.29 (24.52%)
Average number of large shells per batch     ...    13.71 (82.05%)
Average number of large basis fcns per batch ...    38.00 (77.10%)
Maximum spatial batch extension              ...  32.26, 15.58, 17.81 au
Average spatial batch extension              ...   1.02,  0.65,  0.70 au

Final grid set up in    0.0 sec

-------------------------------------------------------------------------------
                         DFT-NL dispersion correction                          
-------------------------------------------------------------------------------

SC Energy -4921.232260807 
NL    Energy 0.362431549 
SC+NL Energy -4920.869829259 
NL done in    0.0 sec
-------------------------------------------------------------------------------

----------------
TOTAL SCF ENERGY
----------------

Total Energy       :        -4920.86982926 Eh         -133903.67559 eV

Components:
Nuclear Repulsion  :          571.29693808 Eh           15545.78002 eV
Electronic Energy  :        -5492.16676734 Eh         -149449.45560 eV
One Electron Energy:        -7987.70397872 Eh         -217356.47545 eV
Two Electron Energy:         2495.53721138 Eh           67907.01985 eV

Virial components:
Potential Energy   :        -9834.81432078 Eh         -267618.90315 eV
Kinetic Energy     :         4913.94449152 Eh          133715.22756 eV
Virial Ratio       :            2.00140932


DFT components:
N(Alpha)           :       42.999999720886 electrons
N(Beta)            :       42.999999720886 electrons
N(Total)           :       85.999999441772 electrons
E(X)               :     -151.370556574174 Eh       
E(C)               :       -5.400856747363 Eh       
NL Energy, E(C,NL) :        0.362431548539 Eh       
E(XC)              :     -156.408981772997 Eh       
DFET-embed. en.    :        0.000000000000 Eh       

---------------
SCF CONVERGENCE
---------------

  Last Energy change         ...    4.2292e-10  Tolerance :   1.0000e-08
  Last MAX-Density change    ...    3.0468e-06  Tolerance :   1.0000e-07
  Last RMS-Density change    ...    5.9728e-08  Tolerance :   5.0000e-09
  Last DIIS Error            ...    7.0618e-07  Tolerance :   5.0000e-07

             **** THE GBW FILE WAS UPDATED (Cu03C1_D3H.gbw) ****
             **** DENSITY FILE WAS UPDATED (Cu03C1_D3H.scfp) ****
             **** ENERGY FILE WAS UPDATED (Cu03C1_D3H.en.tmp) ****
             **** THE GBW FILE WAS UPDATED (Cu03C1_D3H.gbw) ****
             **** DENSITY FILE WAS UPDATED (Cu03C1_D3H.scfp) ****
----------------
ORBITAL ENERGIES
----------------

  NO   OCC          E(Eh)            E(eV) 
   0   2.0000    -323.057423     -8790.8394 
   1   2.0000    -323.057421     -8790.8393 
   2   2.0000    -323.057413     -8790.8391 
   3   2.0000     -39.036661     -1062.2416 
   4   2.0000     -39.036660     -1062.2415 
   5   2.0000     -39.036608     -1062.2401 
   6   2.0000     -34.234418      -931.5659 
   7   2.0000     -34.234401      -931.5654 
   8   2.0000     -34.234398      -931.5653 
   9   2.0000     -34.233858      -931.5506 
  10   2.0000     -34.233857      -931.5506 
  11   2.0000     -34.233844      -931.5502 
  12   2.0000     -34.232819      -931.5224 
  13   2.0000     -34.232819      -931.5224 
  14   2.0000     -34.232809      -931.5221 
  15   2.0000      -4.588951      -124.8717 
  16   2.0000      -4.588428      -124.8575 
  17   2.0000      -4.588424      -124.8574 
  18   2.0000      -3.087588       -84.0175 
  19   2.0000      -3.085685       -83.9658 
  20   2.0000      -3.085685       -83.9658 
  21   2.0000      -3.083424       -83.9042 
  22   2.0000      -3.082928       -83.8907 
  23   2.0000      -3.082924       -83.8906 
  24   2.0000      -3.081270       -83.8456 
  25   2.0000      -3.080892       -83.8353 
  26   2.0000      -3.080888       -83.8352 
  27   2.0000      -0.625045       -17.0083 
  28   2.0000      -0.604550       -16.4507 
  29   2.0000      -0.604543       -16.4504 
  30   2.0000      -0.603596       -16.4247 
  31   2.0000      -0.590598       -16.0710 
  32   2.0000      -0.586296       -15.9539 
  33   2.0000      -0.586275       -15.9534 
  34   2.0000      -0.567243       -15.4355 
  35   2.0000      -0.567242       -15.4354 
  36   2.0000      -0.564120       -15.3505 
  37   2.0000      -0.562022       -15.2934 
  38   2.0000      -0.561982       -15.2923 
  39   2.0000      -0.560624       -15.2554 
  40   2.0000      -0.560586       -15.2543 
  41   2.0000      -0.543627       -14.7928 
  42   2.0000      -0.522090       -14.2068 
  43   0.0000      -0.196259        -5.3405 
  44   0.0000      -0.196256        -5.3404 
  45   0.0000      -0.144725        -3.9382 
  46   0.0000      -0.107976        -2.9382 
  47   0.0000      -0.085570        -2.3285 
  48   0.0000      -0.085570        -2.3285 
  49   0.0000      -0.050845        -1.3836 
  50   0.0000      -0.050845        -1.3836 
  51   0.0000      -0.037026        -1.0075 
  52   0.0000      -0.037026        -1.0075 
  53   0.0000      -0.001999        -0.0544 
  54   0.0000       0.013885         0.3778 
  55   0.0000       0.014145         0.3849 
  56   0.0000       0.025181         0.6852 
  57   0.0000       0.038022         1.0346 
  58   0.0000       0.038022         1.0346 
  59   0.0000       0.076889         2.0923 
  60   0.0000       0.076890         2.0923 
  61   0.0000       0.096094         2.6148 
  62   0.0000       0.106001         2.8844 
  63   0.0000       0.106002         2.8845 
  64   0.0000       0.119215         3.2440 
  65   0.0000       0.119217         3.2441 
  66   0.0000       0.125666         3.4195 
  67   0.0000       0.134931         3.6717 
  68   0.0000       0.134933         3.6717 
  69   0.0000       0.146018         3.9734 
  70   0.0000       0.195869         5.3299 
  71   0.0000       0.195869         5.3299 
  72   0.0000       0.217080         5.9071 
  73   0.0000       0.230962         6.2848 
  74   0.0000       0.249381         6.7860 
  75   0.0000       0.249382         6.7860 
  76   0.0000       0.253008         6.8847 
  77   0.0000       0.253009         6.8847 
  78   0.0000       0.356350         9.6968 
  79   0.0000       0.396096        10.7783 
  80   0.0000       0.396099        10.7784 
  81   0.0000       0.540794        14.7157 
  82   0.0000       0.543614        14.7925 
  83   0.0000       0.592895        16.1335 
  84   0.0000       0.592896        16.1335 
  85   0.0000       0.646457        17.5910 
  86   0.0000       0.646458        17.5910 
  87   0.0000       0.697846        18.9894 
  88   0.0000       0.704137        19.1605 
  89   0.0000       0.704137        19.1605 
  90   0.0000       0.725215        19.7341 
  91   0.0000       0.758167        20.6308 
  92   0.0000       0.758178        20.6311 
  93   0.0000       0.828655        22.5489 
  94   0.0000       0.840629        22.8747 
  95   0.0000       0.862560        23.4715 
  96   0.0000       0.862563        23.4715 
  97   0.0000       0.942011        25.6334 
  98   0.0000       0.958273        26.0759 
  99   0.0000       0.958283        26.0762 
 100   0.0000       1.003639        27.3104 
 101   0.0000       1.003649        27.3107 
 102   0.0000       1.179754        32.1027 
 103   0.0000       1.179757        32.1028 
 104   0.0000       1.196544        32.5596 
 105   0.0000       2.886347        78.5415 
 106   0.0000       2.942002        80.0559 
 107   0.0000       2.963008        80.6276 
 108   0.0000       2.963012        80.6277 
 109   0.0000       2.994075        81.4729 
 110   0.0000       2.994099        81.4736 
 111   0.0000       3.013759        82.0086 
 112   0.0000       3.013759        82.0086 
 113   0.0000       3.022701        82.2519 
 114   0.0000       3.133550        85.2682 
 115   0.0000       3.296964        89.7150 
 116   0.0000       3.325394        90.4886 
 117   0.0000       3.325748        90.4982 
 118   0.0000       3.325758        90.4985 
 119   0.0000       3.326675        90.5234 
 120   0.0000       3.326693        90.5239 
 121   0.0000       3.345487        91.0353 
 122   0.0000       3.345504        91.0358 
 123   0.0000       3.348910        91.1285 
 124   0.0000       3.351309        91.1937 
 125   0.0000       3.351318        91.1940 
 126   0.0000       3.353630        91.2569 
 127   0.0000       3.357016        91.3490 
 128   0.0000       3.357034        91.3495 
 129   0.0000       3.359007        91.4032 
 130   0.0000       3.362878        91.5086 
 131   0.0000       3.362881        91.5086 
 132   0.0000       3.363501        91.5255 
 133   0.0000       3.363533        91.5264 
 134   0.0000       3.388703        92.2113 
 135   0.0000       3.451993        93.9335 
 136   0.0000       3.509534        95.4993 
 137   0.0000       3.509546        95.4996 
 138   0.0000       3.609302        98.2141 
 139   0.0000       3.609311        98.2143 
 140   0.0000       3.609379        98.2162 
 141   0.0000       3.644996        99.1854 
 142   0.0000       3.660999        99.6208 
 143   0.0000       3.661001        99.6209 
 144   0.0000       3.680906       100.1625 
 145   0.0000       3.731661       101.5437 
 146   0.0000       3.731680       101.5442 
 147   0.0000       3.869407       105.2919 
 148   0.0000       3.869430       105.2925 
 149   0.0000       3.897053       106.0442 
 150   0.0000       3.914012       106.5057 
 151   0.0000       4.157412       113.1289 
 152   0.0000       4.157462       113.1303 
 153   0.0000      12.875280       350.3542 
 154   0.0000      12.875903       350.3711 
 155   0.0000      12.875944       350.3722 
 156   0.0000      12.876081       350.3760 
 157   0.0000      12.877069       350.4029 
 158   0.0000      12.877131       350.4045 
 159   0.0000      12.877150       350.4051 
 160   0.0000      12.877180       350.4059 
 161   0.0000      12.877225       350.4071 
 162   0.0000      12.877882       350.4250 
 163   0.0000      12.878182       350.4331 
 164   0.0000      12.878244       350.4348 
 165   0.0000      12.878946       350.4539 
 166   0.0000      12.879181       350.4603 
 167   0.0000      12.879366       350.4654 
 168   0.0000      12.879647       350.4730 
 169   0.0000      12.879664       350.4735 
 170   0.0000      12.879769       350.4763 
 171   0.0000      12.879838       350.4782 
 172   0.0000      12.880007       350.4828 
 173   0.0000      12.880058       350.4842 
 174   0.0000      12.880372       350.4927 
 175   0.0000      12.880415       350.4939 
 176   0.0000      12.880487       350.4959 
 177   0.0000      12.880488       350.4959 
 178   0.0000      12.880871       350.5063 
 179   0.0000      12.880948       350.5084 
 180   0.0000      13.054045       355.2186 
 181   0.0000      13.054123       355.2208 
 182   0.0000      13.054294       355.2254 
 183   0.0000      13.054495       355.2309 
 184   0.0000      13.054497       355.2309 
 185   0.0000      13.055399       355.2555 
 186   0.0000      13.056715       355.2913 
 187   0.0000      13.056728       355.2916 
 188   0.0000      13.057592       355.3151 
 189   0.0000      13.058239       355.3328 
 190   0.0000      13.058271       355.3336 
 191   0.0000      13.060100       355.3834 
 192   0.0000      13.065054       355.5182 
 193   0.0000      13.068318       355.6070 
 194   0.0000      13.070172       355.6575 
 195   0.0000      13.070180       355.6577 
 196   0.0000      13.073992       355.7614 
 197   0.0000      13.074009       355.7619 
 198   0.0000      13.149815       357.8246 
 199   0.0000      13.154389       357.9491 
 200   0.0000      13.154416       357.9499 

                    ********************************
                    * MULLIKEN POPULATION ANALYSIS *
                    ********************************

-----------------------
MULLIKEN ATOMIC CHARGES
-----------------------
   0 Cu:    0.333328
   1 Cu:    0.333336
   2 Cu:    0.333335
Sum of atomic charges:    1.0000000

--------------------------------
MULLIKEN REDUCED ORBITAL CHARGES
--------------------------------
  0 Cus       :     6.636959  s :     6.636959
      pz      :     4.011160  p :    12.108099
      px      :     4.011227
      py      :     4.085712
      dz2     :     1.991978  d :     9.921364
      dxz     :     1.997179
      dyz     :     1.991575
      dx2y2   :     1.982737
      dxy     :     1.957894
      f0      :     0.000026  f :     0.000249
      f+1     :     0.000010
      f-1     :     0.000042
      f+2     :     0.000025
      f-2     :     0.000035
      f+3     :     0.000049
      f-3     :     0.000062
      g0      :     0.000000  g :     0.000001
      g+1     :     0.000000
      g-1     :     0.000000
      g+2     :     0.000000
      g-2     :     0.000000
      g+3     :     0.000000
      g-3     :     0.000000
      g+4     :     0.000000
      g-4     :     0.000000
  1 Cus       :     6.636955  s :     6.636955
      pz      :     4.011158  p :    12.108088
      px      :     4.067082
      py      :     4.029848
      dz2     :     1.991973  d :     9.921370
      dxz     :     1.992979
      dyz     :     1.995777
      dx2y2   :     1.964122
      dxy     :     1.976520
      f0      :     0.000026  f :     0.000249
      f+1     :     0.000034
      f-1     :     0.000018
      f+2     :     0.000033
      f-2     :     0.000027
      f+3     :     0.000049
      f-3     :     0.000062
      g0      :     0.000000  g :     0.000001
      g+1     :     0.000000
      g-1     :     0.000000
      g+2     :     0.000000
      g-2     :     0.000000
      g+3     :     0.000000
      g-3     :     0.000000
      g+4     :     0.000000
      g-4     :     0.000000
  2 Cus       :     6.636956  s :     6.636956
      pz      :     4.011158  p :    12.108088
      px      :     4.067082
      py      :     4.029848
      dz2     :     1.991973  d :     9.921370
      dxz     :     1.992979
      dyz     :     1.995777
      dx2y2   :     1.964122
      dxy     :     1.976520
      f0      :     0.000026  f :     0.000249
      f+1     :     0.000034
      f-1     :     0.000018
      f+2     :     0.000033
      f-2     :     0.000027
      f+3     :     0.000049
      f-3     :     0.000062
      g0      :     0.000000  g :     0.000001
      g+1     :     0.000000
      g-1     :     0.000000
      g+2     :     0.000000
      g-2     :     0.000000
      g+3     :     0.000000
      g-3     :     0.000000
      g+4     :     0.000000
      g-4     :     0.000000


                     *******************************
                     * LOEWDIN POPULATION ANALYSIS *
                     *******************************

----------------------
LOEWDIN ATOMIC CHARGES
----------------------
   0 Cu:    0.333343
   1 Cu:    0.333329
   2 Cu:    0.333329

-------------------------------
LOEWDIN REDUCED ORBITAL CHARGES
-------------------------------
  0 Cus       :     6.446943  s :     6.446943
      pz      :     4.012022  p :    12.234181
      px      :     4.027806
      py      :     4.194353
      dz2     :     2.013610  d :     9.984944
      dxz     :     1.997142
      dyz     :     1.990672
      dx2y2   :     1.997822
      dxy     :     1.985699
      f0      :     0.000053  f :     0.000587
      f+1     :     0.000033
      f-1     :     0.000089
      f+2     :     0.000038
      f-2     :     0.000072
      f+3     :     0.000176
      f-3     :     0.000126
      g0      :     0.000000  g :     0.000002
      g+1     :     0.000000
      g-1     :     0.000000
      g+2     :     0.000000
      g-2     :     0.000000
      g+3     :     0.000000
      g-3     :     0.000000
      g+4     :     0.000000
      g-4     :     0.000000
  1 Cus       :     6.446946  s :     6.446946
      pz      :     4.012021  p :    12.234184
      px      :     4.152716
      py      :     4.069447
      dz2     :     2.013606  d :     9.984953
      dxz     :     1.992294
      dyz     :     1.995521
      dx2y2   :     1.988748
      dxy     :     1.994784
      f0      :     0.000053  f :     0.000587
      f+1     :     0.000075
      f-1     :     0.000047
      f+2     :     0.000064
      f-2     :     0.000046
      f+3     :     0.000176
      f-3     :     0.000126
      g0      :     0.000000  g :     0.000002
      g+1     :     0.000000
      g-1     :     0.000000
      g+2     :     0.000000
      g-2     :     0.000000
      g+3     :     0.000000
      g-3     :     0.000000
      g+4     :     0.000000
      g-4     :     0.000000
  2 Cus       :     6.446946  s :     6.446946
      pz      :     4.012021  p :    12.234184
      px      :     4.152716
      py      :     4.069447
      dz2     :     2.013606  d :     9.984953
      dxz     :     1.992294
      dyz     :     1.995521
      dx2y2   :     1.988748
      dxy     :     1.994784
      f0      :     0.000053  f :     0.000587
      f+1     :     0.000075
      f-1     :     0.000047
      f+2     :     0.000064
      f-2     :     0.000046
      f+3     :     0.000176
      f-3     :     0.000126
      g0      :     0.000000  g :     0.000002
      g+1     :     0.000000
      g-1     :     0.000000
      g+2     :     0.000000
      g-2     :     0.000000
      g+3     :     0.000000
      g-3     :     0.000000
      g+4     :     0.000000
      g-4     :     0.000000


                      *****************************
                      * MAYER POPULATION ANALYSIS *
                      *****************************

  NA   - Mulliken gross atomic population
  ZA   - Total nuclear charge
  QA   - Mulliken gross atomic charge
  VA   - Mayer's total valence
  BVA  - Mayer's bonded valence
  FA   - Mayer's free valence

  ATOM       NA         ZA         QA         VA         BVA        FA
  0 Cu    28.6667    29.0000     0.3333     1.0563     1.0563    -0.0000
  1 Cu    28.6667    29.0000     0.3333     1.0563     1.0563    -0.0000
  2 Cu    28.6667    29.0000     0.3333     1.0563     1.0563    -0.0000

  Mayer bond orders larger than 0.100000
B(  0-Cu,  1-Cu) :   0.5281 B(  0-Cu,  2-Cu) :   0.5281 B(  1-Cu,  2-Cu) :   0.5281 


-------
TIMINGS
-------

Total SCF time: 0 days 0 hours 0 min 20 sec 

Total time                  ....      20.069 sec
Sum of individual times     ....      19.801 sec  ( 98.7%)

Fock matrix formation       ....      19.186 sec  ( 95.6%)
  XC integration            ....       0.827 sec  (  4.3% of F)
    Basis function eval.    ....       0.087 sec  ( 10.6% of XC)
    Density eval.           ....       0.069 sec  (  8.3% of XC)
    XC-Functional eval.     ....       0.042 sec  (  5.1% of XC)
    XC-Potential eval.      ....       0.122 sec  ( 14.7% of XC)
Diagonalization             ....       0.135 sec  (  0.7%)
Density matrix formation    ....       0.017 sec  (  0.1%)
Population analysis         ....       0.006 sec  (  0.0%)
Initial guess               ....       0.101 sec  (  0.5%)
Orbital Transformation      ....       0.000 sec  (  0.0%)
Orbital Orthonormalization  ....       0.000 sec  (  0.0%)
DIIS solution               ....       0.063 sec  (  0.3%)
Grid generation             ....       0.292 sec  (  1.5%)

-------------------------   --------------------
FINAL SINGLE POINT ENERGY     -4920.869829258829
-------------------------   --------------------


----------------------------------------------------------------------------
                           ORCA NUMERICAL GRADIENT
                              (24-process run)
----------------------------------------------------------------------------

I state                        ... 1
J state                        ... 0
Number of atoms                ... 3
Derivative's order of accuracy ... 2
Central differences            ... used
Number of displacements        ... 18
Numerical increment            ... 5.000e-03 bohr
Translation invariance         ... used

The output will be reduced. Please look at the following files:
SCF program output             ... >Cu03C1_D3H.lastscf
Integral program output        ... >Cu03C1_D3H.lastint
Gradient program output        ... >Cu03C1_D3H.lastgrad


     Note:   There are more processes than displacements to do
     ===>:   Reducing number of processes to   6

             <<<Displacing   3/coordinate 1 (+)>>>
             <<<Displacing   2/coordinate 1 (+)>>>
             <<<Displacing   3/coordinate 2 (+)>>>
             <<<Displacing   3/coordinate 3 (+)>>>
             <<<Displacing   2/coordinate 3 (+)>>>
             <<<Displacing   2/coordinate 2 (+)>>>
             <<<Displacing   2/coordinate 3 (-)>>>
             <<<Displacing   3/coordinate 3 (-)>>>
             <<<Displacing   3/coordinate 2 (-)>>>
             <<<Displacing   2/coordinate 2 (-)>>>
             <<<Displacing   3/coordinate 1 (-)>>>
             <<<Displacing   2/coordinate 1 (-)>>>

------------------------------
CARTESIAN GRADIENT (NUMERICAL)
-------------------------------
   1   Cu  :   -0.000000028   -0.010568522   -0.000000035
   2   Cu  :   -0.009120803    0.005284297   -0.000000089
   3   Cu  :    0.009120832    0.005284226    0.000000124

Norm of the cartesian gradient     ...    0.018273454
RMS gradient                       ...    0.006091151
MAX gradient                       ...    0.010568522

-------
TIMINGS
-------

Total numerical gradient time      ...      271.848 sec

------------------------------------------------------------------------------
                         ORCA GEOMETRY RELAXATION STEP
------------------------------------------------------------------------------

Reading the OPT-File                    .... done
Getting information on internals        .... done
Copying old internal coords+grads       .... done
Making the new internal coordinates     .... (new redundants).... done
Validating the new internal coordinates .... (new redundants).... done
Calculating the B-matrix                .... done
Calculating the G,G- and P matrices     .... done
Transforming gradient to internals      .... done
Projecting the internal gradient        .... done
Number of atoms                         ....   3
Number of internal coordinates          ....   6
Current Energy                          .... -4920.869829259 Eh
Current gradient norm                   ....     0.018273454 Eh/bohr
Maximum allowed component of the step   ....  0.300
Current trust radius                    ....  0.300
Evaluating the initial hessian          ....  (Almloef) done
Projecting the Hessian                  .... done
Forming the augmented Hessian           .... done
Diagonalizing the augmented Hessian     .... done
Last element of RFO vector              ....  0.999985705
Lowest eigenvalues of augmented Hessian:
 -0.000056413  1.850211544  1.850211632  1.973066039 1000.000000000
Length of the computed step             ....  0.005347109
The final length of the internal step   ....  0.005347109
Converting the step to cartesian space:
 Initial RMS(Int)=    0.0021829481
Transforming coordinates:
 Iter   0:  RMS(Cart)=    0.0010290538 RMS(Int)=    0.0021829481
 Iter   1:  RMS(Cart)=    0.0000000003 RMS(Int)=    0.0000000005
done
Storing new coordinates                 .... done

                                .--------------------.
          ----------------------|Geometry convergence|-------------------------
          Item                value                   Tolerance       Converged
          ---------------------------------------------------------------------
          RMS gradient        0.0043070991            0.0001000000      NO
          MAX gradient        0.0061003319            0.0003000000      NO
          RMS step            0.0021829481            0.0020000000      NO
          MAX step            0.0030921124            0.0040000000      YES
          ........................................................
          Max(Bonds)      0.0016      Max(Angles)    0.00
          Max(Dihed)        0.00      Max(Improp)    0.00
          ---------------------------------------------------------------------

The optimization has not yet converged - more geometry cycles are needed


    ---------------------------------------------------------------------------
                         Redundant Internal Coordinates
                            (Angstroem and degrees)

        Definition                    Value    dE/dq     Step     New-Value
    ----------------------------------------------------------------------------
     1. B(Cu  1,Cu  0)                2.3370 -0.006100  0.0016    2.3386   
     2. B(Cu  2,Cu  1)                2.3370 -0.006073  0.0016    2.3386   
     3. B(Cu  2,Cu  0)                2.3370 -0.006100  0.0016    2.3386   
     4. A(Cu  1,Cu  0,Cu  2)           60.00  0.000007   -0.00     60.00   
     5. A(Cu  0,Cu  1,Cu  2)           60.00 -0.000004    0.00     60.00   
     6. A(Cu  0,Cu  2,Cu  1)           60.00 -0.000004    0.00     60.00   
    ----------------------------------------------------------------------------

         *************************************************************
         *                GEOMETRY OPTIMIZATION CYCLE   2            *
         *************************************************************
---------------------------------
CARTESIAN COORDINATES (ANGSTROEM)
---------------------------------
  Cu    -0.000000    1.350207    0.000000
  Cu     1.169308   -0.675103    0.000000
  Cu    -1.169308   -0.675103    0.000000

----------------------------
CARTESIAN COORDINATES (A.U.)
----------------------------
  NO LB      ZA    FRAG     MASS         X           Y           Z
   0 Cu   29.0000    0    63.550   -0.000000    2.551522    0.000000
   1 Cu   29.0000    0    63.550    2.209672   -1.275760    0.000000
   2 Cu   29.0000    0    63.550   -2.209672   -1.275760    0.000000

--------------------------------
INTERNAL COORDINATES (ANGSTROEM)
--------------------------------
 Cu     0   0   0     0.000000000000     0.00000000     0.00000000
 Cu     1   0   0     2.338624296139     0.00000000     0.00000000
 Cu     2   1   0     2.338616393028    60.00011170     0.00000000

---------------------------
INTERNAL COORDINATES (A.U.)
---------------------------
 Cu     0   0   0     0.000000000000     0.00000000     0.00000000
 Cu     1   0   0     4.419359449837     0.00000000     0.00000000
 Cu     2   1   0     4.419344515121    60.00011170     0.00000000



           ************************************************************
           *        Program running with 24 parallel MPI-processes    *
           *              working on a common directory               *
           ************************************************************


           ************************************************************
           *        Program running with 24 parallel MPI-processes    *
           *              working on a common directory               *
           ************************************************************

Diagonalization of the overlap matrix:
Smallest eigenvalue                        ... 7.694e-04
Time for diagonalization                   ...    0.008 sec
Threshold for overlap eigenvalues          ... 1.000e-08
Number of eigenvalues below threshold      ... 0
Time for construction of square roots      ...    0.006 sec
Total time needed                          ...    0.014 sec

-------------------
DFT GRID GENERATION
-------------------

General Integration Accuracy     IntAcc      ...  4.670
Radial Grid Type                 RadialGrid  ... Gauss-Chebyshev
Angular Grid (max. acc.)         AngularGrid ... Lebedev-302
Angular grid pruning method      GridPruning ... 3 (G Style)
Weight generation scheme         WeightScheme... Becke
Basis function cutoff            BFCut       ...    1.0000e-11
Integration weight cutoff        WCut        ...    1.0000e-14
Grids for H and He will be reduced by one unit

# of grid points (after initial pruning)     ...  28668 (   0.0 sec)
# of grid points (after weights+screening)   ...  28566 (   0.0 sec)
nearest neighbour list constructed           ...    0.0 sec
Grid point re-assignment to atoms done       ...    0.0 sec
Grid point division into batches done        ...    0.2 sec
Reduced shell lists constructed in    0.2 sec

Total number of grid points                  ...    28566
Total number of batches                      ...      448
Average number of points per batch           ...       63
Average number of grid points per atom       ...     9522
Average number of shells per batch           ...    13.75 (24.12%)
Average number of basis functions per batch  ...    38.75 (19.28%)
Average number of large shells per batch     ...    10.10 (73.45%)
Average number of large basis fcns per batch ...    27.90 (72.00%)
Maximum spatial batch extension              ...  20.09, 17.16, 22.17 au
Average spatial batch extension              ...   0.56,  0.48,  0.54 au

Time for grid setup =    0.253 sec

--------------
SCF ITERATIONS
--------------
ITER       Energy         Delta-E        Max-DP      RMS-DP      [F,P]     Damp
               ***  Starting incremental Fock matrix formation  ***
  0  -4921.2323274892   0.000000000000 0.00005681  0.00000142  0.0006945 0.7000
  1  -4921.2323275546  -0.000000065445 0.00005326  0.00000124  0.0004866 0.7000
                               ***Turning on DIIS***
  2  -4921.2323275970  -0.000000042390 0.00014494  0.00000327  0.0003407 0.0000
  3  -4921.2323277047  -0.000000107660 0.00003507  0.00000067  0.0000217 0.0000
  4  -4921.2323277085  -0.000000003833 0.00001492  0.00000029  0.0000084 0.0000
  5  -4921.2323277086  -0.000000000089 0.00001040  0.00000021  0.0000060 0.0000
  6  -4921.2323277093  -0.000000000644 0.00000662  0.00000012  0.0000096 0.0000
                            ***DIIS convergence achieved***

               *****************************************************
               *                     SUCCESS                       *
               *           SCF CONVERGED AFTER   7 CYCLES          *
               *****************************************************


Setting up the DFT-NL grid :

General Integration Accuracy     IntAcc      ...  4.340
Radial Grid Type                 RadialGrid  ... Gauss-Chebyshev
Angular Grid (max. acc.)         AngularGrid ... Lebedev-110
Angular grid pruning method      GridPruning ... 3 (G Style)
Weight generation scheme         WeightScheme... Becke
Basis function cutoff            BFCut       ...    1.0000e-11
Integration weight cutoff        WCut        ...    1.0000e-14
Grids for H and He will be reduced by one unit

# of grid points (after initial pruning)     ...   8736 (   0.0 sec)
# of grid points (after weights+screening)   ...   8688 (   0.0 sec)
nearest neighbour list constructed           ...    0.0 sec
Grid point re-assignment to atoms done       ...    0.0 sec
Grid point division into batches done        ...    0.0 sec
Reduced shell lists constructed in    0.0 sec

Total number of grid points                  ...     8688
Total number of batches                      ...      138
Average number of points per batch           ...       62
Average number of grid points per atom       ...     2896
Average number of shells per batch           ...    17.14 (30.08%)
Average number of basis functions per batch  ...    50.57 (25.16%)
Average number of large shells per batch     ...    13.71 (80.00%)
Average number of large basis fcns per batch ...    38.00 (75.14%)
Maximum spatial batch extension              ...  32.26, 15.58, 17.81 au
Average spatial batch extension              ...   1.00,  0.65,  0.70 au

Final grid set up in    0.0 sec

-------------------------------------------------------------------------------
                         DFT-NL dispersion correction                          
-------------------------------------------------------------------------------

SC Energy -4921.232327708 
NL    Energy 0.362442902 
SC+NL Energy -4920.869884806 
NL done in    0.0 sec
-------------------------------------------------------------------------------
Total Energy       :        -4920.86988481 Eh         -133903.67710 eV
  Last Energy change         ...    9.0404e-10  Tolerance :   1.0000e-08
  Last MAX-Density change    ...    2.6516e-06  Tolerance :   1.0000e-07
             **** THE GBW FILE WAS UPDATED (Cu03C1_D3H.gbw) ****
             **** DENSITY FILE WAS UPDATED (Cu03C1_D3H.scfp) ****
             **** ENERGY FILE WAS UPDATED (Cu03C1_D3H.en.tmp) ****
             **** THE GBW FILE WAS UPDATED (Cu03C1_D3H.gbw) ****
             **** DENSITY FILE WAS UPDATED (Cu03C1_D3H.scfp) ****
Total SCF time: 0 days 0 hours 0 min 6 sec 

-------------------------   --------------------
FINAL SINGLE POINT ENERGY     -4920.869884806023
-------------------------   --------------------


----------------------------------------------------------------------------
                           ORCA NUMERICAL GRADIENT
                              (24-process run)
----------------------------------------------------------------------------

I state                        ... 1
J state                        ... 0
Number of atoms                ... 3
Derivative's order of accuracy ... 2
Central differences            ... used
Number of displacements        ... 18
Numerical increment            ... 5.000e-03 bohr
Translation invariance         ... used

The output will be reduced. Please look at the following files:
SCF program output             ... >Cu03C1_D3H.lastscf
Integral program output        ... >Cu03C1_D3H.lastint
Gradient program output        ... >Cu03C1_D3H.lastgrad


     Note:   There are more processes than displacements to do
     ===>:   Reducing number of processes to   6

             <<<Displacing   2/coordinate 3 (+)>>>
             <<<Displacing   2/coordinate 2 (+)>>>
             <<<Displacing   2/coordinate 1 (+)>>>
             <<<Displacing   3/coordinate 2 (+)>>>
             <<<Displacing   3/coordinate 3 (+)>>>
             <<<Displacing   3/coordinate 1 (+)>>>
             <<<Displacing   2/coordinate 3 (-)>>>
             <<<Displacing   3/coordinate 3 (-)>>>
             <<<Displacing   3/coordinate 2 (-)>>>
             <<<Displacing   2/coordinate 2 (-)>>>
             <<<Displacing   2/coordinate 1 (-)>>>
             <<<Displacing   3/coordinate 1 (-)>>>

------------------------------
CARTESIAN GRADIENT (NUMERICAL)
-------------------------------
   1   Cu  :    0.000000056   -0.010247007    0.000000042
   2   Cu  :   -0.008840604    0.005123462   -0.000000032
   3   Cu  :    0.008840548    0.005123545   -0.000000010

Norm of the cartesian gradient     ...    0.017714776
RMS gradient                       ...    0.005904925
MAX gradient                       ...    0.010247007

-------
TIMINGS
-------

Total numerical gradient time      ...      272.865 sec

------------------------------------------------------------------------------
                         ORCA GEOMETRY RELAXATION STEP
------------------------------------------------------------------------------

Reading the OPT-File                    .... done
Getting information on internals        .... done
Copying old internal coords+grads       .... done
Making the new internal coordinates     .... (new redundants).... done
Validating the new internal coordinates .... (new redundants).... done
Calculating the B-matrix                .... done
Calculating the G,G- and P matrices     .... done
Transforming gradient to internals      .... done
Projecting the internal gradient        .... done
Number of atoms                         ....   3
Number of internal coordinates          ....   6
Current Energy                          .... -4920.869884806 Eh
Current gradient norm                   ....     0.017714776 Eh/bohr
Maximum allowed component of the step   ....  0.300
Current trust radius                    ....  0.300
Updating the Hessian (BFGS)             .... done
Forming the augmented Hessian           .... done
Diagonalizing the augmented Hessian     .... done
Last element of RFO vector              ....  0.986669232
Lowest eigenvalues of augmented Hessian:
 -0.001686920  0.062009300  1.850211544  1.850215075 999.999999829
Length of the computed step             ....  0.164937260
The final length of the internal step   ....  0.164937260
Converting the step to cartesian space:
 Initial RMS(Int)=    0.0673353546
Transforming coordinates:
 Iter   0:  RMS(Cart)=    0.0317422729 RMS(Int)=    0.0673353577
 Iter   1:  RMS(Cart)=    0.0000003109 RMS(Int)=    0.0000004996
 Iter   2:  RMS(Cart)=    0.0000000009 RMS(Int)=    0.0000000014
done
Storing new coordinates                 .... done

                                .--------------------.
          ----------------------|Geometry convergence|-------------------------
          Item                value                   Tolerance       Converged
          ---------------------------------------------------------------------
          Energy change      -0.0000555472            0.0000050000      NO
          RMS gradient        0.0041754183            0.0001000000      NO
          MAX gradient        0.0059146197            0.0003000000      NO
          RMS step            0.0673353546            0.0020000000      NO
          MAX step            0.0953931061            0.0040000000      NO
          ........................................................
          Max(Bonds)      0.0505      Max(Angles)    0.01
          Max(Dihed)        0.00      Max(Improp)    0.00
          ---------------------------------------------------------------------

The optimization has not yet converged - more geometry cycles are needed


    ---------------------------------------------------------------------------
                         Redundant Internal Coordinates
                            (Angstroem and degrees)

        Definition                    Value    dE/dq     Step     New-Value
    ----------------------------------------------------------------------------
     1. B(Cu  1,Cu  0)                2.3386 -0.005915  0.0505    2.3891   
     2. B(Cu  2,Cu  1)                2.3386 -0.005886  0.0502    2.3888   
     3. B(Cu  2,Cu  0)                2.3386 -0.005915  0.0505    2.3891   
     4. A(Cu  1,Cu  0,Cu  2)           60.00  0.000008   -0.01     59.99   
     5. A(Cu  0,Cu  1,Cu  2)           60.00 -0.000004    0.00     60.00   
     6. A(Cu  0,Cu  2,Cu  1)           60.00 -0.000004    0.00     60.00   
    ----------------------------------------------------------------------------

         *************************************************************
         *                GEOMETRY OPTIMIZATION CYCLE   3            *
         *************************************************************


           ************************************************************
           *        Program running with 24 parallel MPI-processes    *
           *              working on a common directory               *
           ************************************************************


           ************************************************************
           *        Program running with 24 parallel MPI-processes    *
           *              working on a common directory               *
           ************************************************************

Diagonalization of the overlap matrix:
Smallest eigenvalue                        ... 8.257e-04
Time for diagonalization                   ...    0.007 sec
Threshold for overlap eigenvalues          ... 1.000e-08
Number of eigenvalues below threshold      ... 0
Time for construction of square roots      ...    0.006 sec
Total time needed                          ...    0.014 sec

-------------------
DFT GRID GENERATION
-------------------

General Integration Accuracy     IntAcc      ...  4.670
Radial Grid Type                 RadialGrid  ... Gauss-Chebyshev
Angular Grid (max. acc.)         AngularGrid ... Lebedev-302
Angular grid pruning method      GridPruning ... 3 (G Style)
Weight generation scheme         WeightScheme... Becke
Basis function cutoff            BFCut       ...    1.0000e-11
Integration weight cutoff        WCut        ...    1.0000e-14
Grids for H and He will be reduced by one unit

# of grid points (after initial pruning)     ...  28668 (   0.0 sec)
# of grid points (after weights+screening)   ...  28574 (   0.0 sec)
nearest neighbour list constructed           ...    0.0 sec
Grid point re-assignment to atoms done       ...    0.0 sec
Grid point division into batches done        ...    0.2 sec
Reduced shell lists constructed in    0.2 sec

Total number of grid points                  ...    28574
Total number of batches                      ...      448
Average number of points per batch           ...       63
Average number of grid points per atom       ...     9525
Average number of shells per batch           ...    13.65 (23.95%)
Average number of basis functions per batch  ...    38.45 (19.13%)
Average number of large shells per batch     ...    10.10 (73.99%)
Average number of large basis fcns per batch ...    28.00 (72.82%)
Maximum spatial batch extension              ...  20.18, 17.16, 22.17 au
Average spatial batch extension              ...   0.56,  0.48,  0.54 au

Time for grid setup =    0.246 sec

--------------
SCF ITERATIONS
--------------
ITER       Energy         Delta-E        Max-DP      RMS-DP      [F,P]     Damp
               ***  Starting incremental Fock matrix formation  ***
  0  -4921.2333962960   0.000000000000 0.00159253  0.00004071  0.0216002 0.7000
  1  -4921.2334558202  -0.000059524221 0.00151361  0.00003589  0.0151325 0.7000
                               ***Turning on DIIS***
  2  -4921.2334956381  -0.000039817858 0.00400954  0.00009253  0.0105963 0.0000
  3  -4921.2335933827  -0.000097744598 0.00130275  0.00002323  0.0006439 0.0000
  4  -4921.2335984806  -0.000005097905 0.00045348  0.00000982  0.0003503 0.0000
  5  -4921.2335993335  -0.000000852892 0.00026717  0.00000547  0.0004242 0.0000
  6  -4921.2335998862  -0.000000552711 0.00033567  0.00000615  0.0001966 0.0000
  7  -4921.2336001906  -0.000000304396 0.00008252  0.00000171  0.0000287 0.0000
  8  -4921.2336002133  -0.000000022745 0.00004221  0.00000074  0.0000094 0.0000
                 **** Energy Check signals convergence ****

               *****************************************************
               *                     SUCCESS                       *
               *           SCF CONVERGED AFTER   9 CYCLES          *
               *****************************************************


Setting up the DFT-NL grid :

General Integration Accuracy     IntAcc      ...  4.340
Radial Grid Type                 RadialGrid  ... Gauss-Chebyshev
Angular Grid (max. acc.)         AngularGrid ... Lebedev-110
Angular grid pruning method      GridPruning ... 3 (G Style)
Weight generation scheme         WeightScheme... Becke
Basis function cutoff            BFCut       ...    1.0000e-11
Integration weight cutoff        WCut        ...    1.0000e-14
Grids for H and He will be reduced by one unit

# of grid points (after initial pruning)     ...   8736 (   0.0 sec)
# of grid points (after weights+screening)   ...   8688 (   0.0 sec)
nearest neighbour list constructed           ...    0.0 sec
Grid point re-assignment to atoms done       ...    0.0 sec
Grid point division into batches done        ...    0.0 sec
Reduced shell lists constructed in    0.0 sec

Total number of grid points                  ...     8688
Total number of batches                      ...      138
Average number of points per batch           ...       62
Average number of grid points per atom       ...     2896
Average number of shells per batch           ...    17.14 (30.08%)
Average number of basis functions per batch  ...    50.57 (25.16%)
Average number of large shells per batch     ...    13.57 (79.17%)
Average number of large basis fcns per batch ...    37.86 (74.86%)
Maximum spatial batch extension              ...  32.36, 15.58, 17.81 au
Average spatial batch extension              ...   1.01,  0.63,  0.70 au

Final grid set up in    0.0 sec

-------------------------------------------------------------------------------
                         DFT-NL dispersion correction                          
-------------------------------------------------------------------------------

SC Energy -4921.233600218 
NL    Energy 0.362784108 
SC+NL Energy -4920.870816110 
NL done in    0.0 sec
-------------------------------------------------------------------------------
Total Energy       :        -4920.87081611 Eh         -133903.70244 eV
  Last Energy change         ...   -4.8840e-09  Tolerance :   1.0000e-08
  Last MAX-Density change    ...    2.2800e-05  Tolerance :   1.0000e-07
             **** THE GBW FILE WAS UPDATED (Cu03C1_D3H.gbw) ****
             **** DENSITY FILE WAS UPDATED (Cu03C1_D3H.scfp) ****
             **** ENERGY FILE WAS UPDATED (Cu03C1_D3H.en.tmp) ****
             **** THE GBW FILE WAS UPDATED (Cu03C1_D3H.gbw) ****
             **** DENSITY FILE WAS UPDATED (Cu03C1_D3H.scfp) ****
Total SCF time: 0 days 0 hours 0 min 8 sec 

-------------------------   --------------------
FINAL SINGLE POINT ENERGY     -4920.870816109871
-------------------------   --------------------


----------------------------------------------------------------------------
                           ORCA NUMERICAL GRADIENT
                              (24-process run)
----------------------------------------------------------------------------

I state                        ... 1
J state                        ... 0
Number of atoms                ... 3
Derivative's order of accuracy ... 2
Central differences            ... used
Number of displacements        ... 18
Numerical increment            ... 5.000e-03 bohr
Translation invariance         ... used

The output will be reduced. Please look at the following files:
SCF program output             ... >Cu03C1_D3H.lastscf
Integral program output        ... >Cu03C1_D3H.lastint
Gradient program output        ... >Cu03C1_D3H.lastgrad


     Note:   There are more processes than displacements to do
     ===>:   Reducing number of processes to   6

             <<<Displacing   3/coordinate 2 (+)>>>
             <<<Displacing   2/coordinate 2 (+)>>>
             <<<Displacing   2/coordinate 3 (+)>>>
             <<<Displacing   3/coordinate 1 (+)>>>
             <<<Displacing   3/coordinate 3 (+)>>>
             <<<Displacing   2/coordinate 1 (+)>>>
             <<<Displacing   2/coordinate 3 (-)>>>
             <<<Displacing   3/coordinate 3 (-)>>>
             <<<Displacing   2/coordinate 2 (-)>>>
             <<<Displacing   3/coordinate 2 (-)>>>
             <<<Displacing   3/coordinate 1 (-)>>>
             <<<Displacing   2/coordinate 1 (-)>>>

------------------------------
CARTESIAN GRADIENT (NUMERICAL)
-------------------------------
   1   Cu  :    0.000000200   -0.001502009    0.000000043
   2   Cu  :   -0.001151810    0.000751025   -0.000000042
   3   Cu  :    0.001151610    0.000750984   -0.000000001

Norm of the cartesian gradient     ...    0.002457014
RMS gradient                       ...    0.000819005
MAX gradient                       ...    0.001502009

-------
TIMINGS
-------

Total numerical gradient time      ...      265.468 sec

------------------------------------------------------------------------------
                         ORCA GEOMETRY RELAXATION STEP
------------------------------------------------------------------------------

Reading the OPT-File                    .... done
Getting information on internals        .... done
Copying old internal coords+grads       .... done
Making the new internal coordinates     .... (new redundants).... done
Validating the new internal coordinates .... (new redundants).... done
Calculating the B-matrix                .... done
Calculating the G,G- and P matrices     .... done
Transforming gradient to internals      .... done
Projecting the internal gradient        .... done
Number of atoms                         ....   3
Number of internal coordinates          ....   6
Current Energy                          .... -4920.870816110 Eh
Current gradient norm                   ....     0.002457014 Eh/bohr
Maximum allowed component of the step   ....  0.300
Current trust radius                    ....  0.300
Updating the Hessian (BFGS)             .... done
Forming the augmented Hessian           .... done
Diagonalizing the augmented Hessian     .... done
Last element of RFO vector              ....  0.999649259
Lowest eigenvalues of augmented Hessian:
 -0.000037527  0.053460014  1.850211544  1.850223886 999.993506701
Length of the computed step             ....  0.026492456
The final length of the internal step   ....  0.026492456
Converting the step to cartesian space:
 Initial RMS(Int)=    0.0108155000
Transforming coordinates:
 Iter   0:  RMS(Cart)=    0.0050985271 RMS(Int)=    0.0108155003
 Iter   1:  RMS(Cart)=    0.0000000151 RMS(Int)=    0.0000000242
done
Storing new coordinates                 .... done

                                .--------------------.
          ----------------------|Geometry convergence|-------------------------
          Item                value                   Tolerance       Converged
          ---------------------------------------------------------------------
          Energy change      -0.0009313038            0.0000050000      NO
          RMS gradient        0.0005799135            0.0001000000      NO
          MAX gradient        0.0008608845            0.0003000000      NO
          RMS step            0.0108155000            0.0020000000      NO
          MAX step            0.0153483874            0.0040000000      NO
          ........................................................
          Max(Bonds)      0.0081      Max(Angles)    0.00
          Max(Dihed)        0.00      Max(Improp)    0.00
          ---------------------------------------------------------------------

The optimization has not yet converged - more geometry cycles are needed


    ---------------------------------------------------------------------------
                         Redundant Internal Coordinates
                            (Angstroem and degrees)

        Definition                    Value    dE/dq     Step     New-Value
    ----------------------------------------------------------------------------
     1. B(Cu  1,Cu  0)                2.3891 -0.000861  0.0081    2.3972   
     2. B(Cu  2,Cu  1)                2.3888 -0.000731  0.0080    2.3969   
     3. B(Cu  2,Cu  0)                2.3891 -0.000861  0.0081    2.3972   
     4. A(Cu  1,Cu  0,Cu  2)           59.99  0.000033   -0.00     59.99   
     5. A(Cu  0,Cu  1,Cu  2)           60.00 -0.000017    0.00     60.00   
     6. A(Cu  0,Cu  2,Cu  1)           60.00 -0.000017    0.00     60.00   
    ----------------------------------------------------------------------------

         *************************************************************
         *                GEOMETRY OPTIMIZATION CYCLE   4            *
         *************************************************************


           ************************************************************
           *        Program running with 24 parallel MPI-processes    *
           *              working on a common directory               *
           ************************************************************


           ************************************************************
           *        Program running with 24 parallel MPI-processes    *
           *              working on a common directory               *
           ************************************************************

Diagonalization of the overlap matrix:
Smallest eigenvalue                        ... 8.350e-04
Time for diagonalization                   ...    0.009 sec
Threshold for overlap eigenvalues          ... 1.000e-08
Number of eigenvalues below threshold      ... 0
Time for construction of square roots      ...    0.005 sec
Total time needed                          ...    0.014 sec

-------------------
DFT GRID GENERATION
-------------------

General Integration Accuracy     IntAcc      ...  4.670
Radial Grid Type                 RadialGrid  ... Gauss-Chebyshev
Angular Grid (max. acc.)         AngularGrid ... Lebedev-302
Angular grid pruning method      GridPruning ... 3 (G Style)
Weight generation scheme         WeightScheme... Becke
Basis function cutoff            BFCut       ...    1.0000e-11
Integration weight cutoff        WCut        ...    1.0000e-14
Grids for H and He will be reduced by one unit

# of grid points (after initial pruning)     ...  28668 (   0.0 sec)
# of grid points (after weights+screening)   ...  28574 (   0.0 sec)
nearest neighbour list constructed           ...    0.0 sec
Grid point re-assignment to atoms done       ...    0.0 sec
Grid point division into batches done        ...    0.2 sec
Reduced shell lists constructed in    0.3 sec

Total number of grid points                  ...    28574
Total number of batches                      ...      448
Average number of points per batch           ...       63
Average number of grid points per atom       ...     9525
Average number of shells per batch           ...    13.70 (24.04%)
Average number of basis functions per batch  ...    38.60 (19.20%)
Average number of large shells per batch     ...    10.15 (74.09%)
Average number of large basis fcns per batch ...    28.15 (72.93%)
Maximum spatial batch extension              ...  20.20, 17.16, 22.17 au
Average spatial batch extension              ...   0.57,  0.48,  0.54 au

Time for grid setup =    0.270 sec

--------------
SCF ITERATIONS
--------------
ITER       Energy         Delta-E        Max-DP      RMS-DP      [F,P]     Damp
               ***  Starting incremental Fock matrix formation  ***
  0  -4921.2336697832   0.000000000000 0.00023686  0.00000614  0.0031725 0.7000
  1  -4921.2336711440  -0.000001360805 0.00022589  0.00000543  0.0022226 0.7000
                               ***Turning on DIIS***
  2  -4921.2336720598  -0.000000915808 0.00059958  0.00001405  0.0015563 0.0000
  3  -4921.2336743211  -0.000002261246 0.00021700  0.00000367  0.0000985 0.0000
  4  -4921.2336744474  -0.000000126318 0.00007458  0.00000155  0.0000541 0.0000
  5  -4921.2336744678  -0.000000020351 0.00004444  0.00000089  0.0000670 0.0000
  6  -4921.2336744811  -0.000000013319 0.00005472  0.00000100  0.0000308 0.0000
  7  -4921.2336744888  -0.000000007690 0.00001474  0.00000028  0.0000046 0.0000
  8  -4921.2336744912  -0.000000002411 0.00000763  0.00000013  0.0000017 0.0000
                 **** Energy Check signals convergence ****

               *****************************************************
               *                     SUCCESS                       *
               *           SCF CONVERGED AFTER   9 CYCLES          *
               *****************************************************


Setting up the DFT-NL grid :

General Integration Accuracy     IntAcc      ...  4.340
Radial Grid Type                 RadialGrid  ... Gauss-Chebyshev
Angular Grid (max. acc.)         AngularGrid ... Lebedev-110
Angular grid pruning method      GridPruning ... 3 (G Style)
Weight generation scheme         WeightScheme... Becke
Basis function cutoff            BFCut       ...    1.0000e-11
Integration weight cutoff        WCut        ...    1.0000e-14
Grids for H and He will be reduced by one unit

# of grid points (after initial pruning)     ...   8736 (   0.0 sec)
# of grid points (after weights+screening)   ...   8688 (   0.0 sec)
nearest neighbour list constructed           ...    0.0 sec
Grid point re-assignment to atoms done       ...    0.0 sec
Grid point division into batches done        ...    0.0 sec
Reduced shell lists constructed in    0.0 sec

Total number of grid points                  ...     8688
Total number of batches                      ...      138
Average number of points per batch           ...       62
Average number of grid points per atom       ...     2896
Average number of shells per batch           ...    17.14 (30.08%)
Average number of basis functions per batch  ...    50.57 (25.16%)
Average number of large shells per batch     ...    13.57 (79.17%)
Average number of large basis fcns per batch ...    37.86 (74.86%)
Maximum spatial batch extension              ...  32.37, 15.58, 17.81 au
Average spatial batch extension              ...   1.01,  0.63,  0.70 au

Final grid set up in    0.1 sec

-------------------------------------------------------------------------------
[...]
 198   0.0000      13.131318       357.3213 
 199   0.0000      13.134509       357.4082 
 200   0.0000      13.134602       357.4107 

                    ********************************
                    * MULLIKEN POPULATION ANALYSIS *
                    ********************************

-----------------------
MULLIKEN ATOMIC CHARGES
-----------------------
   0 Cu:    0.333452
   1 Cu:    0.333273
   2 Cu:    0.333275
Sum of atomic charges:    1.0000000

--------------------------------
MULLIKEN REDUCED ORBITAL CHARGES
--------------------------------
  0 Cus       :     6.631412  s :     6.631412
      pz      :     4.009629  p :    12.107172
      px      :     4.010541
      py      :     4.087002
      dz2     :     1.992323  d :     9.927756
      dxz     :     1.997553
      dyz     :     1.992743
      dx2y2   :     1.984262
      dxy     :     1.960876
      f0      :     0.000022  f :     0.000207
      f+1     :     0.000007
      f-1     :     0.000035
      f+2     :     0.000023
      f-2     :     0.000031
      f+3     :     0.000035
      f-3     :     0.000054
      g0      :     0.000000  g :     0.000001
      g+1     :     0.000000
      g-1     :     0.000000
      g+2     :     0.000000
      g-2     :     0.000000
      g+3     :     0.000000
      g-3     :     0.000000
      g+4     :     0.000000
      g-4     :     0.000000
  1 Cus       :     6.631602  s :     6.631602
      pz      :     4.009633  p :    12.107186
      px      :     4.067889
      py      :     4.029664
      dz2     :     1.992319  d :     9.927731
      dxz     :     1.993943
      dyz     :     1.996348
      dx2y2   :     1.966713
      dxy     :     1.978408
      f0      :     0.000022  f :     0.000207
      f+1     :     0.000028
      f-1     :     0.000014
      f+2     :     0.000029
      f-2     :     0.000025
      f+3     :     0.000035
      f-3     :     0.000054
      g0      :     0.000000  g :     0.000001
      g+1     :     0.000000
      g-1     :     0.000000
      g+2     :     0.000000
      g-2     :     0.000000
      g+3     :     0.000000
      g-3     :     0.000000
      g+4     :     0.000000
      g-4     :     0.000000
  2 Cus       :     6.631600  s :     6.631600
      pz      :     4.009633  p :    12.107186
      px      :     4.067889
      py      :     4.029664
      dz2     :     1.992319  d :     9.927731
      dxz     :     1.993943
      dyz     :     1.996348
      dx2y2   :     1.966713
      dxy     :     1.978408
      f0      :     0.000022  f :     0.000207
      f+1     :     0.000028
      f-1     :     0.000014
      f+2     :     0.000029
      f-2     :     0.000025
      f+3     :     0.000035
      f-3     :     0.000054
      g0      :     0.000000  g :     0.000001
      g+1     :     0.000000
      g-1     :     0.000000
      g+2     :     0.000000
      g-2     :     0.000000
      g+3     :     0.000000
      g-3     :     0.000000
      g+4     :     0.000000
      g-4     :     0.000000


                     *******************************
                     * LOEWDIN POPULATION ANALYSIS *
                     *******************************

----------------------
LOEWDIN ATOMIC CHARGES
----------------------
   0 Cu:    0.333376
   1 Cu:    0.333312
   2 Cu:    0.333312

-------------------------------
LOEWDIN REDUCED ORBITAL CHARGES
-------------------------------
  0 Cus       :     6.448739  s :     6.448739
      pz      :     4.010482  p :    12.227644
      px      :     4.024905
      py      :     4.192257
      dz2     :     2.014201  d :     9.989773
      dxz     :     1.997487
      dyz     :     1.991899
      dx2y2   :     1.999567
      dxy     :     1.986619
      f0      :     0.000042  f :     0.000467
      f+1     :     0.000025
      f-1     :     0.000076
      f+2     :     0.000032
      f-2     :     0.000057
      f+3     :     0.000135
      f-3     :     0.000100
      g0      :     0.000000  g :     0.000001
      g+1     :     0.000000
      g-1     :     0.000000
      g+2     :     0.000000
      g-2     :     0.000000
      g+3     :     0.000000
      g-3     :     0.000000
      g+4     :     0.000000
      g-4     :     0.000000
  1 Cus       :     6.448813  s :     6.448813
      pz      :     4.010486  p :    12.227654
      px      :     4.150415
      py      :     4.066752
      dz2     :     2.014197  d :     9.989753
      dxz     :     1.993295
      dyz     :     1.996087
      dx2y2   :     1.989866
      dxy     :     1.996308
      f0      :     0.000042  f :     0.000467
      f+1     :     0.000063
      f-1     :     0.000038
      f+2     :     0.000051
      f-2     :     0.000038
      f+3     :     0.000135
      f-3     :     0.000100
      g0      :     0.000000  g :     0.000001
      g+1     :     0.000000
      g-1     :     0.000000
      g+2     :     0.000000
      g-2     :     0.000000
      g+3     :     0.000000
      g-3     :     0.000000
      g+4     :     0.000000
      g-4     :     0.000000
  2 Cus       :     6.448813  s :     6.448813
      pz      :     4.010486  p :    12.227654
      px      :     4.150415
      py      :     4.066752
      dz2     :     2.014197  d :     9.989753
      dxz     :     1.993295
      dyz     :     1.996087
      dx2y2   :     1.989866
      dxy     :     1.996308
      f0      :     0.000042  f :     0.000467
      f+1     :     0.000063
      f-1     :     0.000038
      f+2     :     0.000051
      f-2     :     0.000038
      f+3     :     0.000135
      f-3     :     0.000100
      g0      :     0.000000  g :     0.000001
      g+1     :     0.000000
      g-1     :     0.000000
      g+2     :     0.000000
      g-2     :     0.000000
      g+3     :     0.000000
      g-3     :     0.000000
      g+4     :     0.000000
      g-4     :     0.000000


                      *****************************
                      * MAYER POPULATION ANALYSIS *
                      *****************************

  NA   - Mulliken gross atomic population
  ZA   - Total nuclear charge
  QA   - Mulliken gross atomic charge
  VA   - Mayer's total valence
  BVA  - Mayer's bonded valence
  FA   - Mayer's free valence

  ATOM       NA         ZA         QA         VA         BVA        FA
  0 Cu    28.6665    29.0000     0.3335     1.0402     1.0402    -0.0000
  1 Cu    28.6667    29.0000     0.3333     1.0404     1.0404    -0.0000
  2 Cu    28.6667    29.0000     0.3333     1.0404     1.0404    -0.0000

  Mayer bond orders larger than 0.100000
B(  0-Cu,  1-Cu) :   0.5201 B(  0-Cu,  2-Cu) :   0.5201 B(  1-Cu,  2-Cu) :   0.5203 


-------
TIMINGS
-------

Total SCF time: 0 days 0 hours 0 min 6 sec 

Total time                  ....       6.295 sec
Sum of individual times     ....       6.041 sec  ( 96.0%)

Fock matrix formation       ....       5.648 sec  ( 89.7%)
  XC integration            ....       0.170 sec  (  3.0% of F)
    Basis function eval.    ....       0.030 sec  ( 17.9% of XC)
    Density eval.           ....       0.024 sec  ( 14.1% of XC)
    XC-Functional eval.     ....       0.014 sec  (  8.4% of XC)
    XC-Potential eval.      ....       0.029 sec  ( 17.1% of XC)
Diagonalization             ....       0.049 sec  (  0.8%)
Density matrix formation    ....       0.007 sec  (  0.1%)
Population analysis         ....       0.006 sec  (  0.1%)
Initial guess               ....       0.016 sec  (  0.2%)
Orbital Transformation      ....       0.000 sec  (  0.0%)
Orbital Orthonormalization  ....       0.011 sec  (  0.2%)
DIIS solution               ....       0.019 sec  (  0.3%)
Grid generation             ....       0.297 sec  (  4.7%)

-------------------------   --------------------
FINAL SINGLE POINT ENERGY     -4920.870837632163
-------------------------   --------------------

                                *** OPTIMIZATION RUN DONE ***

                            ***************************************
                            *     ORCA property calculations      *
                            ***************************************

                                    ---------------------
                                    Active property flags
                                    ---------------------
   (+) Dipole Moment


------------------------------------------------------------------------------
                       ORCA ELECTRIC PROPERTIES CALCULATION
------------------------------------------------------------------------------

Dipole Moment Calculation                       ... on
Quadrupole Moment Calculation                   ... off
Polarizability Calculation                      ... off
GBWName                                         ... Cu03C1_D3H.gbw
Electron density file                           ... Cu03C1_D3H.scfp
The origin for moment calculation is the CENTER OF MASS  = (-0.000000,  0.000001  0.000000)

-------------
DIPOLE MOMENT
-------------
                                X             Y             Z
Electronic contribution:      0.00000       0.00022      -0.00000
Nuclear contribution   :      0.00000       0.00000       0.00000
                        -----------------------------------------
Total Dipole Moment    :      0.00000       0.00022      -0.00000
                        -----------------------------------------
Magnitude (a.u.)       :      0.00022
Magnitude (Debye)      :      0.00056



--------------------
Rotational spectrum 
--------------------
 
Rotational constants in cm-1:     0.092255     0.092213     0.046117 
Rotational constants in MHz :  2765.741388  2764.474654  1382.553938 

 Dipole components along the rotational axes: 
x,y,z [a.u.] :    -0.000222    -0.000000    -0.000000 
x,y,z [Debye]:    -0.000564    -0.000000    -0.000000 

 

----------------------------------------------------------------------------
                           ORCA NUMERICAL FREQUENCIES
                              (24-process run)
----------------------------------------------------------------------------

Number of atoms                ... 3
Central differences            ... used
Number of displacements        ... 18
Numerical increment            ... 5.000e-03 bohr
IR-spectrum generation         ... on
Raman-spectrum generation      ... off
Surface Crossing Hessian       ... off

 WARNING: There are more processes than displacements to do
  ====> : Reducing number of processes to   9

The output will be reduced. Please look at the following files:
SCF program output             ... >Cu03C1_D3H.lastscf
Integral program output        ... >Cu03C1_D3H.lastint
Gradient program output        ... >Cu03C1_D3H.lastgrad
Dipole moment program output   ... >Cu03C1_D3H.lastmom
AutoCI program output          ... >Cu03C1_D3H.lastautoci


         <<< Energy and Gradient at the input geometry >>>

        <<< Energy and Gradient at displaced geometries >>>
             <<<Displacing   1/coordinate 3 (+)>>>
             <<<Displacing   2/coordinate 2 (+)>>>
             <<<Displacing   1/coordinate 1 (+)>>>
             <<<Displacing   1/coordinate 2 (+)>>>
             <<<Displacing   2/coordinate 3 (+)>>>
             <<<Displacing   3/coordinate 2 (+)>>>
             <<<Displacing   3/coordinate 1 (+)>>>
             <<<Displacing   3/coordinate 3 (+)>>>
             <<<Displacing   2/coordinate 1 (+)>>>
             <<<Displacing   1/coordinate 1 (-)>>>
             <<<Displacing   2/coordinate 3 (-)>>>
             <<<Displacing   3/coordinate 3 (-)>>>
             <<<Displacing   3/coordinate 1 (-)>>>
             <<<Displacing   1/coordinate 3 (-)>>>
             <<<Displacing   2/coordinate 1 (-)>>>
             <<<Displacing   3/coordinate 2 (-)>>>
             <<<Displacing   2/coordinate 2 (-)>>>
             <<<Displacing   1/coordinate 2 (-)>>>

-----------------------
VIBRATIONAL FREQUENCIES
-----------------------

Scaling factor for frequencies =  1.000000000 (already applied!)

   0:         0.00 cm**-1
   1:         0.00 cm**-1
   2:         0.00 cm**-1
   3:         0.00 cm**-1
   4:         0.00 cm**-1
   5:         0.00 cm**-1
   6:       167.28 cm**-1
   7:       168.69 cm**-1
   8:       237.78 cm**-1


------------
NORMAL MODES
------------

These modes are the cartesian displacements weighted by the diagonal matrix
M(i,i)=1/sqrt(m[i]) where m[i] is the mass of the displaced atom
Thus, these vectors are normalized but *not* orthogonal

                  0          1          2          3          4          5    
      0       0.000000   0.000000   0.000000   0.000000   0.000000   0.000000
      1       0.000000   0.000000   0.000000   0.000000   0.000000   0.000000
      2       0.000000   0.000000   0.000000   0.000000   0.000000   0.000000
      3       0.000000   0.000000   0.000000   0.000000   0.000000   0.000000
      4       0.000000   0.000000   0.000000   0.000000   0.000000   0.000000
      5       0.000000   0.000000   0.000000   0.000000   0.000000   0.000000
      6       0.000000   0.000000   0.000000   0.000000   0.000000   0.000000
      7       0.000000   0.000000   0.000000   0.000000   0.000000   0.000000
      8       0.000000   0.000000   0.000000   0.000000   0.000000   0.000000
                   6          7          8    
      0       0.014288   0.577107  -0.000239
      1       0.587368  -0.014308   0.566976
      2       0.000000   0.000000   0.000000
      3      -0.498004  -0.276190   0.508945
      4      -0.281307   0.507058  -0.283695
      5       0.000000   0.000000   0.000000
      6       0.483715  -0.300917  -0.508707
      7      -0.306061  -0.492750  -0.283281
      8       0.000000   0.000000   0.000000


-----------
IR SPECTRUM  
-----------

 Mode    freq (cm**-1)   T**2         TX         TY         TZ
-------------------------------------------------------------------
   6:       167.28    1.679170  ( -0.032052   1.295431   0.000002)
   7:       168.69    1.676672  ( -1.294466  -0.032075   0.000001)
   8:       237.78    0.000619  (  0.000550  -0.024869   0.000001)

The first frequency considered to be a vibration is 6
The total number of vibrations considered is 3


--------------------------
THERMOCHEMISTRY AT 298.15K
--------------------------

Temperature         ... 298.15 K
Pressure            ... 1.00 atm
Total Mass          ... 190.65 AMU

Throughout the following assumptions are being made:
  (1) The electronic state is orbitally nondegenerate
  (2) There are no thermally accessible electronically excited states
  (3) Hindered rotations indicated by low frequency modes are not
      treated as such but are treated as vibrations and this may
      cause some error
  (4) All equations used are the standard statistical mechanics
      equations for an ideal gas
  (5) All vibrations are strictly harmonic

freq.     167.28  E(vib)   ...       0.39 
freq.     168.69  E(vib)   ...       0.38 
freq.     237.78  E(vib)   ...       0.32 

------------
INNER ENERGY
------------

The inner energy is: U= E(el) + E(ZPE) + E(vib) + E(rot) + E(trans)
    E(el)   - is the total energy from the electronic structure calculation
              = E(kin-el) + E(nuc-el) + E(el-el) + E(nuc-nuc)
    E(ZPE)  - the the zero temperature vibrational energy from the frequency calculation
    E(vib)  - the the finite temperature correction to E(ZPE) due to population
              of excited vibrational states
    E(rot)  - is the rotational thermal energy
    E(trans)- is the translational thermal energy

Summary of contributions to the inner energy U:
Electronic energy                ...  -4920.87083763 Eh
Zero point energy                ...      0.00130710 Eh       0.82 kcal/mol
Thermal vibrational correction   ...      0.00172921 Eh       1.09 kcal/mol
Thermal rotational correction    ...      0.00141627 Eh       0.89 kcal/mol
Thermal translational correction ...      0.00141627 Eh       0.89 kcal/mol
-----------------------------------------------------------------------
Total thermal energy                  -4920.86496877 Eh


Summary of corrections to the electronic energy:
(perhaps to be used in another calculation)
Total thermal correction                  0.00456176 Eh       2.86 kcal/mol
Non-thermal (ZPE) correction              0.00130710 Eh       0.82 kcal/mol
-----------------------------------------------------------------------
Total correction                          0.00586885 Eh       3.68 kcal/mol


--------
ENTHALPY
--------

The enthalpy is H = U + kB*T
                kB is Boltzmann's constant
Total free energy                 ...  -4920.86496877 Eh 
Thermal Enthalpy correction       ...      0.00094421 Eh       0.59 kcal/mol
-----------------------------------------------------------------------
Total Enthalpy                    ...  -4920.86402457 Eh


Note: Rotational entropy computed according to Herzberg 
Infrared and Raman Spectra, Chapter V,1, Van Nostrand Reinhold, 1945 
Point Group:  C2v, Symmetry Number:   2  
Rotational constants in cm-1:     0.092255     0.092213     0.046117 

Vibrational entropy computed according to the QRRHO of S. Grimme
Chem.Eur.J. 2012 18 9955


-------
ENTROPY
-------

The entropy contributions are T*S = T*(S(el)+S(vib)+S(rot)+S(trans))
     S(el)   - electronic entropy
     S(vib)  - vibrational entropy
     S(rot)  - rotational entropy
     S(trans)- translational entropy
The entropies will be listed as mutliplied by the temperature to get
units of energy

Electronic entropy                ...      0.00000000 Eh      0.00 kcal/mol
Vibrational entropy               ...      0.00319020 Eh      2.00 kcal/mol
Rotational entropy                ...      0.01255916 Eh      7.88 kcal/mol
Translational entropy             ...      0.01978512 Eh     12.42 kcal/mol
-----------------------------------------------------------------------
Final entropy term                ...      0.03553448 Eh     22.30 kcal/mol

In case the symmetry of your molecule has not been determined correctly
or in case you have a reason to use a different symmetry number we print 
out the resulting rotational entropy values for sn=1,12 :
 --------------------------------------------------------
|  sn= 1 | S(rot)=       0.01321362 Eh      8.29 kcal/mol|
|  sn= 2 | S(rot)=       0.01255916 Eh      7.88 kcal/mol|
|  sn= 3 | S(rot)=       0.01217633 Eh      7.64 kcal/mol|
|  sn= 4 | S(rot)=       0.01190470 Eh      7.47 kcal/mol|
|  sn= 5 | S(rot)=       0.01169402 Eh      7.34 kcal/mol|
|  sn= 6 | S(rot)=       0.01152187 Eh      7.23 kcal/mol|
|  sn= 7 | S(rot)=       0.01137632 Eh      7.14 kcal/mol|
|  sn= 8 | S(rot)=       0.01125025 Eh      7.06 kcal/mol|
|  sn= 9 | S(rot)=       0.01113904 Eh      6.99 kcal/mol|
|  sn=10 | S(rot)=       0.01103956 Eh      6.93 kcal/mol|
|  sn=11 | S(rot)=       0.01094957 Eh      6.87 kcal/mol|
|  sn=12 | S(rot)=       0.01086741 Eh      6.82 kcal/mol|
 --------------------------------------------------------


-------------------
GIBBS FREE ENERGY
-------------------

The Gibbs free energy is G = H - T*S

Total enthalpy                    ...  -4920.86402457 Eh 
Total entropy correction          ...     -0.03553448 Eh    -22.30 kcal/mol
-----------------------------------------------------------------------
Final Gibbs free energy         ...  -4920.89955904 Eh

For completeness - the Gibbs free energy minus the electronic energy
G-E(el)                           ...     -0.02872142 Eh    -18.02 kcal/mol


Total Time for Numerical Frequencies  :      3302.873 sec

Timings for individual modules:

Sum of individual times         ...     1394.347 sec (=  23.239 min)
GTO integral calculation        ...        4.824 sec (=   0.080 min)   0.3 %
SCF iterations                  ...       54.477 sec (=   0.908 min)   3.9 %
SCF Gradient evaluation         ...     1334.875 sec (=  22.248 min)  95.7 %
Geometry relaxation             ...        0.172 sec (=   0.003 min)   0.0 %
                             ****ORCA TERMINATED NORMALLY****
TOTAL RUN TIME: 0 days 1 hours 13 minutes 51 seconds 46 msec
