
                                 *****************
                                 * O   R   C   A *
                                 *****************

           --- An Ab Initio, DFT and Semiempirical electronic structure package ---

                  #######################################################
                  #                        -***-                        #
                  #          Department of theory and spectroscopy      #
                  #               Directorship: Frank Neese             #
                  #        Max Planck Institute fuer Kohlenforschung    #
                  #                Kaiser Wilhelm Platz 1               #
                  #                 D-45470 Muelheim/Ruhr               #
                  #                      Germany                        #
                  #                                                     #
                  #                  All rights reserved                #
                  #                        -***-                        #
                  #######################################################


                         Program Version 4.2.0 -  RELEASE  -


 With contributions from (in alphabetic order):
   Daniel Aravena         : Magnetic Suceptibility
   Michael Atanasov       : Ab Initio Ligand Field Theory (pilot matlab implementation)
   Alexander A. Auer      : GIAO ZORA, VPT2
   Ute Becker             : Parallelization
   Giovanni Bistoni       : ED, misc. LED, open-shell LED, HFLED
   Martin Brehm           : Molecular dynamics
   Dmytro Bykov           : SCF Hessian
   Vijay G. Chilkuri      : MRCI spin determinant printing, contributions to CSF-ICE
   Dipayan Datta          : RHF DLPNO-CCSD density
   Achintya Kumar Dutta   : EOM-CC, STEOM-CC
   Dmitry Ganyushin       : Spin-Orbit,Spin-Spin,Magnetic field MRCI
   Miquel Garcia          : C-PCM Hessian, Gaussian charge scheme
   Yang Guo               : DLPNO-NEVPT2, CIM, IAO-localization
   Andreas Hansen         : Spin unrestricted coupled pair/coupled cluster methods
   Benjamin Helmich-Paris : CASSCF linear response (MC-RPA)
   Lee Huntington         : MR-EOM, pCC
   Robert Izsak           : Overlap fitted RIJCOSX, COSX-SCS-MP3, EOM
   Christian Kollmar      : KDIIS, OOCD, Brueckner-CCSD(T), CCSD density
   Simone Kossmann        : Meta GGA functionals, TD-DFT gradient, OOMP2, MP2 Hessian
   Martin Krupicka        : AUTO-CI
   Lucas Lang             : DCDCAS
   Dagmar Lenk            : GEPOL surface, SMD
   Dimitrios Liakos       : Extrapolation schemes; Compound Job, initial MDCI parallelization
   Dimitrios Manganas     : Further ROCIS development; embedding schemes
   Dimitrios Pantazis     : SARC Basis sets
   Taras Petrenko         : DFT Hessian,TD-DFT gradient, ASA, ECA, R-Raman, ABS, FL, XAS/XES, NRVS
   Peter Pinski           : DLPNO-MP2, DLPNO-MP2 Gradient
   Christoph Reimann      : Effective Core Potentials
   Marius Retegan         : Local ZFS, SOC
   Christoph Riplinger    : Optimizer, TS searches, QM/MM, DLPNO-CCSD(T), (RO)-DLPNO pert. Triples
   Tobias Risthaus        : Range-separated hybrids, TD-DFT gradient, RPA, STAB
   Michael Roemelt        : Original ROCIS implementation
   Masaaki Saitow         : Open-shell DLPNO-CCSD energy and density
   Barbara Sandhoefer     : DKH picture change effects
   Avijit Sen             : IP-ROCIS
   Kantharuban Sivalingam : CASSCF convergence, NEVPT2, FIC-MRCI
   Bernardo de Souza      : ESD, SOC TD-DFT
   Georgi Stoychev        : AutoAux, RI-MP2 NMR
   Willem Van den Heuvel  : Paramagnetic NMR
   Boris Wezisla          : Elementary symmetry handling
   Frank Wennmohs         : Technical directorship


 We gratefully acknowledge several colleagues who have allowed us to
 interface, adapt or use parts of their codes:
   Stefan Grimme, W. Hujo, H. Kruse,             : VdW corrections, initial TS optimization,
                  C. Bannwarth                     DFT functionals, gCP, sTDA/sTD-DF
   Ed Valeev, F. Pavosevic, A. Kumar             : LibInt (2-el integral package), F12 methods
   Garnet Chan, S. Sharma, J. Yang, R. Olivares  : DMRG
   Ulf Ekstrom                                   : XCFun DFT Library
   Mihaly Kallay                                 : mrcc  (arbitrary order and MRCC methods)
   Andreas Klamt, Michael Diedenhofen            : otool_cosmo (COSMO solvation model)
   Jiri Pittner, Ondrej Demel                    : Mk-CCSD
   Frank Weinhold                                : gennbo (NPA and NBO analysis)
   Christopher J. Cramer and Donald G. Truhlar   : smd solvation model
   Lars Goerigk                                  : TD-DFT with DH, B97 family of functionals
   V. Asgeirsson, H. Jonsson                     : NEB implementation
   FAccTs GmbH                                   : IRC, NEB, NEB-TS, Multilevel, MM, QM/MM, CI optimization
   S Lehtola, MJT Oliveira, MAL Marques          : LibXC Library


 Your calculation uses the libint2 library for the computation of 2-el integrals
 For citations please refer to: http://libint.valeyev.net

 Your ORCA version has been built with support for libXC version: 4.2.3
 For citations please refer to: https://tddft.org/programs/libxc/

 This ORCA versions uses:
   CBLAS   interface :  Fast vector & matrix operations
   LAPACKE interface :  Fast linear algebra routines
   SCALAPACK package :  Parallel linear algebra routines


Your calculation utilizes the DFT-NL dispersion correction.
Cite in your paper:
Vydrov, O. A.; Van Voorhis, T. J. Chem. Phys. 2010, 133, 244103
Hujo, W.; Grimme, S. J. Chem. Theory Comput. 2011, 7, 3866 
   

----- Orbital basis set information -----
Your calculation utilizes the basis: def2-TZVPPD
   F. Weigend and R. Ahlrichs, Phys. Chem. Chem. Phys. 7, 3297 (2005).
   D. Rappoport and F. Furche, J. Chem. Phys. 133 134105 (2010).

----- AuxJK basis set information -----
Your calculation utilizes the auxiliary basis: def2/JK
   H-Ba, Hf-Rn: F. Weigend, J. Comput. Chem. 29, 167 (2008).

================================================================================
                                        WARNINGS
                       Please study these warnings very carefully!
================================================================================


WARNING: Geometry Optimization
  ===> : Switching off AutoStart
         For restart on a previous wavefunction, please use MOREAD

INFO   : the flag for use of LIBINT has been found!

================================================================================
                                       INPUT FILE
================================================================================
NAME = Cu03C1_LIN.in
|  1> #
|  2> # Cu03C1_LIN wB97X-V/Def2-TZVPPD
|  3> #
|  4> ! wb97x-v def2-tzvppd def2/jk grid4 nofinalgrid opt xyzfile numfreq numgrad
|  5> 
|  6> *xyz 1 1
|  7> Cu       0.000000    0.000000    0.000000 
|  8> Cu       0.000000    0.000000    2.337165 
|  9> Cu       0.000000    0.000000   -2.337165 
| 10> *
| 11> 
| 12> %maxcore 5000
| 13> 
| 14> %pal
| 15> nprocs = 24
| 16> end
| 17> 
| 18> 
| 19>                          ****END OF INPUT****
================================================================================

                       *****************************
                       * Geometry Optimization Run *
                       *****************************

Geometry optimization settings:
Update method            Update   .... BFGS
Choice of coordinates    CoordSys .... Z-matrix Internals
Initial Hessian          InHess   .... Almoef's Model

Convergence Tolerances:
Energy Change            TolE     ....  5.0000e-06 Eh
Max. Gradient            TolMAXG  ....  3.0000e-04 Eh/bohr
RMS Gradient             TolRMSG  ....  1.0000e-04 Eh/bohr
Max. Displacement        TolMAXD  ....  4.0000e-03 bohr
RMS Displacement         TolRMSD  ....  2.0000e-03 bohr
Strict Convergence                ....  False
------------------------------------------------------------------------------
                        ORCA OPTIMIZATION COORDINATE SETUP
------------------------------------------------------------------------------

The optimization will be done in new redundant internal coordinates
Making redundant internal coordinates   ...  (new redundants) done
Evaluating the initial hessian          ...  (Almloef) done
Evaluating the coordinates              ...  done
Calculating the B-matrix                .... done
Calculating the G-matrix                .... done
Diagonalizing the G-matrix              .... done
The first mode is                       ....    0
The number of degrees of freedom        ....    4

    -----------------------------------------------------------------
                    Redundant Internal Coordinates


    -----------------------------------------------------------------
         Definition                    Initial Value    Approx d2E/dq
    -----------------------------------------------------------------
      1. B(Cu  1,Cu  0)                  2.3372         1.971727   
      2. B(Cu  2,Cu  0)                  2.3372         1.971727   
      3. L(Cu  1,Cu  0,Cu  2, 2)       180.0000         1.051601   
      4. L(Cu  1,Cu  0,Cu  2, 1)       180.0000         1.051601   
    -----------------------------------------------------------------

Number of atoms                         .... 3
Number of degrees of freedom            .... 4

         *************************************************************
         *                GEOMETRY OPTIMIZATION CYCLE   1            *
         *************************************************************
---------------------------------
CARTESIAN COORDINATES (ANGSTROEM)
---------------------------------
  Cu     0.000000    0.000000    0.000000
  Cu     0.000000    0.000000    2.337165
  Cu     0.000000    0.000000   -2.337165

----------------------------
CARTESIAN COORDINATES (A.U.)
----------------------------
  NO LB      ZA    FRAG     MASS         X           Y           Z
   0 Cu   29.0000    0    63.550    0.000000    0.000000    0.000000
   1 Cu   29.0000    0    63.550    0.000000    0.000000    4.416602
   2 Cu   29.0000    0    63.550    0.000000    0.000000   -4.416602

--------------------------------
INTERNAL COORDINATES (ANGSTROEM)
--------------------------------
 Cu     0   0   0     0.000000000000     0.00000000     0.00000000
 Cu     1   0   0     2.337165000000     0.00000000     0.00000000
 Cu     1   2   0     2.337165000000   180.00000000     0.00000000

---------------------------
INTERNAL COORDINATES (A.U.)
---------------------------
 Cu     0   0   0     0.000000000000     0.00000000     0.00000000
 Cu     1   0   0     4.416601779786     0.00000000     0.00000000
 Cu     1   2   0     4.416601779786   180.00000000     0.00000000

---------------------
BASIS SET INFORMATION
---------------------
There are 1 groups of distinct atoms

 Group   1 Type Cu  : 17s13p7d2f1g contracted to 6s6p4d2f1g pattern {842111/631111/4111/11/1}

Atom   0Cu   basis set group =>   1
Atom   1Cu   basis set group =>   1
Atom   2Cu   basis set group =>   1
----------------------------------
AUXILIARY/JK BASIS SET INFORMATION
----------------------------------
There are 1 groups of distinct atoms

 Group   1 Type Cu  : 19s14p12d10f7g3h1i contracted to 16s13p11d9f5g3h1i pattern {4111111111111111/2111111111111/21111111111/211111111/31111/111/1}

Atom   0Cu   basis set group =>   1
Atom   1Cu   basis set group =>   1
Atom   2Cu   basis set group =>   1


           ************************************************************
           *        Program running with 24 parallel MPI-processes    *
           *              working on a common directory               *
           ************************************************************
------------------------------------------------------------------------------
                           ORCA GTO INTEGRAL CALCULATION
------------------------------------------------------------------------------

                         BASIS SET STATISTICS AND STARTUP INFO

 # of primitive gaussian shells          ...  120
 # of primitive gaussian functions       ...  342
 # of contracted shells                  ...   57
 # of contracted basis functions         ...  201
 Highest angular momentum                ...    4
 Maximum contraction depth               ...    8
 Integral package used                   ... LIBINT
 Integral threshhold            Thresh   ...  2.500e-11
 Primitive cut-off              TCut     ...  2.500e-12


------------------------------ INTEGRAL EVALUATION ----------------------------


 * One electron integrals 
 Pre-screening matrix                    ... done
 Shell pair data                         ... done (   0.000 sec)



           ************************************************************
           *        Program running with 24 parallel MPI-processes    *
           *              working on a common directory               *
           ************************************************************
-------------------------------------------------------------------------------
                                 ORCA SCF
-------------------------------------------------------------------------------

------------
SCF SETTINGS
------------
Hamiltonian:
 Density Functional     Method          .... DFT(GTOs)
 Exchange Functional    Exchange        .... WB97X-V
 Correlation Functional Correlation     .... WB97X-V
 Gradients option       PostSCFGGA      .... off
 Hybrid DFT is turned on
   Fraction HF Exchange ScalHFX         ....  0.167000
   Scaling of DF-GGA-X  ScalDFX         ....  0.000000
   Scaling of DF-GGA-C  ScalDFC         ....  1.000000
   Scaling of DF-LDA-C  ScalLDAC        ....  1.000000
   Perturbative correction              ....  0.000000
   Density functional embedding theory  .... OFF
 Long-range corrected/Screened/Range-Separated Hybrid DFT is turned on
   Amount of maximum screened exact exchange              ....  0.833000
   Range separation parameter mu (erf(mu*r12)/r12)        ....  0.300000
   NL short-range parameter             ....  6.000000
   NL long-range parameter              ....  0.010000


General Settings:
 Integral files         IntName         .... Cu03C1_LIN
 Hartree-Fock type      HFTyp           .... RHF
 Total Charge           Charge          ....    1
 Multiplicity           Mult            ....    1
 Number of Electrons    NEL             ....   86
 Basis Dimension        Dim             ....  201
 Nuclear Repulsion      ENuc            ....    476.0447295979 Eh

Convergence Acceleration:
 DIIS                   CNVDIIS         .... on
   Start iteration      DIISMaxIt       ....    12
   Startup error        DIISStart       ....  0.200000
   # of expansion vecs  DIISMaxEq       ....     5
   Bias factor          DIISBfac        ....   1.050
   Max. coefficient     DIISMaxC        ....  10.000
 Newton-Raphson         CNVNR           .... off
 SOSCF                  CNVSOSCF        .... off
 Level Shifting         CNVShift        .... on
   Level shift para.    LevelShift      ....    0.2500
   Turn off err/grad.   ShiftErr        ....    0.0010
 Zerner damping         CNVZerner       .... off
 Static damping         CNVDamp         .... on
   Fraction old density DampFac         ....    0.7000
   Max. Damping (<1)    DampMax         ....    0.9800
   Min. Damping (>=0)   DampMin         ....    0.0000
   Turn off err/grad.   DampErr         ....    0.1000
 Fernandez-Rico         CNVRico         .... off

SCF Procedure:
 Maximum # iterations   MaxIter         ....   125
 SCF integral mode      SCFMode         .... Direct
   Integral package                     .... LIBINT
 Reset frequency        DirectResetFreq ....    20
 Integral Threshold     Thresh          ....  2.500e-11 Eh
 Primitive CutOff       TCut            ....  2.500e-12 Eh

Convergence Tolerance:
 Convergence Check Mode ConvCheckMode   .... Total+1el-Energy
 Convergence forced     ConvForced      .... 0
 Energy Change          TolE            ....  1.000e-08 Eh
 1-El. energy change                    ....  1.000e-05 Eh
 DIIS Error             TolErr          ....  5.000e-07


Diagonalization of the overlap matrix:
Smallest eigenvalue                        ... 3.551e-04
Time for diagonalization                   ...    0.007 sec
Threshold for overlap eigenvalues          ... 1.000e-08
Number of eigenvalues below threshold      ... 0
Time for construction of square roots      ...    0.005 sec
Total time needed                          ...    0.012 sec

-------------------
DFT GRID GENERATION
-------------------

General Integration Accuracy     IntAcc      ...  4.670
Radial Grid Type                 RadialGrid  ... Gauss-Chebyshev
Angular Grid (max. acc.)         AngularGrid ... Lebedev-302
Angular grid pruning method      GridPruning ... 3 (G Style)
Weight generation scheme         WeightScheme... Becke
Basis function cutoff            BFCut       ...    1.0000e-11
Integration weight cutoff        WCut        ...    1.0000e-14
Grids for H and He will be reduced by one unit

# of grid points (after initial pruning)     ...  28668 (   0.0 sec)
# of grid points (after weights+screening)   ...  28508 (   0.0 sec)
nearest neighbour list constructed           ...    0.0 sec
Grid point re-assignment to atoms done       ...    0.0 sec
Grid point division into batches done        ...    0.2 sec
Reduced shell lists constructed in    0.3 sec

Total number of grid points                  ...    28508
Total number of batches                      ...      447
Average number of points per batch           ...       63
Average number of grid points per atom       ...     9503
Average number of shells per batch           ...    19.10 (33.51%)
Average number of basis functions per batch  ...    56.10 (27.91%)
Average number of large shells per batch     ...    16.15 (84.55%)
Average number of large basis fcns per batch ...    46.85 (83.51%)
Maximum spatial batch extension              ...  26.18, 26.18,  4.39 au
Average spatial batch extension              ...   0.42,  0.42,  0.18 au

Time for grid setup =    0.272 sec

------------------------------
INITIAL GUESS: MODEL POTENTIAL
------------------------------
Loading Hartree-Fock densities                     ... done
Calculating cut-offs                               ... done
Setting up the integral package                    ... done
Initializing the effective Hamiltonian             ... done
Starting the Coulomb interaction                   ... done (   0.0 sec)
Reading the grid                                   ... done
Mapping shells                                     ... done
Starting the XC term evaluation                    ... done (   0.0 sec)
  promolecular density results
     # of electrons  =     87.000081437
     EX              =   -151.093917962
     EC              =     -5.386488480
     EX+EC           =   -156.480406441
Transforming the Hamiltonian                       ... done (   0.0 sec)
Diagonalizing the Hamiltonian                      ... done (   0.0 sec)
Back transforming the eigenvectors                 ... done (   0.0 sec)
Now organizing SCF variables                       ... done
                      ------------------
                      INITIAL GUESS DONE (   0.4 sec)
                      ------------------
--------------
SCF ITERATIONS
--------------
ITER       Energy         Delta-E        Max-DP      RMS-DP      [F,P]     Damp
               ***  Starting incremental Fock matrix formation  ***
  0  -4910.5856890934   0.000000000000 0.33296011  0.00880548  2.0223883 0.7000
  1  -4916.1724827826  -5.586793689224 0.23220502  0.00460783  0.5663840 0.7000
  2  -4917.8920174610  -1.719534678339 0.15989608  0.00284545  0.3085227 0.7000
  3  -4918.8505890210  -0.958571560052 0.11136679  0.00233543  0.3288413 0.7000
  4  -4919.5292910518  -0.678702030833 0.10698989  0.00185658  0.2400571 0.7000
                               ***Turning on DIIS***
  5  -4920.0090703554  -0.479779303521 0.08925413  0.00142337  0.1543187 0.7000
  6  -4920.3479758837  -0.338905528342 0.26403307  0.00396190  0.0975411 0.0000
  7  -4921.1607367998  -0.812760916083 0.05380455  0.00084758  0.0216055 0.0000
  8  -4921.1631206596  -0.002383859776 0.01485275  0.00025284  0.0302592 0.0000
  9  -4921.1650812666  -0.001960606993 0.00796612  0.00017507  0.0073984 0.0000
 10  -4921.1655255273  -0.000444260753 0.00685253  0.00011262  0.0082948 0.0000
 11  -4921.1656721199  -0.000146592605 0.00567805  0.00008207  0.0062322 0.0000
 12  -4921.1657906289  -0.000118509017 0.00376644  0.00005829  0.0011963 0.0000
 13  -4921.1658179283  -0.000027299369 0.00305977  0.00005097  0.0006127 0.0000
 14  -4921.1658277726  -0.000009844278 0.00076674  0.00001191  0.0001947 0.0000
 15  -4921.1658285724  -0.000000799864 0.00041974  0.00000517  0.0001040 0.0000
 16  -4921.1658287566  -0.000000184171 0.00027748  0.00000302  0.0000962 0.0000
 17  -4921.1658288184  -0.000000061734 0.00016989  0.00000197  0.0000450 0.0000
 18  -4921.1658288365  -0.000000018146 0.00007032  0.00000078  0.0000138 0.0000
 19  -4921.1658288396  -0.000000003137 0.00002505  0.00000029  0.0000163 0.0000
               *** Restarting incremental Fock matrix formation ***
                                   *** Resetting DIIS ***
 20  -4921.1658288405  -0.000000000839 0.00000895  0.00000013  0.0000037 0.0000
 21  -4921.1658288393   0.000000001205 0.00000173  0.00000004  0.0000070 0.0000
 22  -4921.1658288405  -0.000000001221 0.00001784  0.00000019  0.0000013 0.0000
                            ***DIIS convergence achieved***

               *****************************************************
               *                     SUCCESS                       *
               *           SCF CONVERGED AFTER  23 CYCLES          *
               *****************************************************


Setting up the DFT-NL grid :

General Integration Accuracy     IntAcc      ...  4.340
Radial Grid Type                 RadialGrid  ... Gauss-Chebyshev
Angular Grid (max. acc.)         AngularGrid ... Lebedev-110
Angular grid pruning method      GridPruning ... 3 (G Style)
Weight generation scheme         WeightScheme... Becke
Basis function cutoff            BFCut       ...    1.0000e-11
Integration weight cutoff        WCut        ...    1.0000e-14
Grids for H and He will be reduced by one unit

# of grid points (after initial pruning)     ...   8736 (   0.0 sec)
# of grid points (after weights+screening)   ...   8688 (   0.0 sec)
nearest neighbour list constructed           ...    0.0 sec
Grid point re-assignment to atoms done       ...    0.0 sec
Grid point division into batches done        ...    0.0 sec
Reduced shell lists constructed in    0.0 sec

Total number of grid points                  ...     8688
Total number of batches                      ...      137
Average number of points per batch           ...       63
Average number of grid points per atom       ...     2896
Average number of shells per batch           ...    19.71 (34.59%)
Average number of basis functions per batch  ...    60.29 (29.99%)
Average number of large shells per batch     ...    16.86 (85.51%)
Average number of large basis fcns per batch ...    49.43 (81.99%)
Maximum spatial batch extension              ...  17.92, 26.34,  4.36 au
Average spatial batch extension              ...   0.73,  0.88,  0.16 au

Final grid set up in    0.0 sec

-------------------------------------------------------------------------------
                         DFT-NL dispersion correction                          
-------------------------------------------------------------------------------

SC Energy -4921.165828839 
NL    Energy 0.364506948 
SC+NL Energy -4920.801321891 
NL done in    0.0 sec
-------------------------------------------------------------------------------

----------------
TOTAL SCF ENERGY
----------------

Total Energy       :        -4920.80132189 Eh         -133901.81141 eV

Components:
Nuclear Repulsion  :          476.04472960 Eh           12953.83565 eV
Electronic Energy  :        -5396.84605149 Eh         -146855.64706 eV
One Electron Energy:        -7798.05413132 Eh         -212195.84074 eV
Two Electron Energy:         2401.20807984 Eh           65340.19368 eV

Virial components:
Potential Energy   :        -9834.60705524 Eh         -267613.26317 eV
Kinetic Energy     :         4913.80573335 Eh          133711.45176 eV
Virial Ratio       :            2.00142366


DFT components:
N(Alpha)           :       42.999995564785 electrons
N(Beta)            :       42.999995564785 electrons
N(Total)           :       85.999991129569 electrons
E(X)               :     -151.372696680312 Eh       
E(C)               :       -5.389332021476 Eh       
NL Energy, E(C,NL) :        0.364506948280 Eh       
E(XC)              :     -156.397521753508 Eh       
DFET-embed. en.    :        0.000000000000 Eh       

---------------
SCF CONVERGENCE
---------------

  Last Energy change         ...    1.4588e-09  Tolerance :   1.0000e-08
  Last MAX-Density change    ...    4.2255e-06  Tolerance :   1.0000e-07
  Last RMS-Density change    ...    7.3141e-08  Tolerance :   5.0000e-09
  Last DIIS Error            ...    7.1538e-07  Tolerance :   5.0000e-07

             **** THE GBW FILE WAS UPDATED (Cu03C1_LIN.gbw) ****
             **** DENSITY FILE WAS UPDATED (Cu03C1_LIN.scfp) ****
             **** ENERGY FILE WAS UPDATED (Cu03C1_LIN.en.tmp) ****
             **** THE GBW FILE WAS UPDATED (Cu03C1_LIN.gbw) ****
             **** DENSITY FILE WAS UPDATED (Cu03C1_LIN.scfp) ****
----------------
ORBITAL ENERGIES
----------------

  NO   OCC          E(Eh)            E(eV) 
   0   2.0000    -323.063836     -8791.0139 
   1   2.0000    -323.063833     -8791.0138 
   2   2.0000    -323.016277     -8789.7197 
   3   2.0000     -39.037708     -1062.2700 
   4   2.0000     -39.037687     -1062.2695 
   5   2.0000     -38.998308     -1061.1979 
   6   2.0000     -34.235843      -931.6047 
   7   2.0000     -34.235840      -931.6046 
   8   2.0000     -34.235142      -931.5856 
   9   2.0000     -34.235142      -931.5856 
  10   2.0000     -34.235139      -931.5855 
  11   2.0000     -34.235139      -931.5855 
  12   2.0000     -34.196361      -930.5303 
  13   2.0000     -34.194322      -930.4748 
  14   2.0000     -34.194322      -930.4748 
  15   2.0000      -4.593032      -124.9827 
  16   2.0000      -4.593011      -124.9822 
  17   2.0000      -4.547976      -123.7567 
  18   2.0000      -3.090464       -84.0958 
  19   2.0000      -3.090330       -84.0922 
  20   2.0000      -3.088143       -84.0327 
  21   2.0000      -3.088143       -84.0327 
  22   2.0000      -3.088128       -84.0322 
  23   2.0000      -3.088128       -84.0322 
  24   2.0000      -3.047277       -82.9206 
  25   2.0000      -3.039830       -82.7180 
  26   2.0000      -3.039830       -82.7180 
  27   2.0000      -0.611521       -16.6403 
  28   2.0000      -0.593343       -16.1457 
  29   2.0000      -0.593343       -16.1457 
  30   2.0000      -0.587700       -15.9921 
  31   2.0000      -0.586235       -15.9523 
  32   2.0000      -0.586235       -15.9523 
  33   2.0000      -0.583085       -15.8666 
  34   2.0000      -0.583077       -15.8663 
  35   2.0000      -0.582686       -15.8557 
  36   2.0000      -0.582678       -15.8555 
  37   2.0000      -0.531647       -14.4668 
  38   2.0000      -0.531635       -14.4665 
  39   2.0000      -0.530580       -14.4378 
  40   2.0000      -0.530580       -14.4378 
  41   2.0000      -0.529652       -14.4126 
  42   2.0000      -0.466630       -12.6976 
  43   0.0000      -0.257270        -7.0007 
  44   0.0000      -0.150222        -4.0878 
  45   0.0000      -0.128694        -3.5019 
  46   0.0000      -0.128694        -3.5019 
  47   0.0000      -0.089833        -2.4445 
  48   0.0000      -0.079299        -2.1578 
  49   0.0000      -0.079299        -2.1578 
  50   0.0000      -0.018155        -0.4940 
  51   0.0000      -0.015962        -0.4343 
  52   0.0000      -0.015962        -0.4343 
  53   0.0000      -0.014660        -0.3989 
  54   0.0000      -0.003227        -0.0878 
  55   0.0000       0.032475         0.8837 
  56   0.0000       0.032475         0.8837 
  57   0.0000       0.043610         1.1867 
  58   0.0000       0.055961         1.5228 
  59   0.0000       0.055961         1.5228 
  60   0.0000       0.072381         1.9696 
  61   0.0000       0.072382         1.9696 
  62   0.0000       0.099217         2.6998 
  63   0.0000       0.109076         2.9681 
  64   0.0000       0.109077         2.9681 
  65   0.0000       0.115894         3.1536 
  66   0.0000       0.115894         3.1536 
  67   0.0000       0.130079         3.5396 
  68   0.0000       0.143555         3.9063 
  69   0.0000       0.143555         3.9063 
  70   0.0000       0.162789         4.4297 
  71   0.0000       0.197191         5.3658 
  72   0.0000       0.197191         5.3658 
  73   0.0000       0.205390         5.5889 
  74   0.0000       0.251653         6.8478 
  75   0.0000       0.251653         6.8478 
  76   0.0000       0.284245         7.7347 
  77   0.0000       0.365259         9.9392 
  78   0.0000       0.365259         9.9392 
  79   0.0000       0.401872        10.9355 
  80   0.0000       0.462608        12.5882 
  81   0.0000       0.527986        14.3672 
  82   0.0000       0.578455        15.7405 
  83   0.0000       0.578455        15.7405 
  84   0.0000       0.599787        16.3210 
  85   0.0000       0.599787        16.3210 
  86   0.0000       0.665088        18.0980 
  87   0.0000       0.665088        18.0980 
  88   0.0000       0.677920        18.4471 
  89   0.0000       0.783090        21.3090 
  90   0.0000       0.783096        21.3091 
  91   0.0000       0.808209        21.9925 
  92   0.0000       0.808209        21.9925 
  93   0.0000       0.811534        22.0830 
  94   0.0000       0.815962        22.2034 
  95   0.0000       0.815967        22.2036 
  96   0.0000       0.867712        23.6116 
  97   0.0000       0.874184        23.7877 
  98   0.0000       0.874184        23.7877 
  99   0.0000       0.896452        24.3937 
 100   0.0000       0.896459        24.3939 
 101   0.0000       1.080578        29.4040 
 102   0.0000       1.080578        29.4040 
 103   0.0000       1.103406        30.0252 
 104   0.0000       1.392127        37.8817 
 105   0.0000       2.876436        78.2718 
 106   0.0000       2.891870        78.6918 
 107   0.0000       2.891870        78.6918 
 108   0.0000       2.975984        80.9806 
 109   0.0000       2.975984        80.9806 
 110   0.0000       3.002442        81.7006 
 111   0.0000       3.025349        82.3239 
 112   0.0000       3.025349        82.3239 
 113   0.0000       3.029218        82.4292 
 114   0.0000       3.125185        85.0406 
 115   0.0000       3.261373        88.7465 
 116   0.0000       3.291221        89.5587 
 117   0.0000       3.328523        90.5737 
 118   0.0000       3.328523        90.5737 
 119   0.0000       3.333964        90.7218 
 120   0.0000       3.333973        90.7220 
 121   0.0000       3.334916        90.7477 
 122   0.0000       3.334924        90.7479 
 123   0.0000       3.335954        90.7759 
 124   0.0000       3.335954        90.7759 
 125   0.0000       3.335954        90.7759 
 126   0.0000       3.335954        90.7759 
 127   0.0000       3.336732        90.7971 
 128   0.0000       3.336732        90.7971 
 129   0.0000       3.384068        92.0852 
 130   0.0000       3.384068        92.0852 
 131   0.0000       3.392031        92.3019 
 132   0.0000       3.392050        92.3024 
 133   0.0000       3.400285        92.5264 
 134   0.0000       3.400285        92.5264 
 135   0.0000       3.405775        92.6759 
 136   0.0000       3.491085        94.9973 
 137   0.0000       3.575199        97.2861 
 138   0.0000       3.575244        97.2873 
 139   0.0000       3.589709        97.6810 
 140   0.0000       3.589752        97.6821 
 141   0.0000       3.627438        98.7076 
 142   0.0000       3.627438        98.7076 
 143   0.0000       3.661314        99.6294 
 144   0.0000       3.664402        99.7134 
 145   0.0000       3.664458        99.7150 
 146   0.0000       3.692761       100.4851 
 147   0.0000       3.692761       100.4851 
 148   0.0000       3.808500       103.6346 
 149   0.0000       3.808500       103.6346 
 150   0.0000       3.912790       106.4724 
 151   0.0000       3.996052       108.7381 
 152   0.0000       4.346270       118.2680 
 153   0.0000      12.869323       350.1921 
 154   0.0000      12.869323       350.1921 
 155   0.0000      12.869578       350.1990 
 156   0.0000      12.869619       350.2001 
 157   0.0000      12.869944       350.2090 
 158   0.0000      12.869944       350.2090 
 159   0.0000      12.870239       350.2170 
 160   0.0000      12.870281       350.2181 
 161   0.0000      12.870564       350.2259 
 162   0.0000      12.870860       350.2339 
 163   0.0000      12.870860       350.2339 
 164   0.0000      12.870881       350.2345 
 165   0.0000      12.870881       350.2345 
 166   0.0000      12.871074       350.2397 
 167   0.0000      12.871673       350.2560 
 168   0.0000      12.871674       350.2561 
 169   0.0000      12.871809       350.2597 
 170   0.0000      12.871809       350.2597 
 171   0.0000      12.918037       351.5177 
 172   0.0000      12.918037       351.5177 
 173   0.0000      12.918951       351.5425 
 174   0.0000      12.919999       351.5710 
 175   0.0000      12.920833       351.5937 
 176   0.0000      12.922677       351.6439 
 177   0.0000      12.922677       351.6439 
 178   0.0000      12.926450       351.7466 
 179   0.0000      12.926636       351.7517 
 180   0.0000      13.051923       355.1609 
 181   0.0000      13.052056       355.1645 
 182   0.0000      13.052773       355.1840 
 183   0.0000      13.052906       355.1876 
 184   0.0000      13.052977       355.1896 
 185   0.0000      13.052977       355.1896 
 186   0.0000      13.052979       355.1896 
 187   0.0000      13.052979       355.1896 
 188   0.0000      13.053078       355.1923 
 189   0.0000      13.053078       355.1923 
 190   0.0000      13.064759       355.5102 
 191   0.0000      13.064759       355.5102 
 192   0.0000      13.067862       355.5946 
 193   0.0000      13.096266       356.3675 
 194   0.0000      13.096441       356.3723 
 195   0.0000      13.099294       356.4499 
 196   0.0000      13.099294       356.4499 
 197   0.0000      13.107094       356.6622 
 198   0.0000      13.107094       356.6622 
 199   0.0000      13.131551       357.3277 
 200   0.0000      13.186434       358.8211 

                    ********************************
                    * MULLIKEN POPULATION ANALYSIS *
                    ********************************

-----------------------
MULLIKEN ATOMIC CHARGES
-----------------------
   0 Cu:   -0.354403
   1 Cu:    0.677204
   2 Cu:    0.677199
Sum of atomic charges:    1.0000000

--------------------------------
MULLIKEN REDUCED ORBITAL CHARGES
--------------------------------
  0 Cus       :     7.391372  s :     7.391372
      pz      :     3.992988  p :    12.011879
      px      :     4.009445
      py      :     4.009445
      dz2     :     1.981929  d :     9.950960
      dxz     :     1.984614
      dyz     :     1.984614
      dx2y2   :     1.999902
      dxy     :     1.999902
      f0      :     0.000074  f :     0.000190
      f+1     :     0.000053
      f-1     :     0.000053
      f+2     :     0.000006
      f-2     :     0.000006
      f+3     :     0.000000
      f-3     :     0.000000
      g0      :     0.000000  g :     0.000002
      g+1     :     0.000000
      g-1     :     0.000000
      g+2     :     0.000000
      g-2     :     0.000000
      g+3     :     0.000000
      g-3     :     0.000000
      g+4     :     0.000000
      g-4     :     0.000000
  1 Cus       :     6.305038  s :     6.305038
      pz      :     4.027215  p :    12.041893
      px      :     4.007339
      py      :     4.007339
      dz2     :     1.984518  d :     9.975730
      dxz     :     1.995568
      dyz     :     1.995568
      dx2y2   :     2.000038
      dxy     :     2.000038
      f0      :     0.000045  f :     0.000134
      f+1     :     0.000037
      f-1     :     0.000037
      f+2     :     0.000008
      f-2     :     0.000008
      f+3     :     0.000000
      f-3     :     0.000000
      g0      :     0.000000  g :     0.000000
      g+1     :     0.000000
      g-1     :     0.000000
      g+2     :     0.000000
      g-2     :     0.000000
      g+3     :     0.000000
      g-3     :     0.000000
      g+4     :     0.000000
      g-4     :     0.000000
  2 Cus       :     6.305041  s :     6.305041
      pz      :     4.027216  p :    12.041894
      px      :     4.007339
      py      :     4.007339
      dz2     :     1.984518  d :     9.975730
      dxz     :     1.995568
      dyz     :     1.995568
      dx2y2   :     2.000038
      dxy     :     2.000038
      f0      :     0.000045  f :     0.000134
      f+1     :     0.000037
      f-1     :     0.000037
      f+2     :     0.000008
      f-2     :     0.000008
      f+3     :     0.000000
      f-3     :     0.000000
      g0      :     0.000000  g :     0.000000
      g+1     :     0.000000
      g-1     :     0.000000
      g+2     :     0.000000
      g-2     :     0.000000
      g+3     :     0.000000
      g-3     :     0.000000
      g+4     :     0.000000
      g-4     :     0.000000


                     *******************************
                     * LOEWDIN POPULATION ANALYSIS *
                     *******************************

----------------------
LOEWDIN ATOMIC CHARGES
----------------------
   0 Cu:    0.144950
   1 Cu:    0.427525
   2 Cu:    0.427525

-------------------------------
LOEWDIN REDUCED ORBITAL CHARGES
-------------------------------
  0 Cus       :     6.774441  s :     6.774441
      pz      :     4.034805  p :    12.055088
      px      :     4.010141
      py      :     4.010142
      dz2     :     2.062096  d :    10.025023
      dxz     :     1.982011
      dyz     :     1.982011
      dx2y2   :     1.999452
      dxy     :     1.999453
      f0      :     0.000243  f :     0.000495
      f+1     :     0.000119
      f-1     :     0.000119
      f+2     :     0.000008
      f-2     :     0.000008
      f+3     :     0.000000
      f-3     :     0.000000
      g0      :     0.000001  g :     0.000002
      g+1     :     0.000001
      g-1     :     0.000001
      g+2     :     0.000000
      g-2     :     0.000000
      g+3     :     0.000000
      g-3     :     0.000000
      g+4     :     0.000000
      g-4     :     0.000000
  1 Cus       :     6.359181  s :     6.359181
      pz      :     4.170832  p :    12.188025
      px      :     4.008597
      py      :     4.008597
      dz2     :     2.034050  d :    10.024953
      dxz     :     1.995191
      dyz     :     1.995191
      dx2y2   :     2.000260
      dxy     :     2.000260
      f0      :     0.000143  f :     0.000315
      f+1     :     0.000076
      f-1     :     0.000076
      f+2     :     0.000010
      f-2     :     0.000010
      f+3     :     0.000000
      f-3     :     0.000000
      g0      :     0.000000  g :     0.000001
      g+1     :     0.000000
      g-1     :     0.000000
      g+2     :     0.000000
      g-2     :     0.000000
      g+3     :     0.000000
      g-3     :     0.000000
      g+4     :     0.000000
      g-4     :     0.000000
  2 Cus       :     6.359181  s :     6.359181
      pz      :     4.170832  p :    12.188025
      px      :     4.008597
      py      :     4.008597
      dz2     :     2.034050  d :    10.024953
      dxz     :     1.995191
      dyz     :     1.995191
      dx2y2   :     2.000260
      dxy     :     2.000260
      f0      :     0.000143  f :     0.000315
      f+1     :     0.000076
      f-1     :     0.000076
      f+2     :     0.000010
      f-2     :     0.000010
      f+3     :     0.000000
      f-3     :     0.000000
      g0      :     0.000000  g :     0.000001
      g+1     :     0.000000
      g-1     :     0.000000
      g+2     :     0.000000
      g-2     :     0.000000
      g+3     :     0.000000
      g-3     :     0.000000
      g+4     :     0.000000
      g-4     :     0.000000


                      *****************************
                      * MAYER POPULATION ANALYSIS *
                      *****************************

  NA   - Mulliken gross atomic population
  ZA   - Total nuclear charge
  QA   - Mulliken gross atomic charge
  VA   - Mayer's total valence
  BVA  - Mayer's bonded valence
  FA   - Mayer's free valence

  ATOM       NA         ZA         QA         VA         BVA        FA
  0 Cu    29.3544    29.0000    -0.3544     0.9390     0.9390     0.0000
  1 Cu    28.3228    29.0000     0.6772     0.6099     0.6099    -0.0000
  2 Cu    28.3228    29.0000     0.6772     0.6099     0.6099    -0.0000

  Mayer bond orders larger than 0.100000
B(  0-Cu,  1-Cu) :   0.4695 B(  0-Cu,  2-Cu) :   0.4695 B(  1-Cu,  2-Cu) :   0.1404 


-------
TIMINGS
-------

Total SCF time: 0 days 0 hours 0 min 18 sec 

Total time                  ....      18.963 sec
Sum of individual times     ....      18.701 sec  ( 98.6%)

Fock matrix formation       ....      18.079 sec  ( 95.3%)
  XC integration            ....       1.041 sec  (  5.8% of F)
    Basis function eval.    ....       0.094 sec  (  9.0% of XC)
    Density eval.           ....       0.065 sec  (  6.2% of XC)
    XC-Functional eval.     ....       0.048 sec  (  4.6% of XC)
    XC-Potential eval.      ....       0.104 sec  ( 10.0% of XC)
Diagonalization             ....       0.140 sec  (  0.7%)
Density matrix formation    ....       0.017 sec  (  0.1%)
Population analysis         ....       0.006 sec  (  0.0%)
Initial guess               ....       0.100 sec  (  0.5%)
Orbital Transformation      ....       0.000 sec  (  0.0%)
Orbital Orthonormalization  ....       0.000 sec  (  0.0%)
DIIS solution               ....       0.061 sec  (  0.3%)
Grid generation             ....       0.297 sec  (  1.6%)

-------------------------   --------------------
FINAL SINGLE POINT ENERGY     -4920.801321890752
-------------------------   --------------------


----------------------------------------------------------------------------
                           ORCA NUMERICAL GRADIENT
                              (24-process run)
----------------------------------------------------------------------------

I state                        ... 1
J state                        ... 0
Number of atoms                ... 3
Derivative's order of accuracy ... 2
Central differences            ... used
Number of displacements        ... 18
Numerical increment            ... 5.000e-03 bohr
Translation invariance         ... used

The output will be reduced. Please look at the following files:
SCF program output             ... >Cu03C1_LIN.lastscf
Integral program output        ... >Cu03C1_LIN.lastint
Gradient program output        ... >Cu03C1_LIN.lastgrad


     Note:   There are more processes than displacements to do
     ===>:   Reducing number of processes to   6

             <<<Displacing   3/coordinate 2 (+)>>>
             <<<Displacing   3/coordinate 1 (+)>>>
             <<<Displacing   2/coordinate 1 (+)>>>
             <<<Displacing   3/coordinate 3 (+)>>>
             <<<Displacing   2/coordinate 3 (+)>>>
             <<<Displacing   2/coordinate 2 (+)>>>
             <<<Displacing   2/coordinate 1 (-)>>>
             <<<Displacing   3/coordinate 1 (-)>>>
             <<<Displacing   2/coordinate 2 (-)>>>
             <<<Displacing   3/coordinate 2 (-)>>>
             <<<Displacing   2/coordinate 3 (-)>>>
             <<<Displacing   3/coordinate 3 (-)>>>

------------------------------
CARTESIAN GRADIENT (NUMERICAL)
-------------------------------
   1   Cu  :    0.000000070   -0.000000046   -0.000000169
   2   Cu  :   -0.000000019    0.000000018   -0.003217628
   3   Cu  :   -0.000000051    0.000000028    0.003217796

Norm of the cartesian gradient     ...    0.004550532
RMS gradient                       ...    0.001516844
MAX gradient                       ...    0.003217796

-------
TIMINGS
-------

Total numerical gradient time      ...      233.097 sec

------------------------------------------------------------------------------
                         ORCA GEOMETRY RELAXATION STEP
------------------------------------------------------------------------------

Reading the OPT-File                    .... done
Getting information on internals        .... done
Copying old internal coords+grads       .... done
Making the new internal coordinates     .... (new redundants).... done
Validating the new internal coordinates .... (new redundants).... done
Calculating the B-matrix                .... done
Calculating the G,G- and P matrices     .... done
Transforming gradient to internals      .... done
Projecting the internal gradient        .... done
Number of atoms                         ....   3
Number of internal coordinates          ....   4
Current Energy                          .... -4920.801321891 Eh
Current gradient norm                   ....     0.004550532 Eh/bohr
Maximum allowed component of the step   ....  0.300
Current trust radius                    ....  0.300
Evaluating the initial hessian          ....  (Almloef) done
Projecting the Hessian                  .... done
Forming the augmented Hessian           .... done
Diagonalizing the augmented Hessian     .... done
Last element of RFO vector              ....  0.999997337
Lowest eigenvalues of augmented Hessian:
 -0.000010502  1.051601113  1.051601113  1.971727228
Length of the computed step             ....  0.002307879
The final length of the internal step   ....  0.002307879
Converting the step to cartesian space:
 Initial RMS(Int)=    0.0011539395
Transforming coordinates:
 Iter   0:  RMS(Cart)=    0.0007692930 RMS(Int)=    0.0011539395
 Iter   1:  RMS(Cart)=    0.0000000017 RMS(Int)=    0.0000000000
done
Storing new coordinates                 .... done

                                .--------------------.
          ----------------------|Geometry convergence|-------------------------
          Item                value                   Tolerance       Converged
          ---------------------------------------------------------------------
          RMS gradient        0.0022752660            0.0001000000      NO
          MAX gradient        0.0032177964            0.0003000000      NO
          RMS step            0.0011539395            0.0020000000      YES
          MAX step            0.0016319597            0.0040000000      YES
          ........................................................
          Max(Bonds)      0.0009      Max(Angles)    0.00
          Max(Dihed)        0.00      Max(Improp)    0.00
          ---------------------------------------------------------------------

The optimization has not yet converged - more geometry cycles are needed


    ---------------------------------------------------------------------------
                         Redundant Internal Coordinates
                            (Angstroem and degrees)

        Definition                    Value    dE/dq     Step     New-Value
    ----------------------------------------------------------------------------
     1. B(Cu  1,Cu  0)                2.3372 -0.003218  0.0009    2.3380   
     2. B(Cu  2,Cu  0)                2.3372 -0.003218  0.0009    2.3380   
     3. L(Cu  1,Cu  0,Cu  2, 2)       180.00 -0.000000    0.00    180.00   
     4. L(Cu  1,Cu  0,Cu  2, 1)       180.00 -0.000000    0.00    180.00   
    ----------------------------------------------------------------------------

         *************************************************************
         *                GEOMETRY OPTIMIZATION CYCLE   2            *
         *************************************************************
---------------------------------
CARTESIAN COORDINATES (ANGSTROEM)
---------------------------------
  Cu    -0.000000    0.000000    0.000000
  Cu     0.000000   -0.000000    2.338029
  Cu     0.000000   -0.000000   -2.338029

----------------------------
CARTESIAN COORDINATES (A.U.)
----------------------------
  NO LB      ZA    FRAG     MASS         X           Y           Z
   0 Cu   29.0000    0    63.550   -0.000000    0.000000    0.000000
   1 Cu   29.0000    0    63.550    0.000000   -0.000000    4.418234
   2 Cu   29.0000    0    63.550    0.000000   -0.000000   -4.418234

--------------------------------
INTERNAL COORDINATES (ANGSTROEM)
--------------------------------
 Cu     0   0   0     0.000000000000     0.00000000     0.00000000
 Cu     1   0   0     2.338028550530     0.00000000     0.00000000
 Cu     1   2   0     2.338028595858   180.00000000     0.00000000

---------------------------
INTERNAL COORDINATES (A.U.)
---------------------------
 Cu     0   0   0     0.000000000000     0.00000000     0.00000000
 Cu     1   0   0     4.418233653791     0.00000000     0.00000000
 Cu     1   2   0     4.418233739448   180.00000000     0.00000000



           ************************************************************
           *        Program running with 24 parallel MPI-processes    *
           *              working on a common directory               *
           ************************************************************


           ************************************************************
           *        Program running with 24 parallel MPI-processes    *
           *              working on a common directory               *
           ************************************************************

Diagonalization of the overlap matrix:
Smallest eigenvalue                        ... 3.556e-04
Time for diagonalization                   ...    0.007 sec
Threshold for overlap eigenvalues          ... 1.000e-08
Number of eigenvalues below threshold      ... 0
Time for construction of square roots      ...    0.006 sec
Total time needed                          ...    0.013 sec

-------------------
DFT GRID GENERATION
-------------------

General Integration Accuracy     IntAcc      ...  4.670
Radial Grid Type                 RadialGrid  ... Gauss-Chebyshev
Angular Grid (max. acc.)         AngularGrid ... Lebedev-302
Angular grid pruning method      GridPruning ... 3 (G Style)
Weight generation scheme         WeightScheme... Becke
Basis function cutoff            BFCut       ...    1.0000e-11
Integration weight cutoff        WCut        ...    1.0000e-14
Grids for H and He will be reduced by one unit

# of grid points (after initial pruning)     ...  28668 (   0.0 sec)
# of grid points (after weights+screening)   ...  28508 (   0.0 sec)
nearest neighbour list constructed           ...    0.0 sec
Grid point re-assignment to atoms done       ...    0.0 sec
Grid point division into batches done        ...    0.2 sec
Reduced shell lists constructed in    0.2 sec

Total number of grid points                  ...    28508
Total number of batches                      ...      447
Average number of points per batch           ...       63
Average number of grid points per atom       ...     9503
Average number of shells per batch           ...    19.10 (33.51%)
Average number of basis functions per batch  ...    56.10 (27.91%)
Average number of large shells per batch     ...    16.15 (84.55%)
Average number of large basis fcns per batch ...    46.85 (83.51%)
Maximum spatial batch extension              ...  26.18, 26.18,  4.39 au
Average spatial batch extension              ...   0.42,  0.42,  0.18 au

Time for grid setup =    0.265 sec

--------------
SCF ITERATIONS
--------------
ITER       Energy         Delta-E        Max-DP      RMS-DP      [F,P]     Damp
               ***  Starting incremental Fock matrix formation  ***
  0  -4921.1658435555   0.000000000000 0.00005661  0.00000107  0.0005924 0.7000
  1  -4921.1658435684  -0.000000012974 0.00005524  0.00000099  0.0004149 0.7000
                               ***Turning on DIIS***
  2  -4921.1658435769  -0.000000008440 0.00015825  0.00000272  0.0002905 0.0000
  3  -4921.1658436013  -0.000000024375 0.00001630  0.00000036  0.0000077 0.0000
  4  -4921.1658436018  -0.000000000568 0.00001606  0.00000018  0.0000043 0.0000
  5  -4921.1658436003   0.000000001500 0.00000189  0.00000005  0.0000066 0.0000
  6  -4921.1658436010  -0.000000000646 0.00001523  0.00000016  0.0000026 0.0000
                 **** Energy Check signals convergence ****

               *****************************************************
               *                     SUCCESS                       *
               *           SCF CONVERGED AFTER   7 CYCLES          *
               *****************************************************


Setting up the DFT-NL grid :

General Integration Accuracy     IntAcc      ...  4.340
Radial Grid Type                 RadialGrid  ... Gauss-Chebyshev
Angular Grid (max. acc.)         AngularGrid ... Lebedev-110
Angular grid pruning method      GridPruning ... 3 (G Style)
Weight generation scheme         WeightScheme... Becke
Basis function cutoff            BFCut       ...    1.0000e-11
Integration weight cutoff        WCut        ...    1.0000e-14
Grids for H and He will be reduced by one unit

# of grid points (after initial pruning)     ...   8736 (   0.0 sec)
# of grid points (after weights+screening)   ...   8688 (   0.0 sec)
nearest neighbour list constructed           ...    0.0 sec
Grid point re-assignment to atoms done       ...    0.0 sec
Grid point division into batches done        ...    0.0 sec
Reduced shell lists constructed in    0.0 sec

Total number of grid points                  ...     8688
Total number of batches                      ...      137
Average number of points per batch           ...       63
Average number of grid points per atom       ...     2896
Average number of shells per batch           ...    19.71 (34.59%)
Average number of basis functions per batch  ...    60.29 (29.99%)
Average number of large shells per batch     ...    16.86 (85.51%)
Average number of large basis fcns per batch ...    49.43 (81.99%)
Maximum spatial batch extension              ...  17.92, 26.34,  4.36 au
Average spatial batch extension              ...   0.73,  0.88,  0.16 au

Final grid set up in    0.0 sec

-------------------------------------------------------------------------------
                         DFT-NL dispersion correction                          
-------------------------------------------------------------------------------

SC Energy -4921.165843599 
NL    Energy 0.364511355 
SC+NL Energy -4920.801332244 
NL done in    0.0 sec
-------------------------------------------------------------------------------
Total Energy       :        -4920.80133224 Eh         -133901.81169 eV
  Last Energy change         ...    2.2392e-09  Tolerance :   1.0000e-08
  Last MAX-Density change    ...    7.6473e-06  Tolerance :   1.0000e-07
             **** THE GBW FILE WAS UPDATED (Cu03C1_LIN.gbw) ****
             **** DENSITY FILE WAS UPDATED (Cu03C1_LIN.scfp) ****
             **** ENERGY FILE WAS UPDATED (Cu03C1_LIN.en.tmp) ****
             **** THE GBW FILE WAS UPDATED (Cu03C1_LIN.gbw) ****
             **** DENSITY FILE WAS UPDATED (Cu03C1_LIN.scfp) ****
Total SCF time: 0 days 0 hours 0 min 5 sec 

-------------------------   --------------------
FINAL SINGLE POINT ENERGY     -4920.801332243776
-------------------------   --------------------


----------------------------------------------------------------------------
                           ORCA NUMERICAL GRADIENT
                              (24-process run)
----------------------------------------------------------------------------

I state                        ... 1
J state                        ... 0
Number of atoms                ... 3
Derivative's order of accuracy ... 2
Central differences            ... used
Number of displacements        ... 18
Numerical increment            ... 5.000e-03 bohr
Translation invariance         ... used

The output will be reduced. Please look at the following files:
SCF program output             ... >Cu03C1_LIN.lastscf
Integral program output        ... >Cu03C1_LIN.lastint
Gradient program output        ... >Cu03C1_LIN.lastgrad


     Note:   There are more processes than displacements to do
     ===>:   Reducing number of processes to   6

             <<<Displacing   3/coordinate 2 (+)>>>
             <<<Displacing   3/coordinate 3 (+)>>>
             <<<Displacing   2/coordinate 2 (+)>>>
             <<<Displacing   3/coordinate 1 (+)>>>
             <<<Displacing   2/coordinate 3 (+)>>>
             <<<Displacing   2/coordinate 1 (+)>>>
             <<<Displacing   2/coordinate 2 (-)>>>
             <<<Displacing   2/coordinate 1 (-)>>>
             <<<Displacing   3/coordinate 1 (-)>>>
             <<<Displacing   3/coordinate 2 (-)>>>
             <<<Displacing   3/coordinate 3 (-)>>>
             <<<Displacing   2/coordinate 3 (-)>>>

------------------------------
CARTESIAN GRADIENT (NUMERICAL)
-------------------------------
   1   Cu  :   -0.000000028   -0.000000011    0.000000046
   2   Cu  :    0.000000015   -0.000000001   -0.003129099
   3   Cu  :    0.000000012    0.000000011    0.003129053

Norm of the cartesian gradient     ...    0.004425182
RMS gradient                       ...    0.001475061
MAX gradient                       ...    0.003129099

-------
TIMINGS
-------

Total numerical gradient time      ...      232.878 sec

------------------------------------------------------------------------------
                         ORCA GEOMETRY RELAXATION STEP
------------------------------------------------------------------------------

Reading the OPT-File                    .... done
Getting information on internals        .... done
Copying old internal coords+grads       .... done
Making the new internal coordinates     .... (new redundants).... done
Validating the new internal coordinates .... (new redundants).... done
Calculating the B-matrix                .... done
Calculating the G,G- and P matrices     .... done
Transforming gradient to internals      .... done
Projecting the internal gradient        .... done
Number of atoms                         ....   3
Number of internal coordinates          ....   4
Current Energy                          .... -4920.801332244 Eh
Current gradient norm                   ....     0.004425182 Eh/bohr
Maximum allowed component of the step   ....  0.300
Current trust radius                    ....  0.300
Updating the Hessian (BFGS)             .... done
Forming the augmented Hessian           .... done
Diagonalizing the augmented Hessian     .... done
Last element of RFO vector              ....  0.996740340
Lowest eigenvalues of augmented Hessian:
 -0.000358176  0.054672155  1.051601113  1.051601123
Length of the computed step             ....  0.080940323
The final length of the internal step   ....  0.080940323
Converting the step to cartesian space:
 Initial RMS(Int)=    0.0404701615
Transforming coordinates:
 Iter   0:  RMS(Cart)=    0.0269801077 RMS(Int)=    0.0404701615
 Iter   1:  RMS(Cart)=    0.0000000959 RMS(Int)=    0.0000000788
done
Storing new coordinates                 .... done

                                .--------------------.
          ----------------------|Geometry convergence|-------------------------
          Item                value                   Tolerance       Converged
          ---------------------------------------------------------------------
          Energy change      -0.0000103530            0.0000050000      NO
          RMS gradient        0.0022125909            0.0001000000      NO
          MAX gradient        0.0031290989            0.0003000000      NO
          RMS step            0.0404701615            0.0020000000      NO
          MAX step            0.0572338680            0.0040000000      NO
          ........................................................
          Max(Bonds)      0.0303      Max(Angles)    0.00
          Max(Dihed)        0.00      Max(Improp)    0.00
          ---------------------------------------------------------------------

The optimization has not yet converged - more geometry cycles are needed


    ---------------------------------------------------------------------------
                         Redundant Internal Coordinates
                            (Angstroem and degrees)

        Definition                    Value    dE/dq     Step     New-Value
    ----------------------------------------------------------------------------
     1. B(Cu  1,Cu  0)                2.3380 -0.003129  0.0303    2.3683   
     2. B(Cu  2,Cu  0)                2.3380 -0.003129  0.0303    2.3683   
     3. L(Cu  1,Cu  0,Cu  2, 2)       180.00  0.000000   -0.00    180.00   
     4. L(Cu  1,Cu  0,Cu  2, 1)       180.00 -0.000000    0.00    180.00   
    ----------------------------------------------------------------------------

         *************************************************************
         *                GEOMETRY OPTIMIZATION CYCLE   3            *
         *************************************************************


           ************************************************************
           *        Program running with 24 parallel MPI-processes    *
           *              working on a common directory               *
           ************************************************************


           ************************************************************
           *        Program running with 24 parallel MPI-processes    *
           *              working on a common directory               *
           ************************************************************

Diagonalization of the overlap matrix:
Smallest eigenvalue                        ... 3.722e-04
Time for diagonalization                   ...    0.010 sec
Threshold for overlap eigenvalues          ... 1.000e-08
Number of eigenvalues below threshold      ... 0
Time for construction of square roots      ...    0.006 sec
Total time needed                          ...    0.016 sec

-------------------
DFT GRID GENERATION
-------------------

General Integration Accuracy     IntAcc      ...  4.670
Radial Grid Type                 RadialGrid  ... Gauss-Chebyshev
Angular Grid (max. acc.)         AngularGrid ... Lebedev-302
Angular grid pruning method      GridPruning ... 3 (G Style)
Weight generation scheme         WeightScheme... Becke
Basis function cutoff            BFCut       ...    1.0000e-11
Integration weight cutoff        WCut        ...    1.0000e-14
Grids for H and He will be reduced by one unit

# of grid points (after initial pruning)     ...  28668 (   0.0 sec)
# of grid points (after weights+screening)   ...  28516 (   0.0 sec)
nearest neighbour list constructed           ...    0.0 sec
Grid point re-assignment to atoms done       ...    0.0 sec
Grid point division into batches done        ...    0.2 sec
Reduced shell lists constructed in    0.2 sec

Total number of grid points                  ...    28516
Total number of batches                      ...      447
Average number of points per batch           ...       63
Average number of grid points per atom       ...     9505
Average number of shells per batch           ...    18.70 (32.81%)
Average number of basis functions per batch  ...    54.90 (27.31%)
Average number of large shells per batch     ...    16.15 (86.36%)
Average number of large basis fcns per batch ...    46.85 (85.34%)
Maximum spatial batch extension              ...  26.18, 26.18,  4.45 au
Average spatial batch extension              ...   0.42,  0.42,  0.18 au

Time for grid setup =    0.282 sec

--------------
SCF ITERATIONS
--------------
ITER       Energy         Delta-E        Max-DP      RMS-DP      [F,P]     Damp
               ***  Starting incremental Fock matrix formation  ***
  0  -4921.1661238201   0.000000000000 0.00206632  0.00003640  0.0206659 0.7000
  1  -4921.1661404673  -0.000016647155 0.00194501  0.00003377  0.0144756 0.7000
                               ***Turning on DIIS***
  2  -4921.1661526262  -0.000012158932 0.00500859  0.00008778  0.0101361 0.0000
  3  -4921.1661828200  -0.000030193846 0.00069922  0.00001521  0.0002520 0.0000
  4  -4921.1661838608  -0.000001040770 0.00045293  0.00000536  0.0001644 0.0000
  5  -4921.1661839292  -0.000000068358 0.00008734  0.00000224  0.0002369 0.0000
  6  -4921.1661840822  -0.000000153030 0.00008061  0.00000163  0.0000665 0.0000
  7  -4921.1661841008  -0.000000018579 0.00003011  0.00000055  0.0000484 0.0000
  8  -4921.1661841055  -0.000000004705 0.00004245  0.00000053  0.0000243 0.0000
  9  -4921.1661841078  -0.000000002334 0.00004438  0.00000051  0.0000077 0.0000
 10  -4921.1661841098  -0.000000001979 0.00002209  0.00000023  0.0000031 0.0000
 11  -4921.1661841098   0.000000000047 0.00000469  0.00000007  0.0000011 0.0000
 12  -4921.1661841095   0.000000000275 0.00000315  0.00000005  0.0000015 0.0000
                            ***DIIS convergence achieved***

               *****************************************************
               *                     SUCCESS                       *
               *           SCF CONVERGED AFTER  13 CYCLES          *
               *****************************************************


Setting up the DFT-NL grid :

General Integration Accuracy     IntAcc      ...  4.340
Radial Grid Type                 RadialGrid  ... Gauss-Chebyshev
Angular Grid (max. acc.)         AngularGrid ... Lebedev-110
Angular grid pruning method      GridPruning ... 3 (G Style)
Weight generation scheme         WeightScheme... Becke
Basis function cutoff            BFCut       ...    1.0000e-11
Integration weight cutoff        WCut        ...    1.0000e-14
Grids for H and He will be reduced by one unit

# of grid points (after initial pruning)     ...   8736 (   0.0 sec)
# of grid points (after weights+screening)   ...   8688 (   0.0 sec)
nearest neighbour list constructed           ...    0.0 sec
Grid point re-assignment to atoms done       ...    0.0 sec
Grid point division into batches done        ...    0.0 sec
Reduced shell lists constructed in    0.0 sec

Total number of grid points                  ...     8688
Total number of batches                      ...      137
Average number of points per batch           ...       63
Average number of grid points per atom       ...     2896
Average number of shells per batch           ...    19.71 (34.59%)
Average number of basis functions per batch  ...    60.29 (29.99%)
Average number of large shells per batch     ...    16.86 (85.51%)
Average number of large basis fcns per batch ...    49.43 (81.99%)
Maximum spatial batch extension              ...  17.92, 26.34,  4.36 au
Average spatial batch extension              ...   0.73,  0.88,  0.16 au

Final grid set up in    0.0 sec

-------------------------------------------------------------------------------
                         DFT-NL dispersion correction                          
-------------------------------------------------------------------------------

SC Energy -4921.166184110 
NL    Energy 0.364663277 
SC+NL Energy -4920.801520833 
NL done in    0.0 sec
-------------------------------------------------------------------------------
Total Energy       :        -4920.80152083 Eh         -133901.81682 eV
  Last Energy change         ...   -1.6917e-10  Tolerance :   1.0000e-08
  Last MAX-Density change    ...    4.9850e-06  Tolerance :   1.0000e-07
             **** THE GBW FILE WAS UPDATED (Cu03C1_LIN.gbw) ****
             **** DENSITY FILE WAS UPDATED (Cu03C1_LIN.scfp) ****
             **** ENERGY FILE WAS UPDATED (Cu03C1_LIN.en.tmp) ****
             **** THE GBW FILE WAS UPDATED (Cu03C1_LIN.gbw) ****
             **** DENSITY FILE WAS UPDATED (Cu03C1_LIN.scfp) ****
Total SCF time: 0 days 0 hours 0 min 9 sec 

-------------------------   --------------------
FINAL SINGLE POINT ENERGY     -4920.801520832852
-------------------------   --------------------


----------------------------------------------------------------------------
                           ORCA NUMERICAL GRADIENT
                              (24-process run)
----------------------------------------------------------------------------

I state                        ... 1
J state                        ... 0
Number of atoms                ... 3
Derivative's order of accuracy ... 2
Central differences            ... used
Number of displacements        ... 18
Numerical increment            ... 5.000e-03 bohr
Translation invariance         ... used

The output will be reduced. Please look at the following files:
SCF program output             ... >Cu03C1_LIN.lastscf
Integral program output        ... >Cu03C1_LIN.lastint
Gradient program output        ... >Cu03C1_LIN.lastgrad


     Note:   There are more processes than displacements to do
     ===>:   Reducing number of processes to   6

             <<<Displacing   2/coordinate 1 (+)>>>
             <<<Displacing   3/coordinate 2 (+)>>>
             <<<Displacing   2/coordinate 3 (+)>>>
             <<<Displacing   2/coordinate 2 (+)>>>
             <<<Displacing   3/coordinate 3 (+)>>>
             <<<Displacing   3/coordinate 1 (+)>>>
             <<<Displacing   3/coordinate 2 (-)>>>
             <<<Displacing   2/coordinate 2 (-)>>>
             <<<Displacing   2/coordinate 1 (-)>>>
             <<<Displacing   3/coordinate 1 (-)>>>
             <<<Displacing   2/coordinate 3 (-)>>>
             <<<Displacing   3/coordinate 3 (-)>>>

------------------------------
CARTESIAN GRADIENT (NUMERICAL)
-------------------------------
   1   Cu  :   -0.000000056   -0.000000115   -0.000000043
   2   Cu  :   -0.000000007    0.000000048   -0.000235920
   3   Cu  :    0.000000063    0.000000067    0.000235963

Norm of the cartesian gradient     ...    0.000333672
RMS gradient                       ...    0.000111224
MAX gradient                       ...    0.000235963

-------
TIMINGS
-------

Total numerical gradient time      ...      234.871 sec

------------------------------------------------------------------------------
                         ORCA GEOMETRY RELAXATION STEP
------------------------------------------------------------------------------

Reading the OPT-File                    .... done
Getting information on internals        .... done
Copying old internal coords+grads       .... done
Making the new internal coordinates     .... (new redundants).... done
Validating the new internal coordinates .... (new redundants).... done
Calculating the B-matrix                .... done
Calculating the G,G- and P matrices     .... done
Transforming gradient to internals      .... done
Projecting the internal gradient        .... done
Number of atoms                         ....   3
Number of internal coordinates          ....   4
Current Energy                          .... -4920.801520833 Eh
Current gradient norm                   ....     0.000333672 Eh/bohr
Maximum allowed component of the step   ....  0.300
Current trust radius                    ....  0.300
Updating the Hessian (BFGS)             .... done
Forming the augmented Hessian           .... done
Diagonalizing the augmented Hessian     .... done
Last element of RFO vector              ....  0.999978217
Lowest eigenvalues of augmented Hessian:
 -0.000002202  0.050551913  1.051601113  1.051601122
Length of the computed step             ....  0.006600580
The final length of the internal step   ....  0.006600580
Converting the step to cartesian space:
 Initial RMS(Int)=    0.0033002902
Transforming coordinates:
 Iter   0:  RMS(Cart)=    0.0022001934 RMS(Int)=    0.0033002902
 Iter   1:  RMS(Cart)=    0.0000000084 RMS(Int)=    0.0000000035
done
Storing new coordinates                 .... done

                                .--------------------.
          ----------------------|Geometry convergence|-------------------------
          Item                value                   Tolerance       Converged
          ---------------------------------------------------------------------
          Energy change      -0.0001885891            0.0000050000      NO
          RMS gradient        0.0001668360            0.0001000000      NO
          MAX gradient        0.0002359632            0.0003000000      YES
          RMS step            0.0033002902            0.0020000000      NO
          MAX step            0.0046673364            0.0040000000      NO
          ........................................................
          Max(Bonds)      0.0025      Max(Angles)    0.00
          Max(Dihed)        0.00      Max(Improp)    0.00
          ---------------------------------------------------------------------

The optimization has not yet converged - more geometry cycles are needed


    ---------------------------------------------------------------------------
                         Redundant Internal Coordinates
                            (Angstroem and degrees)

        Definition                    Value    dE/dq     Step     New-Value
    ----------------------------------------------------------------------------
     1. B(Cu  1,Cu  0)                2.3683 -0.000236  0.0025    2.3708   
     2. B(Cu  2,Cu  0)                2.3683 -0.000236  0.0025    2.3708   
     3. L(Cu  1,Cu  0,Cu  2, 2)       180.00  0.000000   -0.00    180.00   
     4. L(Cu  1,Cu  0,Cu  2, 1)       180.00 -0.000000    0.00    180.00   
    ----------------------------------------------------------------------------

         *************************************************************
         *                GEOMETRY OPTIMIZATION CYCLE   4            *
         *************************************************************


           ************************************************************
           *        Program running with 24 parallel MPI-processes    *
           *              working on a common directory               *
           ************************************************************


           ************************************************************
           *        Program running with 24 parallel MPI-processes    *
           *              working on a common directory               *
           ************************************************************

Diagonalization of the overlap matrix:
Smallest eigenvalue                        ... 3.736e-04
Time for diagonalization                   ...    0.009 sec
Threshold for overlap eigenvalues          ... 1.000e-08
Number of eigenvalues below threshold      ... 0
Time for construction of square roots      ...    0.006 sec
Total time needed                          ...    0.015 sec

-------------------
DFT GRID GENERATION
-------------------

General Integration Accuracy     IntAcc      ...  4.670
Radial Grid Type                 RadialGrid  ... Gauss-Chebyshev
Angular Grid (max. acc.)         AngularGrid ... Lebedev-302
Angular grid pruning method      GridPruning ... 3 (G Style)
Weight generation scheme         WeightScheme... Becke
Basis function cutoff            BFCut       ...    1.0000e-11
Integration weight cutoff        WCut        ...    1.0000e-14
Grids for H and He will be reduced by one unit

# of grid points (after initial pruning)     ...  28668 (   0.0 sec)
# of grid points (after weights+screening)   ...  28516 (   0.0 sec)
nearest neighbour list constructed           ...    0.0 sec
Grid point re-assignment to atoms done       ...    0.0 sec
Grid point division into batches done        ...    0.2 sec
Reduced shell lists constructed in    0.2 sec

Total number of grid points                  ...    28516
Total number of batches                      ...      447
Average number of points per batch           ...       63
Average number of grid points per atom       ...     9505
Average number of shells per batch           ...    18.70 (32.81%)
Average number of basis functions per batch  ...    54.90 (27.31%)
Average number of large shells per batch     ...    16.15 (86.36%)
Average number of large basis fcns per batch ...    46.85 (85.34%)
Maximum spatial batch extension              ...  26.18, 26.18,  4.45 au
Average spatial batch extension              ...   0.42,  0.42,  0.18 au

Time for grid setup =    0.260 sec

--------------
SCF ITERATIONS
--------------
ITER       Energy         Delta-E        Max-DP      RMS-DP      [F,P]     Damp
               ***  Starting incremental Fock matrix formation  ***
  0  -4921.1661970855   0.000000000000 0.00016860  0.00000288  0.0016025 0.7000
  1  -4921.1661971869  -0.000000101421 0.00016028  0.00000268  0.0011225 0.7000
                               ***Turning on DIIS***
  2  -4921.1661972604  -0.000000073540 0.00043642  0.00000726  0.0007860 0.0000
  3  -4921.1661974474  -0.000000186984 0.00004472  0.00000098  0.0000206 0.0000
  4  -4921.1661974521  -0.000000004729 0.00003496  0.00000036  0.0000121 0.0000
  5  -4921.1661974514   0.000000000694 0.00000523  0.00000012  0.0000185 0.0000
  6  -4921.1661974525  -0.000000001103 0.00001414  0.00000018  0.0000069 0.0000
  7  -4921.1661974521   0.000000000427 0.00000413  0.00000007  0.0000012 0.0000
                            ***DIIS convergence achieved***

               *****************************************************
               *                     SUCCESS                       *
               *           SCF CONVERGED AFTER   8 CYCLES          *
               *****************************************************


Setting up the DFT-NL grid :

General Integration Accuracy     IntAcc      ...  4.340
Radial Grid Type                 RadialGrid  ... Gauss-Chebyshev
Angular Grid (max. acc.)         AngularGrid ... Lebedev-110
Angular grid pruning method      GridPruning ... 3 (G Style)
Weight generation scheme         WeightScheme... Becke
Basis function cutoff            BFCut       ...    1.0000e-11
Integration weight cutoff        WCut        ...    1.0000e-14
Grids for H and He will be reduced by one unit

# of grid points (after initial pruning)     ...   8736 (   0.0 sec)
# of grid points (after weights+screening)   ...   8688 (   0.0 sec)
nearest neighbour list constructed           ...    0.0 sec
Grid point re-assignment to atoms done       ...    0.0 sec
Grid point division into batches done        ...    0.0 sec
Reduced shell lists constructed in    0.0 sec

Total number of grid points                  ...     8688
Total number of batches                      ...      137
Average number of points per batch           ...       63
Average number of grid points per atom       ...     2896
Average number of shells per batch           ...    19.71 (34.59%)
Average number of basis functions per batch  ...    60.29 (29.99%)
Average number of large shells per batch     ...    16.86 (85.51%)
Average number of large basis fcns per batch ...    49.43 (81.99%)
Maximum spatial batch extension              ...  17.92, 26.34,  4.36 au
Average spatial batch extension              ...   0.73,  0.88,  0.16 au

Final grid set up in    0.0 sec

-------------------------------------------------------------------------------
                         DFT-NL dispersion correction                          
-------------------------------------------------------------------------------

SC Energy -4921.166197453 
NL    Energy 0.364675441 
SC+NL Energy -4920.801522012 
NL done in    0.0 sec
-------------------------------------------------------------------------------
Total Energy       :        -4920.80152201 Eh         -133901.81685 eV
[...]
 132   0.0000       3.394814        92.3776 
 133   0.0000       3.402232        92.5794 
 134   0.0000       3.402232        92.5794 
 135   0.0000       3.410960        92.8169 
 136   0.0000       3.480717        94.7151 
 137   0.0000       3.576599        97.3242 
 138   0.0000       3.576644        97.3254 
 139   0.0000       3.589789        97.6831 
 140   0.0000       3.589831        97.6843 
 141   0.0000       3.620763        98.5260 
 142   0.0000       3.620763        98.5260 
 143   0.0000       3.636280        98.9482 
 144   0.0000       3.664870        99.7262 
 145   0.0000       3.664926        99.7277 
 146   0.0000       3.686723       100.3208 
 147   0.0000       3.686723       100.3208 
 148   0.0000       3.804912       103.5369 
 149   0.0000       3.804912       103.5369 
 150   0.0000       3.894357       105.9708 
 151   0.0000       3.976594       108.2086 
 152   0.0000       4.323501       117.6484 
 153   0.0000      12.870478       350.2235 
 154   0.0000      12.870478       350.2235 
 155   0.0000      12.870735       350.2305 
 156   0.0000      12.870768       350.2314 
 157   0.0000      12.871010       350.2380 
 158   0.0000      12.871010       350.2380 
 159   0.0000      12.871376       350.2480 
 160   0.0000      12.871409       350.2488 
 161   0.0000      12.871700       350.2568 
 162   0.0000      12.871913       350.2626 
 163   0.0000      12.871913       350.2626 
 164   0.0000      12.871930       350.2630 
 165   0.0000      12.871930       350.2630 
 166   0.0000      12.872153       350.2691 
 167   0.0000      12.872638       350.2823 
 168   0.0000      12.872639       350.2823 
 169   0.0000      12.872758       350.2856 
 170   0.0000      12.872758       350.2856 
 171   0.0000      12.920538       351.5857 
 172   0.0000      12.920538       351.5857 
 173   0.0000      12.921506       351.6121 
 174   0.0000      12.922525       351.6398 
 175   0.0000      12.923218       351.6587 
 176   0.0000      12.925047       351.7084 
 177   0.0000      12.925047       351.7084 
 178   0.0000      12.928627       351.8058 
 179   0.0000      12.928790       351.8103 
 180   0.0000      13.053090       355.1926 
 181   0.0000      13.053220       355.1962 
 182   0.0000      13.053842       355.2131 
 183   0.0000      13.053972       355.2166 
 184   0.0000      13.054012       355.2177 
 185   0.0000      13.054012       355.2177 
 186   0.0000      13.054013       355.2178 
 187   0.0000      13.054013       355.2178 
 188   0.0000      13.054367       355.2274 
 189   0.0000      13.054367       355.2274 
 190   0.0000      13.064229       355.4958 
 191   0.0000      13.064229       355.4958 
 192   0.0000      13.070290       355.6607 
 193   0.0000      13.098756       356.4353 
 194   0.0000      13.098922       356.4398 
 195   0.0000      13.101630       356.5135 
 196   0.0000      13.101630       356.5135 
 197   0.0000      13.107598       356.6759 
 198   0.0000      13.107598       356.6759 
 199   0.0000      13.122767       357.0887 
 200   0.0000      13.176029       358.5380 

                    ********************************
                    * MULLIKEN POPULATION ANALYSIS *
                    ********************************

-----------------------
MULLIKEN ATOMIC CHARGES
-----------------------
   0 Cu:   -0.336318
   1 Cu:    0.668161
   2 Cu:    0.668157
Sum of atomic charges:    1.0000000

--------------------------------
MULLIKEN REDUCED ORBITAL CHARGES
--------------------------------
  0 Cus       :     7.372392  s :     7.372392
      pz      :     3.995283  p :    12.012404
      px      :     4.008560
      py      :     4.008560
      dz2     :     1.979747  d :     9.951363
      dxz     :     1.985920
      dyz     :     1.985920
      dx2y2   :     1.999888
      dxy     :     1.999888
      f0      :     0.000057  f :     0.000158
      f+1     :     0.000046
      f-1     :     0.000046
      f+2     :     0.000005
      f-2     :     0.000005
      f+3     :     0.000000
      f-3     :     0.000000
      g0      :     0.000000  g :     0.000001
      g+1     :     0.000000
      g-1     :     0.000000
      g+2     :     0.000000
      g-2     :     0.000000
      g+3     :     0.000000
      g-3     :     0.000000
      g+4     :     0.000000
      g-4     :     0.000000
  1 Cus       :     6.312058  s :     6.312058
      pz      :     4.029303  p :    12.042859
      px      :     4.006778
      py      :     4.006778
      dz2     :     1.984859  d :     9.976802
      dxz     :     1.995926
      dyz     :     1.995926
      dx2y2   :     2.000046
      dxy     :     2.000046
      f0      :     0.000038  f :     0.000120
      f+1     :     0.000033
      f-1     :     0.000033
      f+2     :     0.000008
      f-2     :     0.000008
      f+3     :     0.000000
      f-3     :     0.000000
      g0      :     0.000000  g :     0.000000
      g+1     :     0.000000
      g-1     :     0.000000
      g+2     :     0.000000
      g-2     :     0.000000
      g+3     :     0.000000
      g-3     :     0.000000
      g+4     :     0.000000
      g-4     :     0.000000
  2 Cus       :     6.312061  s :     6.312061
      pz      :     4.029304  p :    12.042860
      px      :     4.006778
      py      :     4.006778
      dz2     :     1.984859  d :     9.976802
      dxz     :     1.995926
      dyz     :     1.995926
      dx2y2   :     2.000046
      dxy     :     2.000046
      f0      :     0.000038  f :     0.000120
      f+1     :     0.000033
      f-1     :     0.000033
      f+2     :     0.000008
      f-2     :     0.000008
      f+3     :     0.000000
      f-3     :     0.000000
      g0      :     0.000000  g :     0.000000
      g+1     :     0.000000
      g-1     :     0.000000
      g+2     :     0.000000
      g-2     :     0.000000
      g+3     :     0.000000
      g-3     :     0.000000
      g+4     :     0.000000
      g-4     :     0.000000


                     *******************************
                     * LOEWDIN POPULATION ANALYSIS *
                     *******************************

----------------------
LOEWDIN ATOMIC CHARGES
----------------------
   0 Cu:    0.141219
   1 Cu:    0.429390
   2 Cu:    0.429390

-------------------------------
LOEWDIN REDUCED ORBITAL CHARGES
-------------------------------
  0 Cus       :     6.780128  s :     6.780128
      pz      :     4.032868  p :    12.051473
      px      :     4.009302
      py      :     4.009302
      dz2     :     2.061700  d :    10.026758
      dxz     :     1.983059
      dyz     :     1.983059
      dx2y2   :     1.999470
      dxy     :     1.999470
      f0      :     0.000206  f :     0.000420
      f+1     :     0.000100
      f-1     :     0.000100
      f+2     :     0.000006
      f-2     :     0.000006
      f+3     :     0.000000
      f-3     :     0.000000
      g0      :     0.000001  g :     0.000002
      g+1     :     0.000001
      g-1     :     0.000001
      g+2     :     0.000000
      g-2     :     0.000000
      g+3     :     0.000000
      g-3     :     0.000000
      g+4     :     0.000000
      g-4     :     0.000000
  1 Cus       :     6.359788  s :     6.359788
      pz      :     4.168504  p :    12.184571
      px      :     4.008034
      py      :     4.008034
      dz2     :     2.034129  d :    10.025971
      dxz     :     1.995668
      dyz     :     1.995668
      dx2y2   :     2.000253
      dxy     :     2.000253
      f0      :     0.000127  f :     0.000277
      f+1     :     0.000066
      f-1     :     0.000066
      f+2     :     0.000009
      f-2     :     0.000009
      f+3     :     0.000000
      f-3     :     0.000000
      g0      :     0.000000  g :     0.000001
      g+1     :     0.000000
      g-1     :     0.000000
      g+2     :     0.000000
      g-2     :     0.000000
      g+3     :     0.000000
      g-3     :     0.000000
      g+4     :     0.000000
      g-4     :     0.000000
  2 Cus       :     6.359789  s :     6.359789
      pz      :     4.168504  p :    12.184571
      px      :     4.008034
      py      :     4.008034
      dz2     :     2.034129  d :    10.025971
      dxz     :     1.995668
      dyz     :     1.995668
      dx2y2   :     2.000253
      dxy     :     2.000253
      f0      :     0.000127  f :     0.000277
      f+1     :     0.000066
      f-1     :     0.000066
      f+2     :     0.000009
      f-2     :     0.000009
      f+3     :     0.000000
      f-3     :     0.000000
      g0      :     0.000000  g :     0.000001
      g+1     :     0.000000
      g-1     :     0.000000
      g+2     :     0.000000
      g-2     :     0.000000
      g+3     :     0.000000
      g-3     :     0.000000
      g+4     :     0.000000
      g-4     :     0.000000


                      *****************************
                      * MAYER POPULATION ANALYSIS *
                      *****************************

  NA   - Mulliken gross atomic population
  ZA   - Total nuclear charge
  QA   - Mulliken gross atomic charge
  VA   - Mayer's total valence
  BVA  - Mayer's bonded valence
  FA   - Mayer's free valence

  ATOM       NA         ZA         QA         VA         BVA        FA
  0 Cu    29.3363    29.0000    -0.3363     0.9477     0.9477    -0.0000
  1 Cu    28.3318    29.0000     0.6682     0.6175     0.6175    -0.0000
  2 Cu    28.3318    29.0000     0.6682     0.6175     0.6175     0.0000

  Mayer bond orders larger than 0.100000
B(  0-Cu,  1-Cu) :   0.4738 B(  0-Cu,  2-Cu) :   0.4738 B(  1-Cu,  2-Cu) :   0.1437 


-------
TIMINGS
-------

Total SCF time: 0 days 0 hours 0 min 3 sec 

Total time                  ....       3.828 sec
Sum of individual times     ....       3.531 sec  ( 92.2%)

Fock matrix formation       ....       3.160 sec  ( 82.6%)
  XC integration            ....       0.113 sec  (  3.6% of F)
    Basis function eval.    ....       0.018 sec  ( 15.9% of XC)
    Density eval.           ....       0.014 sec  ( 12.0% of XC)
    XC-Functional eval.     ....       0.009 sec  (  7.8% of XC)
    XC-Potential eval.      ....       0.015 sec  ( 13.1% of XC)
Diagonalization             ....       0.029 sec  (  0.8%)
Density matrix formation    ....       0.004 sec  (  0.1%)
Population analysis         ....       0.006 sec  (  0.2%)
Initial guess               ....       0.013 sec  (  0.3%)
Orbital Transformation      ....       0.000 sec  (  0.0%)
Orbital Orthonormalization  ....       0.008 sec  (  0.2%)
DIIS solution               ....       0.010 sec  (  0.3%)
Grid generation             ....       0.308 sec  (  8.1%)

-------------------------   --------------------
FINAL SINGLE POINT ENERGY     -4920.801522018986
-------------------------   --------------------

                                *** OPTIMIZATION RUN DONE ***

                            ***************************************
                            *     ORCA property calculations      *
                            ***************************************

                                    ---------------------
                                    Active property flags
                                    ---------------------
   (+) Dipole Moment


------------------------------------------------------------------------------
                       ORCA ELECTRIC PROPERTIES CALCULATION
------------------------------------------------------------------------------

Dipole Moment Calculation                       ... on
Quadrupole Moment Calculation                   ... off
Polarizability Calculation                      ... off
GBWName                                         ... Cu03C1_LIN.gbw
Electron density file                           ... Cu03C1_LIN.scfp
The origin for moment calculation is the CENTER OF MASS  = ( 0.000000, -0.000000  0.000000)

-------------
DIPOLE MOMENT
-------------
                                X             Y             Z
Electronic contribution:     -0.00000      -0.00000       0.00000
Nuclear contribution   :      0.00000       0.00000       0.00000
                        -----------------------------------------
Total Dipole Moment    :     -0.00000      -0.00000       0.00000
                        -----------------------------------------
Magnitude (a.u.)       :      0.00000
Magnitude (Debye)      :      0.00000



--------------------
Rotational spectrum 
--------------------
 
Rotational constants in cm-1:     0.000000     0.023593     0.023593 
Rotational constants in MHz :     0.000000   707.314749   707.314749 

 Dipole components along the rotational axes: 
x,y,z [a.u.] :     0.000001    -0.000000    -0.000000 
x,y,z [Debye]:     0.000001    -0.000000    -0.000000 

 

----------------------------------------------------------------------------
                           ORCA NUMERICAL FREQUENCIES
                              (24-process run)
----------------------------------------------------------------------------

Number of atoms                ... 3
Central differences            ... used
Number of displacements        ... 18
Numerical increment            ... 5.000e-03 bohr
IR-spectrum generation         ... on
Raman-spectrum generation      ... off
Surface Crossing Hessian       ... off

 WARNING: There are more processes than displacements to do
  ====> : Reducing number of processes to   9

The output will be reduced. Please look at the following files:
SCF program output             ... >Cu03C1_LIN.lastscf
Integral program output        ... >Cu03C1_LIN.lastint
Gradient program output        ... >Cu03C1_LIN.lastgrad
Dipole moment program output   ... >Cu03C1_LIN.lastmom
AutoCI program output          ... >Cu03C1_LIN.lastautoci


         <<< Energy and Gradient at the input geometry >>>

        <<< Energy and Gradient at displaced geometries >>>
             <<<Displacing   3/coordinate 1 (+)>>>
             <<<Displacing   1/coordinate 1 (+)>>>
             <<<Displacing   2/coordinate 3 (+)>>>
             <<<Displacing   1/coordinate 2 (+)>>>
             <<<Displacing   2/coordinate 2 (+)>>>
             <<<Displacing   3/coordinate 3 (+)>>>
             <<<Displacing   3/coordinate 2 (+)>>>
             <<<Displacing   1/coordinate 3 (+)>>>
             <<<Displacing   2/coordinate 1 (+)>>>
             <<<Displacing   1/coordinate 3 (-)>>>
             <<<Displacing   2/coordinate 3 (-)>>>
             <<<Displacing   3/coordinate 3 (-)>>>
             <<<Displacing   1/coordinate 1 (-)>>>
             <<<Displacing   2/coordinate 2 (-)>>>
             <<<Displacing   2/coordinate 1 (-)>>>
             <<<Displacing   3/coordinate 1 (-)>>>
             <<<Displacing   3/coordinate 2 (-)>>>
             <<<Displacing   1/coordinate 2 (-)>>>

-----------------------
VIBRATIONAL FREQUENCIES
-----------------------

Scaling factor for frequencies =  1.000000000 (already applied!)

   0:         0.00 cm**-1
   1:         0.00 cm**-1
   2:         0.00 cm**-1
   3:         0.00 cm**-1
   4:         0.00 cm**-1
   5:         0.00 cm**-1
   6:       -86.85 cm**-1 ***imaginary mode***
   7:       138.84 cm**-1
   8:       231.97 cm**-1


------------
NORMAL MODES
------------

These modes are the cartesian displacements weighted by the diagonal matrix
M(i,i)=1/sqrt(m[i]) where m[i] is the mass of the displaced atom
Thus, these vectors are normalized but *not* orthogonal

                  0          1          2          3          4          5    
      0       0.000000   0.000000   0.000000   0.000000   0.000000   0.000000
      1       0.000000   0.000000   0.000000   0.000000   0.000000   0.000000
      2       0.000000   0.000000   0.000000   0.000000   0.000000   0.000000
      3       0.000000   0.000000   0.000000   0.000000   0.000000   0.000000
      4       0.000000   0.000000   0.000000   0.000000   0.000000   0.000000
      5       0.000000   0.000000   0.000000   0.000000   0.000000   0.000000
      6       0.000000   0.000000   0.000000   0.000000   0.000000   0.000000
      7       0.000000   0.000000   0.000000   0.000000   0.000000   0.000000
      8       0.000000   0.000000   0.000000   0.000000   0.000000   0.000000
                   6          7          8    
      0       0.794739   0.000025  -0.000015
      1       0.187233   0.000006  -0.000003
      2       0.000015  -0.000077   0.816497
      3      -0.397370  -0.000012   0.000007
      4      -0.093616  -0.000003   0.000002
      5       0.000014  -0.707068  -0.408315
      6      -0.397370  -0.000012   0.000007
      7      -0.093616  -0.000003   0.000002
      8      -0.000029   0.707145  -0.408182


-----------
IR SPECTRUM  
-----------

 Mode    freq (cm**-1)   T**2         TX         TY         TZ
-------------------------------------------------------------------
   7:       138.84    0.000001  ( -0.000013   0.000008   0.000734)
   8:       231.97   45.639803  (  0.000015   0.000001  -6.755724)

The first frequency considered to be a vibration is 7
The total number of vibrations considered is 2


--------------------------
THERMOCHEMISTRY AT 298.15K
--------------------------

Temperature         ... 298.15 K
Pressure            ... 1.00 atm
Total Mass          ... 190.65 AMU
The molecule is recognized as being linear

Throughout the following assumptions are being made:
  (1) The electronic state is orbitally nondegenerate
  (2) There are no thermally accessible electronically excited states
  (3) Hindered rotations indicated by low frequency modes are not
      treated as such but are treated as vibrations and this may
      cause some error
  (4) All equations used are the standard statistical mechanics
      equations for an ideal gas
  (5) All vibrations are strictly harmonic

freq.     138.84  E(vib)   ...       0.42 
freq.     231.97  E(vib)   ...       0.32 

------------
INNER ENERGY
------------

The inner energy is: U= E(el) + E(ZPE) + E(vib) + E(rot) + E(trans)
    E(el)   - is the total energy from the electronic structure calculation
              = E(kin-el) + E(nuc-el) + E(el-el) + E(nuc-nuc)
    E(ZPE)  - the the zero temperature vibrational energy from the frequency calculation
    E(vib)  - the the finite temperature correction to E(ZPE) due to population
              of excited vibrational states
    E(rot)  - is the rotational thermal energy
    E(trans)- is the translational thermal energy

Summary of contributions to the inner energy U:
Electronic energy                ...  -4920.80152203 Eh
Zero point energy                ...      0.00084478 Eh       0.53 kcal/mol
Thermal vibrational correction   ...      0.00117530 Eh       0.74 kcal/mol
Thermal rotational correction    ...      0.00094418 Eh       0.59 kcal/mol
Thermal translational correction ...      0.00141627 Eh       0.89 kcal/mol
-----------------------------------------------------------------------
Total thermal energy                  -4920.79714150 Eh


Summary of corrections to the electronic energy:
(perhaps to be used in another calculation)
Total thermal correction                  0.00353575 Eh       2.22 kcal/mol
Non-thermal (ZPE) correction              0.00084478 Eh       0.53 kcal/mol
-----------------------------------------------------------------------
Total correction                          0.00438052 Eh       2.75 kcal/mol


--------
ENTHALPY
--------

The enthalpy is H = U + kB*T
                kB is Boltzmann's constant
Total free energy                 ...  -4920.79714150 Eh 
Thermal Enthalpy correction       ...      0.00094421 Eh       0.59 kcal/mol
-----------------------------------------------------------------------
Total Enthalpy                    ...  -4920.79619729 Eh

[file orca_tools/Tool-Symmetry/symmain.cpp, line 3094]: Error (ORCA_SYM): TMoleculeSymmetry::CleanUp molecule is linear but not aligned to z axis!

[file orca_tools/Tool-Symmetry/symmain.cpp, line 3094]: Error (ORCA_SYM): TMoleculeSymmetry::CleanUp molecule is linear but not aligned to z axis!

