
                                 *****************
                                 * O   R   C   A *
                                 *****************

           --- An Ab Initio, DFT and Semiempirical electronic structure package ---

                  #######################################################
                  #                        -***-                        #
                  #          Department of theory and spectroscopy      #
                  #               Directorship: Frank Neese             #
                  #        Max Planck Institute fuer Kohlenforschung    #
                  #                Kaiser Wilhelm Platz 1               #
                  #                 D-45470 Muelheim/Ruhr               #
                  #                      Germany                        #
                  #                                                     #
                  #                  All rights reserved                #
                  #                        -***-                        #
                  #######################################################


                         Program Version 4.2.0 -  RELEASE  -


 With contributions from (in alphabetic order):
   Daniel Aravena         : Magnetic Suceptibility
   Michael Atanasov       : Ab Initio Ligand Field Theory (pilot matlab implementation)
   Alexander A. Auer      : GIAO ZORA, VPT2
   Ute Becker             : Parallelization
   Giovanni Bistoni       : ED, misc. LED, open-shell LED, HFLED
   Martin Brehm           : Molecular dynamics
   Dmytro Bykov           : SCF Hessian
   Vijay G. Chilkuri      : MRCI spin determinant printing, contributions to CSF-ICE
   Dipayan Datta          : RHF DLPNO-CCSD density
   Achintya Kumar Dutta   : EOM-CC, STEOM-CC
   Dmitry Ganyushin       : Spin-Orbit,Spin-Spin,Magnetic field MRCI
   Miquel Garcia          : C-PCM Hessian, Gaussian charge scheme
   Yang Guo               : DLPNO-NEVPT2, CIM, IAO-localization
   Andreas Hansen         : Spin unrestricted coupled pair/coupled cluster methods
   Benjamin Helmich-Paris : CASSCF linear response (MC-RPA)
   Lee Huntington         : MR-EOM, pCC
   Robert Izsak           : Overlap fitted RIJCOSX, COSX-SCS-MP3, EOM
   Christian Kollmar      : KDIIS, OOCD, Brueckner-CCSD(T), CCSD density
   Simone Kossmann        : Meta GGA functionals, TD-DFT gradient, OOMP2, MP2 Hessian
   Martin Krupicka        : AUTO-CI
   Lucas Lang             : DCDCAS
   Dagmar Lenk            : GEPOL surface, SMD
   Dimitrios Liakos       : Extrapolation schemes; Compound Job, initial MDCI parallelization
   Dimitrios Manganas     : Further ROCIS development; embedding schemes
   Dimitrios Pantazis     : SARC Basis sets
   Taras Petrenko         : DFT Hessian,TD-DFT gradient, ASA, ECA, R-Raman, ABS, FL, XAS/XES, NRVS
   Peter Pinski           : DLPNO-MP2, DLPNO-MP2 Gradient
   Christoph Reimann      : Effective Core Potentials
   Marius Retegan         : Local ZFS, SOC
   Christoph Riplinger    : Optimizer, TS searches, QM/MM, DLPNO-CCSD(T), (RO)-DLPNO pert. Triples
   Tobias Risthaus        : Range-separated hybrids, TD-DFT gradient, RPA, STAB
   Michael Roemelt        : Original ROCIS implementation
   Masaaki Saitow         : Open-shell DLPNO-CCSD energy and density
   Barbara Sandhoefer     : DKH picture change effects
   Avijit Sen             : IP-ROCIS
   Kantharuban Sivalingam : CASSCF convergence, NEVPT2, FIC-MRCI
   Bernardo de Souza      : ESD, SOC TD-DFT
   Georgi Stoychev        : AutoAux, RI-MP2 NMR
   Willem Van den Heuvel  : Paramagnetic NMR
   Boris Wezisla          : Elementary symmetry handling
   Frank Wennmohs         : Technical directorship


 We gratefully acknowledge several colleagues who have allowed us to
 interface, adapt or use parts of their codes:
   Stefan Grimme, W. Hujo, H. Kruse,             : VdW corrections, initial TS optimization,
                  C. Bannwarth                     DFT functionals, gCP, sTDA/sTD-DF
   Ed Valeev, F. Pavosevic, A. Kumar             : LibInt (2-el integral package), F12 methods
   Garnet Chan, S. Sharma, J. Yang, R. Olivares  : DMRG
   Ulf Ekstrom                                   : XCFun DFT Library
   Mihaly Kallay                                 : mrcc  (arbitrary order and MRCC methods)
   Andreas Klamt, Michael Diedenhofen            : otool_cosmo (COSMO solvation model)
   Jiri Pittner, Ondrej Demel                    : Mk-CCSD
   Frank Weinhold                                : gennbo (NPA and NBO analysis)
   Christopher J. Cramer and Donald G. Truhlar   : smd solvation model
   Lars Goerigk                                  : TD-DFT with DH, B97 family of functionals
   V. Asgeirsson, H. Jonsson                     : NEB implementation
   FAccTs GmbH                                   : IRC, NEB, NEB-TS, Multilevel, MM, QM/MM, CI optimization
   S Lehtola, MJT Oliveira, MAL Marques          : LibXC Library


 Your calculation uses the libint2 library for the computation of 2-el integrals
 For citations please refer to: http://libint.valeyev.net

 Your ORCA version has been built with support for libXC version: 4.2.3
 For citations please refer to: https://tddft.org/programs/libxc/

 This ORCA versions uses:
   CBLAS   interface :  Fast vector & matrix operations
   LAPACKE interface :  Fast linear algebra routines
   SCALAPACK package :  Parallel linear algebra routines


Your calculation utilizes the DFT-NL dispersion correction.
Cite in your paper:
Vydrov, O. A.; Van Voorhis, T. J. Chem. Phys. 2010, 133, 244103
Hujo, W.; Grimme, S. J. Chem. Theory Comput. 2011, 7, 3866 
   

----- Orbital basis set information -----
Your calculation utilizes the basis: def2-TZVPPD
   F. Weigend and R. Ahlrichs, Phys. Chem. Chem. Phys. 7, 3297 (2005).
   D. Rappoport and F. Furche, J. Chem. Phys. 133 134105 (2010).

----- AuxJK basis set information -----
Your calculation utilizes the auxiliary basis: def2/JK
   H-Ba, Hf-Rn: F. Weigend, J. Comput. Chem. 29, 167 (2008).

================================================================================
                                        WARNINGS
                       Please study these warnings very carefully!
================================================================================


WARNING: your system is open-shell and RHF/RKS was chosen
  ===> : WILL SWITCH to UHF/UKS


WARNING: Geometry Optimization
  ===> : Switching off AutoStart
         For restart on a previous wavefunction, please use MOREAD

INFO   : the flag for use of LIBINT has been found!

================================================================================
                                       INPUT FILE
================================================================================
NAME = Cu03N0_LIN.in
|  1> #
|  2> # Cu03N0_LIN wB97X-V/Def2-TZVPPD
|  3> #
|  4> ! wb97x-v def2-tzvppd def2/jk grid4 nofinalgrid opt xyzfile numfreq numgrad
|  5> 
|  6> *xyz 0 2
|  7> Cu       0.000000    0.000000    0.000000 
|  8> Cu       0.000000    0.000000    2.291099 
|  9> Cu       0.000000    0.000000   -2.291099 
| 10> *
| 11> 
| 12> %maxcore 5000
| 13> 
| 14> %pal
| 15> nprocs = 24
| 16> end
| 17> 
| 18> 
| 19>                          ****END OF INPUT****
================================================================================

                       *****************************
                       * Geometry Optimization Run *
                       *****************************

Geometry optimization settings:
Update method            Update   .... BFGS
Choice of coordinates    CoordSys .... Z-matrix Internals
Initial Hessian          InHess   .... Almoef's Model

Convergence Tolerances:
Energy Change            TolE     ....  5.0000e-06 Eh
Max. Gradient            TolMAXG  ....  3.0000e-04 Eh/bohr
RMS Gradient             TolRMSG  ....  1.0000e-04 Eh/bohr
Max. Displacement        TolMAXD  ....  4.0000e-03 bohr
RMS Displacement         TolRMSD  ....  2.0000e-03 bohr
Strict Convergence                ....  False
------------------------------------------------------------------------------
                        ORCA OPTIMIZATION COORDINATE SETUP
------------------------------------------------------------------------------

The optimization will be done in new redundant internal coordinates
Making redundant internal coordinates   ...  (new redundants) done
Evaluating the initial hessian          ...  (Almloef) done
Evaluating the coordinates              ...  done
Calculating the B-matrix                .... done
Calculating the G-matrix                .... done
Diagonalizing the G-matrix              .... done
The first mode is                       ....    0
The number of degrees of freedom        ....    4

    -----------------------------------------------------------------
                    Redundant Internal Coordinates


    -----------------------------------------------------------------
         Definition                    Initial Value    Approx d2E/dq
    -----------------------------------------------------------------
      1. B(Cu  1,Cu  0)                  2.2911         2.335297   
      2. B(Cu  2,Cu  0)                  2.2911         2.335297   
      3. L(Cu  1,Cu  0,Cu  2, 2)       180.0000         1.128240   
      4. L(Cu  1,Cu  0,Cu  2, 1)       180.0000         1.128240   
    -----------------------------------------------------------------

Number of atoms                         .... 3
Number of degrees of freedom            .... 4

         *************************************************************
         *                GEOMETRY OPTIMIZATION CYCLE   1            *
         *************************************************************
---------------------------------
CARTESIAN COORDINATES (ANGSTROEM)
---------------------------------
  Cu     0.000000    0.000000    0.000000
  Cu     0.000000    0.000000    2.291099
  Cu     0.000000    0.000000   -2.291099

----------------------------
CARTESIAN COORDINATES (A.U.)
----------------------------
  NO LB      ZA    FRAG     MASS         X           Y           Z
   0 Cu   29.0000    0    63.550    0.000000    0.000000    0.000000
   1 Cu   29.0000    0    63.550    0.000000    0.000000    4.329550
   2 Cu   29.0000    0    63.550    0.000000    0.000000   -4.329550

--------------------------------
INTERNAL COORDINATES (ANGSTROEM)
--------------------------------
 Cu     0   0   0     0.000000000000     0.00000000     0.00000000
 Cu     1   0   0     2.291099000000     0.00000000     0.00000000
 Cu     1   2   0     2.291099000000   180.00000000     0.00000000

---------------------------
INTERNAL COORDINATES (A.U.)
---------------------------
 Cu     0   0   0     0.000000000000     0.00000000     0.00000000
 Cu     1   0   0     4.329549655701     0.00000000     0.00000000
 Cu     1   2   0     4.329549655701   180.00000000     0.00000000

---------------------
BASIS SET INFORMATION
---------------------
There are 1 groups of distinct atoms

 Group   1 Type Cu  : 17s13p7d2f1g contracted to 6s6p4d2f1g pattern {842111/631111/4111/11/1}

Atom   0Cu   basis set group =>   1
Atom   1Cu   basis set group =>   1
Atom   2Cu   basis set group =>   1
----------------------------------
AUXILIARY/JK BASIS SET INFORMATION
----------------------------------
There are 1 groups of distinct atoms

 Group   1 Type Cu  : 19s14p12d10f7g3h1i contracted to 16s13p11d9f5g3h1i pattern {4111111111111111/2111111111111/21111111111/211111111/31111/111/1}

Atom   0Cu   basis set group =>   1
Atom   1Cu   basis set group =>   1
Atom   2Cu   basis set group =>   1


           ************************************************************
           *        Program running with 24 parallel MPI-processes    *
           *              working on a common directory               *
           ************************************************************
------------------------------------------------------------------------------
                           ORCA GTO INTEGRAL CALCULATION
------------------------------------------------------------------------------

                         BASIS SET STATISTICS AND STARTUP INFO

 # of primitive gaussian shells          ...  120
 # of primitive gaussian functions       ...  342
 # of contracted shells                  ...   57
 # of contracted basis functions         ...  201
 Highest angular momentum                ...    4
 Maximum contraction depth               ...    8
 Integral package used                   ... LIBINT
 Integral threshhold            Thresh   ...  2.500e-11
 Primitive cut-off              TCut     ...  2.500e-12


------------------------------ INTEGRAL EVALUATION ----------------------------


 * One electron integrals 
 Pre-screening matrix                    ... done
 Shell pair data                         ... done (   0.000 sec)



           ************************************************************
           *        Program running with 24 parallel MPI-processes    *
           *              working on a common directory               *
           ************************************************************
-------------------------------------------------------------------------------
                                 ORCA SCF
-------------------------------------------------------------------------------

------------
SCF SETTINGS
------------
Hamiltonian:
 Density Functional     Method          .... DFT(GTOs)
 Exchange Functional    Exchange        .... WB97X-V
 Correlation Functional Correlation     .... WB97X-V
 Gradients option       PostSCFGGA      .... off
 Hybrid DFT is turned on
   Fraction HF Exchange ScalHFX         ....  0.167000
   Scaling of DF-GGA-X  ScalDFX         ....  0.000000
   Scaling of DF-GGA-C  ScalDFC         ....  1.000000
   Scaling of DF-LDA-C  ScalLDAC        ....  1.000000
   Perturbative correction              ....  0.000000
   Density functional embedding theory  .... OFF
 Long-range corrected/Screened/Range-Separated Hybrid DFT is turned on
   Amount of maximum screened exact exchange              ....  0.833000
   Range separation parameter mu (erf(mu*r12)/r12)        ....  0.300000
   NL short-range parameter             ....  6.000000
   NL long-range parameter              ....  0.010000


General Settings:
 Integral files         IntName         .... Cu03N0_LIN
 Hartree-Fock type      HFTyp           .... UHF
 Total Charge           Charge          ....    0
 Multiplicity           Mult            ....    2
 Number of Electrons    NEL             ....   87
 Basis Dimension        Dim             ....  201
 Nuclear Repulsion      ENuc            ....    485.6163266846 Eh

Convergence Acceleration:
 DIIS                   CNVDIIS         .... on
   Start iteration      DIISMaxIt       ....    12
   Startup error        DIISStart       ....  0.200000
   # of expansion vecs  DIISMaxEq       ....     5
   Bias factor          DIISBfac        ....   1.050
   Max. coefficient     DIISMaxC        ....  10.000
 Newton-Raphson         CNVNR           .... off
 SOSCF                  CNVSOSCF        .... off
 Level Shifting         CNVShift        .... on
   Level shift para.    LevelShift      ....    0.2500
   Turn off err/grad.   ShiftErr        ....    0.0010
 Zerner damping         CNVZerner       .... off
 Static damping         CNVDamp         .... on
   Fraction old density DampFac         ....    0.7000
   Max. Damping (<1)    DampMax         ....    0.9800
   Min. Damping (>=0)   DampMin         ....    0.0000
   Turn off err/grad.   DampErr         ....    0.1000
 Fernandez-Rico         CNVRico         .... off

SCF Procedure:
 Maximum # iterations   MaxIter         ....   125
 SCF integral mode      SCFMode         .... Direct
   Integral package                     .... LIBINT
 Reset frequency        DirectResetFreq ....    20
 Integral Threshold     Thresh          ....  2.500e-11 Eh
 Primitive CutOff       TCut            ....  2.500e-12 Eh

Convergence Tolerance:
 Convergence Check Mode ConvCheckMode   .... Total+1el-Energy
 Convergence forced     ConvForced      .... 0
 Energy Change          TolE            ....  1.000e-08 Eh
 1-El. energy change                    ....  1.000e-05 Eh
 DIIS Error             TolErr          ....  5.000e-07


Diagonalization of the overlap matrix:
Smallest eigenvalue                        ... 3.321e-04
Time for diagonalization                   ...    0.006 sec
Threshold for overlap eigenvalues          ... 1.000e-08
Number of eigenvalues below threshold      ... 0
Time for construction of square roots      ...    0.006 sec
Total time needed                          ...    0.013 sec

-------------------
DFT GRID GENERATION
-------------------

General Integration Accuracy     IntAcc      ...  4.670
Radial Grid Type                 RadialGrid  ... Gauss-Chebyshev
Angular Grid (max. acc.)         AngularGrid ... Lebedev-302
Angular grid pruning method      GridPruning ... 3 (G Style)
Weight generation scheme         WeightScheme... Becke
Basis function cutoff            BFCut       ...    1.0000e-11
Integration weight cutoff        WCut        ...    1.0000e-14
Grids for H and He will be reduced by one unit

# of grid points (after initial pruning)     ...  28668 (   0.0 sec)
# of grid points (after weights+screening)   ...  28508 (   0.0 sec)
nearest neighbour list constructed           ...    0.0 sec
Grid point re-assignment to atoms done       ...    0.0 sec
Grid point division into batches done        ...    0.2 sec
Reduced shell lists constructed in    0.2 sec

Total number of grid points                  ...    28508
Total number of batches                      ...      447
Average number of points per batch           ...       63
Average number of grid points per atom       ...     9503
Average number of shells per batch           ...    19.10 (33.51%)
Average number of basis functions per batch  ...    56.10 (27.91%)
Average number of large shells per batch     ...    16.15 (84.55%)
Average number of large basis fcns per batch ...    46.85 (83.51%)
Maximum spatial batch extension              ...  26.18, 26.18,  4.32 au
Average spatial batch extension              ...   0.42,  0.42,  0.18 au

Time for grid setup =    0.267 sec

------------------------------
INITIAL GUESS: MODEL POTENTIAL
------------------------------
Loading Hartree-Fock densities                     ... done
Calculating cut-offs                               ... done
Setting up the integral package                    ... done
Initializing the effective Hamiltonian             ... done
Starting the Coulomb interaction                   ... done (   0.0 sec)
Reading the grid                                   ... done
Mapping shells                                     ... done
Starting the XC term evaluation                    ... done (   0.0 sec)
  promolecular density results
     # of electrons  =     87.000074313
     EX              =   -151.101215662
     EC              =     -5.387979389
     EX+EC           =   -156.489195051
Transforming the Hamiltonian                       ... done (   0.0 sec)
Diagonalizing the Hamiltonian                      ... done (   0.0 sec)
Back transforming the eigenvectors                 ... done (   0.0 sec)
Now organizing SCF variables                       ... done
                      ------------------
                      INITIAL GUESS DONE (   0.4 sec)
                      ------------------
--------------
SCF ITERATIONS
--------------
ITER       Energy         Delta-E        Max-DP      RMS-DP      [F,P]     Damp
               ***  Starting incremental Fock matrix formation  ***
  0  -4911.6702872514   0.000000000000 0.33958232  0.00555300  1.9276334 0.7000
  1  -4916.8894838985  -5.219196647166 0.21249794  0.00301623  0.5180914 0.7000
  2  -4918.4380123532  -1.548528454645 0.08181831  0.00149164  0.2946572 0.7000
  3  -4919.3030939050  -0.865081551802 0.09442175  0.00142192  0.3096883 0.7000
  4  -4919.9208647590  -0.617770854031 0.09092397  0.00130930  0.2192493 0.7000
                               ***Turning on DIIS***
  5  -4920.3587524805  -0.437887721438 0.08097397  0.00109756  0.1362557 0.7000
  6  -4920.6689920549  -0.310239574424 0.25514972  0.00329378  0.0837225 0.0000
  7  -4921.4172425488  -0.748250493875 0.07557744  0.00078921  0.0190619 0.0000
  8  -4921.4196951762  -0.002452627482 0.01452511  0.00015999  0.0345576 0.0000
  9  -4921.4223384974  -0.002643321194 0.01114511  0.00013616  0.0053990 0.0000
 10  -4921.4228828876  -0.000544390177 0.00892931  0.00009074  0.0062899 0.0000
 11  -4921.4230953790  -0.000212491411 0.00798749  0.00007717  0.0057423 0.0000
 12  -4921.4232809136  -0.000185534527 0.00646032  0.00006519  0.0017365 0.0000
 13  -4921.4233584020  -0.000077488412 0.00326179  0.00003851  0.0010233 0.0000
 14  -4921.4233874952  -0.000029093215 0.00333534  0.00004609  0.0006025 0.0000
 15  -4921.4234084665  -0.000020971280 0.00066004  0.00000939  0.0002950 0.0000
 16  -4921.4234109591  -0.000002492660 0.00055261  0.00000661  0.0004046 0.0000
 17  -4921.4234120735  -0.000001114424 0.00036690  0.00000423  0.0001770 0.0000
 18  -4921.4234125383  -0.000000464786 0.00034292  0.00000347  0.0001193 0.0000
 19  -4921.4234128070  -0.000000268705 0.00032472  0.00000283  0.0000418 0.0000
               *** Restarting incremental Fock matrix formation ***
                                   *** Resetting DIIS ***
 20  -4921.4234129135  -0.000000106450 0.00006334  0.00000074  0.0000205 0.0000
 21  -4921.4234129289  -0.000000015449 0.00005641  0.00000065  0.0000143 0.0000
 22  -4921.4234129380  -0.000000009115 0.00006974  0.00000077  0.0000093 0.0000
 23  -4921.4234129441  -0.000000006066 0.00001156  0.00000012  0.0000060 0.0000
 24  -4921.4234129439   0.000000000232 0.00001709  0.00000019  0.0000029 0.0000
                 **** Energy Check signals convergence ****

               *****************************************************
               *                     SUCCESS                       *
               *           SCF CONVERGED AFTER  25 CYCLES          *
               *****************************************************


Setting up the DFT-NL grid :

General Integration Accuracy     IntAcc      ...  4.340
Radial Grid Type                 RadialGrid  ... Gauss-Chebyshev
Angular Grid (max. acc.)         AngularGrid ... Lebedev-110
Angular grid pruning method      GridPruning ... 3 (G Style)
Weight generation scheme         WeightScheme... Becke
Basis function cutoff            BFCut       ...    1.0000e-11
Integration weight cutoff        WCut        ...    1.0000e-14
Grids for H and He will be reduced by one unit

# of grid points (after initial pruning)     ...   8736 (   0.0 sec)
# of grid points (after weights+screening)   ...   8684 (   0.0 sec)
nearest neighbour list constructed           ...    0.0 sec
Grid point re-assignment to atoms done       ...    0.0 sec
Grid point division into batches done        ...    0.0 sec
Reduced shell lists constructed in    0.0 sec

Total number of grid points                  ...     8684
Total number of batches                      ...      136
Average number of points per batch           ...       63
Average number of grid points per atom       ...     2895
Average number of shells per batch           ...    19.86 (34.84%)
Average number of basis functions per batch  ...    61.00 (30.35%)
Average number of large shells per batch     ...    17.57 (88.49%)
Average number of large basis fcns per batch ...    52.71 (86.42%)
Maximum spatial batch extension              ...  17.92, 26.34,  4.30 au
Average spatial batch extension              ...   0.74,  0.89,  0.16 au

Final grid set up in    0.0 sec

-------------------------------------------------------------------------------
                         DFT-NL dispersion correction                          
-------------------------------------------------------------------------------

SC Energy -4921.423412945 
NL    Energy 0.366127649 
SC+NL Energy -4921.057285296 
NL done in    0.0 sec
-------------------------------------------------------------------------------

----------------
TOTAL SCF ENERGY
----------------

Total Energy       :        -4921.05728530 Eh         -133908.77652 eV

Components:
Nuclear Repulsion  :          485.61632668 Eh           13214.29205 eV
Electronic Energy  :        -5406.67361198 Eh         -147123.06857 eV
One Electron Energy:        -7834.80332633 Eh         -213195.83718 eV
Two Electron Energy:         2428.12971435 Eh           66072.76860 eV

Virial components:
Potential Energy   :        -9835.21839038 Eh         -267629.89844 eV
Kinetic Energy     :         4914.16110509 Eh          133721.12192 eV
Virial Ratio       :            2.00140333


DFT components:
N(Alpha)           :       44.000000945908 electrons
N(Beta)            :       43.000000679917 electrons
N(Total)           :       87.000001625826 electrons
E(X)               :     -151.393907466144 Eh       
E(C)               :       -5.412276767072 Eh       
NL Energy, E(C,NL) :        0.366127649237 Eh       
E(XC)              :     -156.440056583979 Eh       
DFET-embed. en.    :        0.000000000000 Eh       

---------------
SCF CONVERGENCE
---------------

  Last Energy change         ...   -1.1942e-09  Tolerance :   1.0000e-08
  Last MAX-Density change    ...    1.5893e-05  Tolerance :   1.0000e-07
  Last RMS-Density change    ...    2.0464e-07  Tolerance :   5.0000e-09
  Last DIIS Error            ...    1.6233e-06  Tolerance :   5.0000e-07

             **** THE GBW FILE WAS UPDATED (Cu03N0_LIN.gbw) ****
             **** DENSITY FILE WAS UPDATED (Cu03N0_LIN.scfp) ****
             **** ENERGY FILE WAS UPDATED (Cu03N0_LIN.en.tmp) ****
----------------------
UHF SPIN CONTAMINATION
----------------------

Warning: in a DFT calculation there is little theoretical justification to 
         calculate <S**2> as in Hartree-Fock theory. We will do it anyways
         but you should keep in mind that the values have only limited relevance

Expectation value of <S**2>     :     0.790231
Ideal value S*(S+1) for S=0.5   :     0.750000
Deviation                       :     0.040231

             **** THE GBW FILE WAS UPDATED (Cu03N0_LIN.gbw) ****
             **** DENSITY FILE WAS UPDATED (Cu03N0_LIN.scfp) ****
----------------
ORBITAL ENERGIES
----------------
                 SPIN UP ORBITALS
  NO   OCC          E(Eh)            E(eV) 
   0   1.0000    -322.850314     -8785.2037 
   1   1.0000    -322.850310     -8785.2036 
   2   1.0000    -322.832481     -8784.7184 
   3   1.0000     -38.829178     -1056.5957 
   4   1.0000     -38.829155     -1056.5950 
   5   1.0000     -38.815148     -1056.2139 
   6   1.0000     -34.026731      -925.9144 
   7   1.0000     -34.026728      -925.9143 
   8   1.0000     -34.025877      -925.8912 
   9   1.0000     -34.025877      -925.8912 
  10   1.0000     -34.025874      -925.8911 
  11   1.0000     -34.025874      -925.8911 
  12   1.0000     -34.012793      -925.5351 
  13   1.0000     -34.011461      -925.4989 
  14   1.0000     -34.011461      -925.4989 
  15   1.0000      -4.380898      -119.2103 
  16   1.0000      -4.380882      -119.2099 
  17   1.0000      -4.364310      -118.7589 
  18   1.0000      -2.878283       -78.3221 
  19   1.0000      -2.877700       -78.3062 
  20   1.0000      -2.874376       -78.2157 
  21   1.0000      -2.874376       -78.2157 
  22   1.0000      -2.874373       -78.2157 
  23   1.0000      -2.874373       -78.2157 
  24   1.0000      -2.861689       -77.8705 
  25   1.0000      -2.856970       -77.7421 
  26   1.0000      -2.856970       -77.7421 
  27   1.0000      -0.412167       -11.2156 
  28   1.0000      -0.389277       -10.5928 
  29   1.0000      -0.389277       -10.5928 
  30   1.0000      -0.374426       -10.1887 
  31   1.0000      -0.373978       -10.1764 
  32   1.0000      -0.373978       -10.1764 
  33   1.0000      -0.370506       -10.0820 
  34   1.0000      -0.370499       -10.0818 
  35   1.0000      -0.369237       -10.0475 
  36   1.0000      -0.369230       -10.0473 
  37   1.0000      -0.348277        -9.4771 
  38   1.0000      -0.348267        -9.4768 
  39   1.0000      -0.336707        -9.1623 
  40   1.0000      -0.336582        -9.1589 
  41   1.0000      -0.336582        -9.1589 
  42   1.0000      -0.309034        -8.4092 
  43   1.0000      -0.260575        -7.0906 
  44   0.0000      -0.003397        -0.0924 
  45   0.0000       0.021055         0.5729 
  46   0.0000       0.021055         0.5729 
  47   0.0000       0.039830         1.0838 
  48   0.0000       0.057491         1.5644 
  49   0.0000       0.057491         1.5644 
  50   0.0000       0.092969         2.5298 
  51   0.0000       0.111331         3.0295 
  52   0.0000       0.113420         3.0863 
  53   0.0000       0.113420         3.0863 
  54   0.0000       0.137598         3.7442 
  55   0.0000       0.173602         4.7240 
  56   0.0000       0.173602         4.7240 
  57   0.0000       0.176184         4.7942 
  58   0.0000       0.196966         5.3597 
  59   0.0000       0.196966         5.3597 
  60   0.0000       0.228588         6.2202 
  61   0.0000       0.228588         6.2202 
  62   0.0000       0.232867         6.3366 
  63   0.0000       0.263941         7.1822 
  64   0.0000       0.263941         7.1822 
  65   0.0000       0.269960         7.3460 
  66   0.0000       0.269960         7.3460 
  67   0.0000       0.285457         7.7677 
  68   0.0000       0.297046         8.0830 
  69   0.0000       0.297046         8.0830 
  70   0.0000       0.297240         8.0883 
  71   0.0000       0.350971         9.5504 
  72   0.0000       0.350971         9.5504 
  73   0.0000       0.354986         9.6597 
  74   0.0000       0.410003        11.1567 
  75   0.0000       0.410003        11.1567 
  76   0.0000       0.440672        11.9913 
  77   0.0000       0.530838        14.4448 
  78   0.0000       0.530838        14.4448 
  79   0.0000       0.568171        15.4607 
  80   0.0000       0.641742        17.4627 
  81   0.0000       0.708785        19.2870 
  82   0.0000       0.751378        20.4460 
  83   0.0000       0.751378        20.4460 
  84   0.0000       0.779809        21.2197 
  85   0.0000       0.779809        21.2197 
  86   0.0000       0.842777        22.9331 
  87   0.0000       0.842777        22.9331 
  88   0.0000       0.859699        23.3936 
  89   0.0000       0.963835        26.2273 
  90   0.0000       0.963839        26.2274 
  91   0.0000       0.993040        27.0220 
  92   0.0000       0.998890        27.1812 
  93   0.0000       0.998890        27.1812 
  94   0.0000       1.004622        27.3371 
  95   0.0000       1.004624        27.3372 
  96   0.0000       1.065211        28.9859 
  97   0.0000       1.065211        28.9859 
  98   0.0000       1.067871        29.0582 
  99   0.0000       1.081120        29.4188 
 100   0.0000       1.081125        29.4189 
 101   0.0000       1.281101        34.8605 
 102   0.0000       1.281101        34.8605 
 103   0.0000       1.316323        35.8190 
 104   0.0000       1.604425        43.6586 
 105   0.0000       3.090699        84.1022 
 106   0.0000       3.091061        84.1120 
 107   0.0000       3.091061        84.1120 
 108   0.0000       3.187529        86.7371 
 109   0.0000       3.188653        86.7677 
 110   0.0000       3.188653        86.7677 
 111   0.0000       3.214825        87.4798 
 112   0.0000       3.214825        87.4798 
 113   0.0000       3.263302        88.7990 
 114   0.0000       3.334104        90.7256 
 115   0.0000       3.478482        94.6543 
 116   0.0000       3.505595        95.3921 
 117   0.0000       3.538741        96.2941 
 118   0.0000       3.538741        96.2941 
 119   0.0000       3.542378        96.3930 
 120   0.0000       3.542378        96.3930 
 121   0.0000       3.551928        96.6529 
 122   0.0000       3.551940        96.6532 
 123   0.0000       3.553119        96.6853 
 124   0.0000       3.553131        96.6856 
 125   0.0000       3.555570        96.7520 
 126   0.0000       3.555570        96.7520 
 127   0.0000       3.555571        96.7520 
 128   0.0000       3.555571        96.7520 
 129   0.0000       3.578622        97.3792 
 130   0.0000       3.578642        97.3798 
 131   0.0000       3.582528        97.4856 
 132   0.0000       3.582528        97.4856 
 133   0.0000       3.598104        97.9094 
 134   0.0000       3.598104        97.9094 
 135   0.0000       3.603849        98.0657 
 136   0.0000       3.706035       100.8463 
 137   0.0000       3.779964       102.8581 
 138   0.0000       3.780012       102.8593 
 139   0.0000       3.802173       103.4624 
 140   0.0000       3.802217       103.4636 
 141   0.0000       3.846910       104.6797 
 142   0.0000       3.846910       104.6797 
 143   0.0000       3.854667       104.8908 
 144   0.0000       3.854719       104.8922 
 145   0.0000       3.902123       106.1822 
 146   0.0000       3.908534       106.3566 
 147   0.0000       3.908534       106.3566 
 148   0.0000       4.007865       109.0595 
 149   0.0000       4.007865       109.0595 
 150   0.0000       4.138814       112.6229 
 151   0.0000       4.226444       115.0074 
 152   0.0000       4.575505       124.5058 
 153   0.0000      13.085438       356.0729 
 154   0.0000      13.085438       356.0729 
 155   0.0000      13.085865       356.0845 
 156   0.0000      13.085923       356.0861 
 157   0.0000      13.086220       356.0941 
 158   0.0000      13.086220       356.0941 
 159   0.0000      13.086511       356.1021 
 160   0.0000      13.086569       356.1037 
 161   0.0000      13.086613       356.1048 
 162   0.0000      13.087112       356.1184 
 163   0.0000      13.087524       356.1296 
 164   0.0000      13.087524       356.1296 
 165   0.0000      13.087538       356.1300 
 166   0.0000      13.087538       356.1300 
 167   0.0000      13.088963       356.1688 
 168   0.0000      13.088963       356.1688 
 169   0.0000      13.089124       356.1732 
 170   0.0000      13.089124       356.1732 
 171   0.0000      13.103193       356.5560 
 172   0.0000      13.103193       356.5560 
 173   0.0000      13.103299       356.5589 
 174   0.0000      13.104325       356.5868 
 175   0.0000      13.105816       356.6274 
 176   0.0000      13.105816       356.6274 
 177   0.0000      13.106579       356.6481 
 178   0.0000      13.107745       356.6799 
 179   0.0000      13.107965       356.6859 
 180   0.0000      13.262208       360.8830 
 181   0.0000      13.262208       360.8830 
 182   0.0000      13.263153       360.9087 
 183   0.0000      13.263318       360.9132 
 184   0.0000      13.264235       360.9382 
 185   0.0000      13.264400       360.9427 
 186   0.0000      13.265089       360.9614 
 187   0.0000      13.265089       360.9614 
 188   0.0000      13.265089       360.9614 
 189   0.0000      13.265089       360.9614 
 190   0.0000      13.269251       361.0747 
 191   0.0000      13.278636       361.3301 
 192   0.0000      13.278636       361.3301 
 193   0.0000      13.280073       361.3692 
 194   0.0000      13.280295       361.3752 
 195   0.0000      13.281459       361.4069 
 196   0.0000      13.281459       361.4069 
 197   0.0000      13.296748       361.8229 
 198   0.0000      13.296748       361.8229 
 199   0.0000      13.357526       363.4768 
 200   0.0000      13.398218       364.5840 

                 SPIN DOWN ORBITALS
  NO   OCC          E(Eh)            E(eV) 
   0   1.0000    -322.849565     -8785.1833 
   1   1.0000    -322.849562     -8785.1832 
   2   1.0000    -322.832502     -8784.7190 
   3   1.0000     -38.829136     -1056.5945 
   4   1.0000     -38.829113     -1056.5939 
   5   1.0000     -38.815691     -1056.2286 
   6   1.0000     -34.026975      -925.9211 
   7   1.0000     -34.026972      -925.9210 
   8   1.0000     -34.025873      -925.8911 
   9   1.0000     -34.025873      -925.8911 
  10   1.0000     -34.025870      -925.8910 
  11   1.0000     -34.025870      -925.8910 
  12   1.0000     -34.013027      -925.5415 
  13   1.0000     -34.011748      -925.5067 
  14   1.0000     -34.011748      -925.5067 
  15   1.0000      -4.380331      -119.1949 
  16   1.0000      -4.380316      -119.1945 
  17   1.0000      -4.365334      -118.7868 
  18   1.0000      -2.878099       -78.3171 
  19   1.0000      -2.877535       -78.3017 
  20   1.0000      -2.874460       -78.2180 
  21   1.0000      -2.874460       -78.2180 
  22   1.0000      -2.874444       -78.2176 
  23   1.0000      -2.874444       -78.2176 
  24   1.0000      -2.862105       -77.8818 
  25   1.0000      -2.858062       -77.7718 
  26   1.0000      -2.858062       -77.7718 
  27   1.0000      -0.408095       -11.1048 
  28   1.0000      -0.387470       -10.5436 
  29   1.0000      -0.387470       -10.5436 
  30   1.0000      -0.373934       -10.1753 
  31   1.0000      -0.372249       -10.1294 
  32   1.0000      -0.372249       -10.1294 
  33   1.0000      -0.369016       -10.0414 
  34   1.0000      -0.369009       -10.0412 
  35   1.0000      -0.367618       -10.0034 
  36   1.0000      -0.367611       -10.0032 
  37   1.0000      -0.349224        -9.5029 
  38   1.0000      -0.349213        -9.5026 
  39   1.0000      -0.337308        -9.1786 
  40   1.0000      -0.337308        -9.1786 
  41   1.0000      -0.332543        -9.0490 
  42   1.0000      -0.278522        -7.5790 
  43   0.0000      -0.066031        -1.7968 
  44   0.0000       0.014079         0.3831 
  45   0.0000       0.026276         0.7150 
  46   0.0000       0.026276         0.7150 
  47   0.0000       0.052741         1.4352 
  48   0.0000       0.067235         1.8295 
  49   0.0000       0.067235         1.8295 
  50   0.0000       0.101704         2.7675 
  51   0.0000       0.115964         3.1555 
  52   0.0000       0.115964         3.1555 
  53   0.0000       0.120891         3.2896 
  54   0.0000       0.142219         3.8700 
  55   0.0000       0.179376         4.8811 
  56   0.0000       0.179376         4.8811 
  57   0.0000       0.182832         4.9751 
  58   0.0000       0.207931         5.6581 
  59   0.0000       0.207931         5.6581 
  60   0.0000       0.227271         6.1844 
  61   0.0000       0.227272         6.1844 
  62   0.0000       0.237921         6.4742 
  63   0.0000       0.262258         7.1364 
  64   0.0000       0.262259         7.1364 
  65   0.0000       0.271358         7.3840 
  66   0.0000       0.271358         7.3840 
  67   0.0000       0.287853         7.8329 
  68   0.0000       0.297281         8.0894 
  69   0.0000       0.297281         8.0894 
  70   0.0000       0.305390         8.3101 
  71   0.0000       0.350501         9.5376 
  72   0.0000       0.350501         9.5376 
  73   0.0000       0.354795         9.6545 
  74   0.0000       0.410118        11.1599 
  75   0.0000       0.410118        11.1599 
  76   0.0000       0.446070        12.1382 
  77   0.0000       0.533088        14.5061 
  78   0.0000       0.533088        14.5061 
  79   0.0000       0.570019        15.5110 
  80   0.0000       0.646643        17.5960 
  81   0.0000       0.712169        19.3791 
  82   0.0000       0.754358        20.5271 
  83   0.0000       0.754358        20.5271 
  84   0.0000       0.784439        21.3457 
  85   0.0000       0.784439        21.3457 
  86   0.0000       0.845133        22.9972 
  87   0.0000       0.845133        22.9972 
  88   0.0000       0.863175        23.4882 
  89   0.0000       0.968474        26.3535 
  90   0.0000       0.968480        26.3537 
  91   0.0000       0.997176        27.1345 
  92   0.0000       1.003742        27.3132 
  93   0.0000       1.003742        27.3132 
  94   0.0000       1.012758        27.5586 
  95   0.0000       1.012766        27.5588 
  96   0.0000       1.072562        29.1859 
  97   0.0000       1.072562        29.1859 
  98   0.0000       1.074395        29.2358 
  99   0.0000       1.083380        29.4803 
 100   0.0000       1.083386        29.4804 
 101   0.0000       1.285446        34.9788 
 102   0.0000       1.285446        34.9788 
 103   0.0000       1.322153        35.9776 
 104   0.0000       1.608991        43.7829 
 105   0.0000       3.093396        84.1756 
 106   0.0000       3.093396        84.1756 
 107   0.0000       3.093839        84.1876 
 108   0.0000       3.189070        86.7790 
 109   0.0000       3.191908        86.8562 
 110   0.0000       3.191908        86.8562 
 111   0.0000       3.215367        87.4946 
 112   0.0000       3.215367        87.4946 
 113   0.0000       3.265981        88.8719 
 114   0.0000       3.336234        90.7835 
 115   0.0000       3.481444        94.7349 
 116   0.0000       3.508371        95.4676 
 117   0.0000       3.539615        96.3178 
 118   0.0000       3.539615        96.3178 
 119   0.0000       3.545616        96.4811 
 120   0.0000       3.545616        96.4811 
 121   0.0000       3.555831        96.7591 
 122   0.0000       3.555843        96.7594 
 123   0.0000       3.557189        96.7960 
 124   0.0000       3.557201        96.7964 
 125   0.0000       3.560200        96.8780 
 126   0.0000       3.560200        96.8780 
 127   0.0000       3.560202        96.8780 
 128   0.0000       3.560202        96.8780 
 129   0.0000       3.577866        97.3587 
 130   0.0000       3.577887        97.3593 
 131   0.0000       3.581662        97.4620 
 132   0.0000       3.581662        97.4620 
 133   0.0000       3.600477        97.9739 
 134   0.0000       3.600477        97.9739 
 135   0.0000       3.604850        98.0929 
 136   0.0000       3.707094       100.8752 
 137   0.0000       3.781713       102.9056 
 138   0.0000       3.781759       102.9069 
 139   0.0000       3.804953       103.5380 
 140   0.0000       3.804995       103.5392 
 141   0.0000       3.849273       104.7440 
 142   0.0000       3.849273       104.7440 
 143   0.0000       3.854914       104.8975 
 144   0.0000       3.854965       104.8989 
 145   0.0000       3.904517       106.2473 
 146   0.0000       3.910535       106.4111 
 147   0.0000       3.910535       106.4111 
 148   0.0000       4.007822       109.0584 
 149   0.0000       4.007822       109.0584 
 150   0.0000       4.140328       112.6641 
 151   0.0000       4.227622       115.0394 
 152   0.0000       4.576654       124.5371 
 153   0.0000      13.084535       356.0483 
 154   0.0000      13.084535       356.0483 
 155   0.0000      13.085100       356.0637 
 156   0.0000      13.085157       356.0652 
 157   0.0000      13.085311       356.0694 
 158   0.0000      13.085311       356.0694 
 159   0.0000      13.085626       356.0780 
 160   0.0000      13.085746       356.0813 
 161   0.0000      13.085804       356.0828 
 162   0.0000      13.086112       356.0912 
 163   0.0000      13.086850       356.1113 
 164   0.0000      13.086850       356.1113 
 165   0.0000      13.086861       356.1116 
 166   0.0000      13.086861       356.1116 
 167   0.0000      13.088140       356.1464 
 168   0.0000      13.088140       356.1464 
 169   0.0000      13.088302       356.1508 
 170   0.0000      13.088302       356.1508 
 171   0.0000      13.102505       356.5373 
 172   0.0000      13.102505       356.5373 
 173   0.0000      13.102583       356.5394 
 174   0.0000      13.103610       356.5673 
 175   0.0000      13.105169       356.6098 
 176   0.0000      13.105169       356.6098 
 177   0.0000      13.105910       356.6299 
 178   0.0000      13.107430       356.6713 
 179   0.0000      13.107651       356.6773 
 180   0.0000      13.262521       360.8915 
 181   0.0000      13.262521       360.8915 
 182   0.0000      13.263631       360.9218 
 183   0.0000      13.263796       360.9262 
 184   0.0000      13.264723       360.9515 
 185   0.0000      13.264886       360.9559 
 186   0.0000      13.264993       360.9588 
 187   0.0000      13.264993       360.9588 
 188   0.0000      13.264993       360.9588 
 189   0.0000      13.264993       360.9588 
 190   0.0000      13.269371       361.0779 
 191   0.0000      13.279036       361.3409 
 192   0.0000      13.279058       361.3415 
 193   0.0000      13.279058       361.3415 
 194   0.0000      13.279258       361.3470 
 195   0.0000      13.280295       361.3752 
 196   0.0000      13.280295       361.3752 
 197   0.0000      13.296256       361.8095 
 198   0.0000      13.296256       361.8095 
 199   0.0000      13.357865       363.4860 
 200   0.0000      13.398045       364.5793 

                    ********************************
                    * MULLIKEN POPULATION ANALYSIS *
                    ********************************

--------------------------------------------
MULLIKEN ATOMIC CHARGES AND SPIN POPULATIONS
--------------------------------------------
   0 Cu:   -0.297986   -0.346532
   1 Cu:    0.148992    0.673265
   2 Cu:    0.148995    0.673266
Sum of atomic charges         :   -0.0000000
Sum of atomic spin populations:    1.0000000

-----------------------------------------------------
MULLIKEN REDUCED ORBITAL CHARGES AND SPIN POPULATIONS
-----------------------------------------------------
CHARGE
  0 Cus       :     7.324286  s :     7.324286
      pz      :     4.012349  p :    12.034604
      px      :     4.011128
      py      :     4.011128
      dz2     :     1.977936  d :     9.938839
      dxz     :     1.980739
      dyz     :     1.980739
      dx2y2   :     1.999713
      dxy     :     1.999713
      f0      :     0.000111  f :     0.000257
      f+1     :     0.000065
      f-1     :     0.000065
      f+2     :     0.000008
      f-2     :     0.000008
      f+3     :     0.000000
      f-3     :     0.000000
      g0      :     0.000000  g :     0.000001
      g+1     :     0.000000
      g-1     :     0.000000
      g+2     :     0.000000
      g-2     :     0.000000
      g+3     :     0.000000
      g-3     :     0.000000
      g+4     :     0.000000
      g-4     :     0.000000
  1 Cus       :     6.875372  s :     6.875372
      pz      :     3.993548  p :    12.011304
      px      :     4.008878
      py      :     4.008878
      dz2     :     1.973684  d :     9.964171
      dxz     :     1.995115
      dyz     :     1.995115
      dx2y2   :     2.000129
      dxy     :     2.000129
      f0      :     0.000056  f :     0.000161
      f+1     :     0.000042
      f-1     :     0.000042
      f+2     :     0.000011
      f-2     :     0.000011
      f+3     :     0.000000
      f-3     :     0.000000
      g0      :     0.000000  g :     0.000001
      g+1     :     0.000000
      g-1     :     0.000000
      g+2     :     0.000000
      g-2     :     0.000000
      g+3     :     0.000000
      g-3     :     0.000000
      g+4     :     0.000000
      g-4     :     0.000000
  2 Cus       :     6.875369  s :     6.875369
      pz      :     3.993548  p :    12.011303
      px      :     4.008878
      py      :     4.008878
      dz2     :     1.973684  d :     9.964171
      dxz     :     1.995115
      dyz     :     1.995115
      dx2y2   :     2.000129
      dxy     :     2.000129
      f0      :     0.000056  f :     0.000161
      f+1     :     0.000042
      f-1     :     0.000042
      f+2     :     0.000011
      f-2     :     0.000011
      f+3     :     0.000000
      f-3     :     0.000000
      g0      :     0.000000  g :     0.000001
      g+1     :     0.000000
      g-1     :     0.000000
      g+2     :     0.000000
      g-2     :     0.000000
      g+3     :     0.000000
      g-3     :     0.000000
      g+4     :     0.000000
      g-4     :     0.000000

SPIN
  0 Cus       :    -0.358634  s :    -0.358634
      pz      :     0.022002  p :     0.022296
      px      :     0.000147
      py      :     0.000147
      dz2     :    -0.005117  d :    -0.010209
      dxz     :    -0.002588
      dyz     :    -0.002588
      dx2y2   :     0.000042
      dxy     :     0.000042
      f0      :     0.000013  f :     0.000016
      f+1     :     0.000001
      f-1     :     0.000001
      f+2     :     0.000000
      f-2     :     0.000000
      f+3     :     0.000000
      f-3     :    -0.000000
      g0      :     0.000000  g :     0.000000
      g+1     :     0.000000
      g-1     :     0.000000
      g+2     :    -0.000000
      g-2     :    -0.000000
      g+3     :    -0.000000
      g-3     :    -0.000000
      g+4     :    -0.000000
      g-4     :     0.000000
  1 Cus       :     0.668963  s :     0.668963
      pz      :     0.008335  p :     0.010937
      px      :     0.001301
      py      :     0.001301
      dz2     :    -0.006431  d :    -0.006635
      dxz     :    -0.000081
      dyz     :    -0.000081
      dx2y2   :    -0.000021
      dxy     :    -0.000021
      f0      :     0.000000  f :     0.000001
      f+1     :     0.000000
      f-1     :     0.000000
      f+2     :    -0.000000
      f-2     :    -0.000000
      f+3     :    -0.000000
      f-3     :    -0.000000
      g0      :    -0.000000  g :    -0.000000
      g+1     :    -0.000000
      g-1     :    -0.000000
      g+2     :     0.000000
      g-2     :     0.000000
      g+3     :    -0.000000
      g-3     :    -0.000000
      g+4     :     0.000000
      g-4     :    -0.000000
  2 Cus       :     0.668963  s :     0.668963
      pz      :     0.008336  p :     0.010937
      px      :     0.001301
      py      :     0.001301
      dz2     :    -0.006431  d :    -0.006635
      dxz     :    -0.000081
      dyz     :    -0.000081
      dx2y2   :    -0.000021
      dxy     :    -0.000021
      f0      :     0.000000  f :     0.000001
      f+1     :     0.000000
      f-1     :     0.000000
      f+2     :    -0.000000
      f-2     :    -0.000000
      f+3     :    -0.000000
      f-3     :    -0.000000
      g0      :    -0.000000  g :    -0.000000
      g+1     :    -0.000000
      g-1     :    -0.000000
      g+2     :     0.000000
      g-2     :     0.000000
      g+3     :    -0.000000
      g-3     :    -0.000000
      g+4     :     0.000000
      g-4     :    -0.000000


                     *******************************
                     * LOEWDIN POPULATION ANALYSIS *
                     *******************************

-------------------------------------------
LOEWDIN ATOMIC CHARGES AND SPIN POPULATIONS
-------------------------------------------
   0 Cu:   -0.253780    0.390152
   1 Cu:    0.126890    0.304924
   2 Cu:    0.126890    0.304924

----------------------------------------------------
LOEWDIN REDUCED ORBITAL CHARGES AND SPIN POPULATIONS
----------------------------------------------------
CHARGE
  0 Cus       :     6.736309  s :     6.736309
      pz      :     4.464697  p :    12.491516
      px      :     4.013410
      py      :     4.013409
      dz2     :     2.066971  d :    10.025253
      dxz     :     1.979400
      dyz     :     1.979400
      dx2y2   :     1.999741
      dxy     :     1.999742
      f0      :     0.000376  f :     0.000699
      f+1     :     0.000150
      f-1     :     0.000150
      f+2     :     0.000012
      f-2     :     0.000012
      f+3     :     0.000000
      f-3     :     0.000000
      g0      :     0.000001  g :     0.000002
      g+1     :     0.000001
      g-1     :     0.000001
      g+2     :     0.000000
      g-2     :     0.000000
      g+3     :     0.000000
      g-3     :     0.000000
      g+4     :     0.000000
      g-4     :     0.000000
  1 Cus       :     6.702815  s :     6.702815
      pz      :     4.140532  p :    12.162046
      px      :     4.010757
      py      :     4.010757
      dz2     :     2.022318  d :    10.007879
      dxz     :     1.992670
      dyz     :     1.992670
      dx2y2   :     2.000110
      dxy     :     2.000110
      f0      :     0.000157  f :     0.000369
      f+1     :     0.000093
      f-1     :     0.000093
      f+2     :     0.000013
      f-2     :     0.000013
      f+3     :     0.000000
      f-3     :     0.000000
      g0      :     0.000000  g :     0.000001
      g+1     :     0.000000
      g-1     :     0.000000
      g+2     :     0.000000
      g-2     :     0.000000
      g+3     :     0.000000
      g-3     :     0.000000
      g+4     :     0.000000
      g-4     :     0.000000
  2 Cus       :     6.702815  s :     6.702815
      pz      :     4.140532  p :    12.162046
      px      :     4.010757
      py      :     4.010757
      dz2     :     2.022318  d :    10.007879
      dxz     :     1.992670
      dyz     :     1.992670
      dx2y2   :     2.000110
      dxy     :     2.000110
      f0      :     0.000157  f :     0.000369
      f+1     :     0.000093
      f-1     :     0.000093
      f+2     :     0.000013
      f-2     :     0.000013
      f+3     :     0.000000
      f-3     :     0.000000
      g0      :     0.000000  g :     0.000001
      g+1     :     0.000000
      g-1     :     0.000000
      g+2     :     0.000000
      g-2     :     0.000000
      g+3     :     0.000000
      g-3     :     0.000000
      g+4     :     0.000000
      g-4     :     0.000000

SPIN
  0 Cus       :    -0.060275  s :    -0.060275
      pz      :     0.427382  p :     0.427609
      px      :     0.000114
      py      :     0.000114
      dz2     :     0.027414  d :     0.022722
      dxz     :    -0.002391
      dyz     :    -0.002391
      dx2y2   :     0.000045
      dxy     :     0.000045
      f0      :     0.000087  f :     0.000096
      f+1     :     0.000004
      f-1     :     0.000004
      f+2     :     0.000000
      f-2     :     0.000000
      f+3     :     0.000000
      f-3     :    -0.000000
      g0      :     0.000000  g :     0.000000
      g+1     :     0.000000
      g-1     :     0.000000
      g+2     :    -0.000000
      g-2     :    -0.000000
      g+3     :    -0.000000
      g-3     :    -0.000000
      g+4     :    -0.000000
      g-4     :     0.000000
  1 Cus       :     0.336744  s :     0.336744
      pz      :    -0.028340  p :    -0.025857
      px      :     0.001242
      py      :     0.001242
      dz2     :    -0.005694  d :    -0.005950
      dxz     :    -0.000105
      dyz     :    -0.000106
      dx2y2   :    -0.000022
      dxy     :    -0.000022
      f0      :    -0.000013  f :    -0.000013
      f+1     :     0.000000
      f-1     :     0.000000
      f+2     :    -0.000000
      f-2     :    -0.000000
      f+3     :    -0.000000
      f-3     :    -0.000000
      g0      :    -0.000000  g :    -0.000000
      g+1     :    -0.000000
      g-1     :    -0.000000
      g+2     :     0.000000
      g-2     :     0.000000
      g+3     :    -0.000000
      g-3     :    -0.000000
      g+4     :     0.000000
      g-4     :    -0.000000
  2 Cus       :     0.336744  s :     0.336744
      pz      :    -0.028340  p :    -0.025857
      px      :     0.001242
      py      :     0.001242
      dz2     :    -0.005694  d :    -0.005950
      dxz     :    -0.000105
      dyz     :    -0.000106
      dx2y2   :    -0.000022
      dxy     :    -0.000022
      f0      :    -0.000013  f :    -0.000013
      f+1     :     0.000000
      f-1     :     0.000000
      f+2     :    -0.000000
      f-2     :    -0.000000
      f+3     :    -0.000000
      f-3     :    -0.000000
      g0      :    -0.000000  g :    -0.000000
      g+1     :    -0.000000
      g-1     :    -0.000000
      g+2     :     0.000000
      g-2     :     0.000000
      g+3     :    -0.000000
      g-3     :    -0.000000
      g+4     :     0.000000
      g-4     :    -0.000000


                      *****************************
                      * MAYER POPULATION ANALYSIS *
                      *****************************

  NA   - Mulliken gross atomic population
  ZA   - Total nuclear charge
  QA   - Mulliken gross atomic charge
  VA   - Mayer's total valence
  BVA  - Mayer's bonded valence
  FA   - Mayer's free valence

  ATOM       NA         ZA         QA         VA         BVA        FA
  0 Cu    29.2980    29.0000    -0.2980     1.0164     0.8897     0.1267
  1 Cu    28.8510    29.0000     0.1490     0.9538     0.5076     0.4462
  2 Cu    28.8510    29.0000     0.1490     0.9538     0.5076     0.4462

  Mayer bond orders larger than 0.100000
B(  0-Cu,  1-Cu) :   0.4449 B(  0-Cu,  2-Cu) :   0.4449 

-------
TIMINGS
-------

Total SCF time: 0 days 0 hours 0 min 22 sec 

Total time                  ....      22.107 sec
Sum of individual times     ....      21.774 sec  ( 98.5%)

Fock matrix formation       ....      20.931 sec  ( 94.7%)
  XC integration            ....       1.275 sec  (  6.1% of F)
    Basis function eval.    ....       0.092 sec  (  7.2% of XC)
    Density eval.           ....       0.108 sec  (  8.5% of XC)
    XC-Functional eval.     ....       0.051 sec  (  4.0% of XC)
    XC-Potential eval.      ....       0.217 sec  ( 17.0% of XC)
Diagonalization             ....       0.300 sec  (  1.4%)
Density matrix formation    ....       0.038 sec  (  0.2%)
Population analysis         ....       0.016 sec  (  0.1%)
Initial guess               ....       0.099 sec  (  0.4%)
Orbital Transformation      ....       0.000 sec  (  0.0%)
Orbital Orthonormalization  ....       0.000 sec  (  0.0%)
DIIS solution               ....       0.098 sec  (  0.4%)
Grid generation             ....       0.292 sec  (  1.3%)

-------------------------   --------------------
FINAL SINGLE POINT ENERGY     -4921.057285295838
-------------------------   --------------------


----------------------------------------------------------------------------
                           ORCA NUMERICAL GRADIENT
                              (24-process run)
----------------------------------------------------------------------------

I state                        ... 1
J state                        ... 0
Number of atoms                ... 3
Derivative's order of accuracy ... 2
Central differences            ... used
Number of displacements        ... 18
Numerical increment            ... 5.000e-03 bohr
Translation invariance         ... used

The output will be reduced. Please look at the following files:
SCF program output             ... >Cu03N0_LIN.lastscf
Integral program output        ... >Cu03N0_LIN.lastint
Gradient program output        ... >Cu03N0_LIN.lastgrad


     Note:   There are more processes than displacements to do
     ===>:   Reducing number of processes to   6

             <<<Displacing   3/coordinate 3 (+)>>>
             <<<Displacing   3/coordinate 1 (+)>>>
             <<<Displacing   2/coordinate 1 (+)>>>
             <<<Displacing   3/coordinate 2 (+)>>>
             <<<Displacing   2/coordinate 3 (+)>>>
             <<<Displacing   2/coordinate 2 (+)>>>
             <<<Displacing   3/coordinate 1 (-)>>>
             <<<Displacing   2/coordinate 2 (-)>>>
             <<<Displacing   2/coordinate 1 (-)>>>
             <<<Displacing   3/coordinate 2 (-)>>>
             <<<Displacing   2/coordinate 3 (-)>>>
             <<<Displacing   3/coordinate 3 (-)>>>

------------------------------
CARTESIAN GRADIENT (NUMERICAL)
-------------------------------
   1   Cu  :   -0.000000141   -0.000000027   -0.000000012
   2   Cu  :    0.000000113   -0.000000009   -0.007346781
   3   Cu  :    0.000000028    0.000000036    0.007346792

Norm of the cartesian gradient     ...    0.010389925
RMS gradient                       ...    0.003463308
MAX gradient                       ...    0.007346792

-------
TIMINGS
-------

Total numerical gradient time      ...      297.747 sec

------------------------------------------------------------------------------
                         ORCA GEOMETRY RELAXATION STEP
------------------------------------------------------------------------------

Reading the OPT-File                    .... done
Getting information on internals        .... done
Copying old internal coords+grads       .... done
Making the new internal coordinates     .... (new redundants).... done
Validating the new internal coordinates .... (new redundants).... done
Calculating the B-matrix                .... done
Calculating the G,G- and P matrices     .... done
Transforming gradient to internals      .... done
Projecting the internal gradient        .... done
Number of atoms                         ....   3
Number of internal coordinates          ....   4
Current Energy                          .... -4921.057285296 Eh
Current gradient norm                   ....     0.010389925 Eh/bohr
Maximum allowed component of the step   ....  0.300
Current trust radius                    ....  0.300
Evaluating the initial hessian          ....  (Almloef) done
Projecting the Hessian                  .... done
Forming the augmented Hessian           .... done
Diagonalizing the augmented Hessian     .... done
Last element of RFO vector              ....  0.999990103
Lowest eigenvalues of augmented Hessian:
 -0.000046225  1.128240028  1.128240028  2.335297409
Length of the computed step             ....  0.004448992
The final length of the internal step   ....  0.004448992
Converting the step to cartesian space:
 Initial RMS(Int)=    0.0022244960
Transforming coordinates:
 Iter   0:  RMS(Cart)=    0.0014829973 RMS(Int)=    0.0022244960
 Iter   1:  RMS(Cart)=    0.0000000087 RMS(Int)=    0.0000000129
done
Storing new coordinates                 .... done

                                .--------------------.
          ----------------------|Geometry convergence|-------------------------
          Item                value                   Tolerance       Converged
          ---------------------------------------------------------------------
          RMS gradient        0.0051949625            0.0001000000      NO
          MAX gradient        0.0073467922            0.0003000000      NO
          RMS step            0.0022244960            0.0020000000      NO
          MAX step            0.0031459149            0.0040000000      YES
          ........................................................
          Max(Bonds)      0.0017      Max(Angles)    0.00
          Max(Dihed)        0.00      Max(Improp)    0.00
          ---------------------------------------------------------------------

The optimization has not yet converged - more geometry cycles are needed


    ---------------------------------------------------------------------------
                         Redundant Internal Coordinates
                            (Angstroem and degrees)

        Definition                    Value    dE/dq     Step     New-Value
    ----------------------------------------------------------------------------
     1. B(Cu  1,Cu  0)                2.2911 -0.007347  0.0017    2.2928   
     2. B(Cu  2,Cu  0)                2.2911 -0.007347  0.0017    2.2928   
     3. L(Cu  1,Cu  0,Cu  2, 2)       180.00  0.000000   -0.00    180.00   
     4. L(Cu  1,Cu  0,Cu  2, 1)       180.00 -0.000000    0.00    180.00   
    ----------------------------------------------------------------------------

         *************************************************************
         *                GEOMETRY OPTIMIZATION CYCLE   2            *
         *************************************************************
---------------------------------
CARTESIAN COORDINATES (ANGSTROEM)
---------------------------------
  Cu     0.000000    0.000000    0.000000
  Cu    -0.000000   -0.000000    2.292764
  Cu    -0.000000   -0.000000   -2.292764

----------------------------
CARTESIAN COORDINATES (A.U.)
----------------------------
  NO LB      ZA    FRAG     MASS         X           Y           Z
   0 Cu   29.0000    0    63.550    0.000000    0.000000    0.000000
   1 Cu   29.0000    0    63.550   -0.000000   -0.000000    4.332696
   2 Cu   29.0000    0    63.550   -0.000000   -0.000000   -4.332696

--------------------------------
INTERNAL COORDINATES (ANGSTROEM)
--------------------------------
 Cu     0   0   0     0.000000000000     0.00000000     0.00000000
 Cu     1   0   0     2.292763743827     0.00000000     0.00000000
 Cu     1   2   0     2.292763746444   179.99999852     0.00000000

---------------------------
INTERNAL COORDINATES (A.U.)
---------------------------
 Cu     0   0   0     0.000000000000     0.00000000     0.00000000
 Cu     1   0   0     4.332695565616     0.00000000     0.00000000
 Cu     1   2   0     4.332695570562   179.99999852     0.00000000



           ************************************************************
           *        Program running with 24 parallel MPI-processes    *
           *              working on a common directory               *
           ************************************************************


           ************************************************************
           *        Program running with 24 parallel MPI-processes    *
           *              working on a common directory               *
           ************************************************************

Diagonalization of the overlap matrix:
Smallest eigenvalue                        ... 3.329e-04
Time for diagonalization                   ...    0.007 sec
Threshold for overlap eigenvalues          ... 1.000e-08
Number of eigenvalues below threshold      ... 0
Time for construction of square roots      ...    0.005 sec
Total time needed                          ...    0.013 sec

-------------------
DFT GRID GENERATION
-------------------

General Integration Accuracy     IntAcc      ...  4.670
Radial Grid Type                 RadialGrid  ... Gauss-Chebyshev
Angular Grid (max. acc.)         AngularGrid ... Lebedev-302
Angular grid pruning method      GridPruning ... 3 (G Style)
Weight generation scheme         WeightScheme... Becke
Basis function cutoff            BFCut       ...    1.0000e-11
Integration weight cutoff        WCut        ...    1.0000e-14
Grids for H and He will be reduced by one unit

# of grid points (after initial pruning)     ...  28668 (   0.0 sec)
# of grid points (after weights+screening)   ...  28508 (   0.0 sec)
nearest neighbour list constructed           ...    0.0 sec
Grid point re-assignment to atoms done       ...    0.0 sec
Grid point division into batches done        ...    0.2 sec
Reduced shell lists constructed in    0.2 sec

Total number of grid points                  ...    28508
Total number of batches                      ...      447
Average number of points per batch           ...       63
Average number of grid points per atom       ...     9503
Average number of shells per batch           ...    19.10 (33.51%)
Average number of basis functions per batch  ...    56.10 (27.91%)
Average number of large shells per batch     ...    16.15 (84.55%)
Average number of large basis fcns per batch ...    46.85 (83.51%)
Maximum spatial batch extension              ...  26.18, 26.18,  4.32 au
Average spatial batch extension              ...   0.43,  0.42,  0.18 au

Time for grid setup =    0.242 sec

--------------
SCF ITERATIONS
--------------
ITER       Energy         Delta-E        Max-DP      RMS-DP      [F,P]     Damp
               ***  Starting incremental Fock matrix formation  ***
  0  -4921.4234677454   0.000000000000 0.00011475  0.00000163  0.0012022 0.7000
  1  -4921.4234678013  -0.000000055862 0.00011273  0.00000157  0.0008421 0.7000
                               ***Turning on DIIS***
  2  -4921.4234678414  -0.000000040145 0.00032032  0.00000439  0.0005897 0.0000
  3  -4921.4234679431  -0.000000101692 0.00005343  0.00000078  0.0000176 0.0000
  4  -4921.4234679465  -0.000000003358 0.00001729  0.00000019  0.0000157 0.0000
  5  -4921.4234679459   0.000000000581 0.00000711  0.00000009  0.0000181 0.0000
  6  -4921.4234679472  -0.000000001321 0.00002092  0.00000017  0.0000067 0.0000
  7  -4921.4234679466   0.000000000628 0.00000272  0.00000004  0.0000014 0.0000
  8  -4921.4234679472  -0.000000000612 0.00000599  0.00000007  0.0000014 0.0000
                            ***DIIS convergence achieved***

               *****************************************************
               *                     SUCCESS                       *
               *           SCF CONVERGED AFTER   9 CYCLES          *
               *****************************************************


Setting up the DFT-NL grid :

General Integration Accuracy     IntAcc      ...  4.340
Radial Grid Type                 RadialGrid  ... Gauss-Chebyshev
Angular Grid (max. acc.)         AngularGrid ... Lebedev-110
Angular grid pruning method      GridPruning ... 3 (G Style)
Weight generation scheme         WeightScheme... Becke
Basis function cutoff            BFCut       ...    1.0000e-11
Integration weight cutoff        WCut        ...    1.0000e-14
Grids for H and He will be reduced by one unit

# of grid points (after initial pruning)     ...   8736 (   0.0 sec)
# of grid points (after weights+screening)   ...   8684 (   0.0 sec)
nearest neighbour list constructed           ...    0.0 sec
Grid point re-assignment to atoms done       ...    0.0 sec
Grid point division into batches done        ...    0.0 sec
Reduced shell lists constructed in    0.0 sec

Total number of grid points                  ...     8684
Total number of batches                      ...      136
Average number of points per batch           ...       63
Average number of grid points per atom       ...     2895
Average number of shells per batch           ...    21.00 (36.84%)
Average number of basis functions per batch  ...    65.86 (32.76%)
Average number of large shells per batch     ...    17.43 (82.99%)
Average number of large basis fcns per batch ...    52.29 (79.39%)
Maximum spatial batch extension              ...  17.92, 26.34,  4.32 au
Average spatial batch extension              ...   0.74,  0.89,  0.16 au

Final grid set up in    0.0 sec

-------------------------------------------------------------------------------
                         DFT-NL dispersion correction                          
-------------------------------------------------------------------------------

SC Energy -4921.423467948 
NL    Energy 0.366137122 
SC+NL Energy -4921.057330825 
NL done in    0.0 sec
-------------------------------------------------------------------------------
Total Energy       :        -4921.05733083 Eh         -133908.77776 eV
  Last Energy change         ...   -3.9927e-10  Tolerance :   1.0000e-08
  Last MAX-Density change    ...    5.2344e-06  Tolerance :   1.0000e-07
             **** THE GBW FILE WAS UPDATED (Cu03N0_LIN.gbw) ****
             **** DENSITY FILE WAS UPDATED (Cu03N0_LIN.scfp) ****
             **** ENERGY FILE WAS UPDATED (Cu03N0_LIN.en.tmp) ****
----------------------
UHF SPIN CONTAMINATION
----------------------

Warning: in a DFT calculation there is little theoretical justification to 
         calculate <S**2> as in Hartree-Fock theory. We will do it anyways
         but you should keep in mind that the values have only limited relevance

Expectation value of <S**2>     :     0.790342
Ideal value S*(S+1) for S=0.5   :     0.750000
Deviation                       :     0.040342

             **** THE GBW FILE WAS UPDATED (Cu03N0_LIN.gbw) ****
             **** DENSITY FILE WAS UPDATED (Cu03N0_LIN.scfp) ****
Total SCF time: 0 days 0 hours 0 min 7 sec 

-------------------------   --------------------
FINAL SINGLE POINT ENERGY     -4921.057330825396
-------------------------   --------------------


----------------------------------------------------------------------------
                           ORCA NUMERICAL GRADIENT
                              (24-process run)
----------------------------------------------------------------------------

I state                        ... 1
J state                        ... 0
Number of atoms                ... 3
Derivative's order of accuracy ... 2
Central differences            ... used
Number of displacements        ... 18
Numerical increment            ... 5.000e-03 bohr
Translation invariance         ... used

The output will be reduced. Please look at the following files:
SCF program output             ... >Cu03N0_LIN.lastscf
Integral program output        ... >Cu03N0_LIN.lastint
Gradient program output        ... >Cu03N0_LIN.lastgrad


     Note:   There are more processes than displacements to do
     ===>:   Reducing number of processes to   6

             <<<Displacing   3/coordinate 1 (+)>>>
             <<<Displacing   2/coordinate 3 (+)>>>
             <<<Displacing   2/coordinate 1 (+)>>>
             <<<Displacing   3/coordinate 2 (+)>>>
             <<<Displacing   3/coordinate 3 (+)>>>
             <<<Displacing   2/coordinate 2 (+)>>>
             <<<Displacing   2/coordinate 1 (-)>>>
             <<<Displacing   3/coordinate 1 (-)>>>
             <<<Displacing   2/coordinate 2 (-)>>>
             <<<Displacing   3/coordinate 2 (-)>>>
             <<<Displacing   2/coordinate 3 (-)>>>
             <<<Displacing   3/coordinate 3 (-)>>>

------------------------------
CARTESIAN GRADIENT (NUMERICAL)
-------------------------------
   1   Cu  :   -0.000000224   -0.000000100    0.000000003
   2   Cu  :    0.000000040   -0.000000056   -0.007124953
   3   Cu  :    0.000000184    0.000000156    0.007124950

Norm of the cartesian gradient     ...    0.010076203
RMS gradient                       ...    0.003358734
MAX gradient                       ...    0.007124953

-------
TIMINGS
-------

Total numerical gradient time      ...      298.761 sec

------------------------------------------------------------------------------
                         ORCA GEOMETRY RELAXATION STEP
------------------------------------------------------------------------------

Reading the OPT-File                    .... done
Getting information on internals        .... done
Copying old internal coords+grads       .... done
Making the new internal coordinates     .... (new redundants).... done
Validating the new internal coordinates .... (new redundants).... done
Calculating the B-matrix                .... done
Calculating the G,G- and P matrices     .... done
Transforming gradient to internals      .... done
Projecting the internal gradient        .... done
Number of atoms                         ....   3
Number of internal coordinates          ....   4
Current Energy                          .... -4921.057330825 Eh
Current gradient norm                   ....     0.010076203 Eh/bohr
Maximum allowed component of the step   ....  0.300
Current trust radius                    ....  0.300
Updating the Hessian (BFGS)             .... done
Forming the augmented Hessian           .... done
Diagonalizing the augmented Hessian     .... done
Last element of RFO vector              ....  0.990329588
Lowest eigenvalues of augmented Hessian:
 -0.001411569  0.071926952  1.128240028  1.128240030
Length of the computed step             ....  0.140089389
The final length of the internal step   ....  0.140089389
Converting the step to cartesian space:
 Initial RMS(Int)=    0.0700446943
Transforming coordinates:
 Iter   0:  RMS(Cart)=    0.0466964629 RMS(Int)=    0.0700446943
 Iter   1:  RMS(Cart)=    0.0000002445 RMS(Int)=    0.0000002034
 Iter   2:  RMS(Cart)=    0.0000001891 RMS(Int)=    0.0000001568
 Iter   3:  RMS(Cart)=    0.0000001464 RMS(Int)=    0.0000001215
 Iter   4:  RMS(Cart)=    0.0000001134 RMS(Int)=    0.0000000938
 Iter   5:  RMS(Cart)=    0.0000000878 RMS(Int)=    0.0000000727
done
Storing new coordinates                 .... done

                                .--------------------.
          ----------------------|Geometry convergence|-------------------------
          Item                value                   Tolerance       Converged
          ---------------------------------------------------------------------
          Energy change      -0.0000455296            0.0000050000      NO
          RMS gradient        0.0050381013            0.0001000000      NO
          MAX gradient        0.0071249526            0.0003000000      NO
          RMS step            0.0700446943            0.0020000000      NO
          MAX step            0.0990581750            0.0040000000      NO
          ........................................................
          Max(Bonds)      0.0524      Max(Angles)    0.00
          Max(Dihed)        0.00      Max(Improp)    0.00
          ---------------------------------------------------------------------

The optimization has not yet converged - more geometry cycles are needed


    ---------------------------------------------------------------------------
                         Redundant Internal Coordinates
                            (Angstroem and degrees)

        Definition                    Value    dE/dq     Step     New-Value
    ----------------------------------------------------------------------------
     1. B(Cu  1,Cu  0)                2.2928 -0.007125  0.0524    2.3452   
     2. B(Cu  2,Cu  0)                2.2928 -0.007125  0.0524    2.3452   
     3. L(Cu  1,Cu  0,Cu  2, 2)       180.00  0.000000   -0.00    180.00   
     4. L(Cu  1,Cu  0,Cu  2, 1)       180.00 -0.000000    0.00    180.00   
    ----------------------------------------------------------------------------

         *************************************************************
         *                GEOMETRY OPTIMIZATION CYCLE   3            *
         *************************************************************


           ************************************************************
           *        Program running with 24 parallel MPI-processes    *
           *              working on a common directory               *
           ************************************************************


           ************************************************************
           *        Program running with 24 parallel MPI-processes    *
           *              working on a common directory               *
           ************************************************************

Diagonalization of the overlap matrix:
Smallest eigenvalue                        ... 3.594e-04
Time for diagonalization                   ...    0.008 sec
Threshold for overlap eigenvalues          ... 1.000e-08
Number of eigenvalues below threshold      ... 0
Time for construction of square roots      ...    0.005 sec
Total time needed                          ...    0.014 sec

-------------------
DFT GRID GENERATION
-------------------

General Integration Accuracy     IntAcc      ...  4.670
Radial Grid Type                 RadialGrid  ... Gauss-Chebyshev
Angular Grid (max. acc.)         AngularGrid ... Lebedev-302
Angular grid pruning method      GridPruning ... 3 (G Style)
Weight generation scheme         WeightScheme... Becke
Basis function cutoff            BFCut       ...    1.0000e-11
Integration weight cutoff        WCut        ...    1.0000e-14
Grids for H and He will be reduced by one unit

# of grid points (after initial pruning)     ...  28668 (   0.0 sec)
# of grid points (after weights+screening)   ...  28508 (   0.0 sec)
nearest neighbour list constructed           ...    0.0 sec
Grid point re-assignment to atoms done       ...    0.0 sec
Grid point division into batches done        ...    0.2 sec
Reduced shell lists constructed in    0.2 sec

Total number of grid points                  ...    28508
Total number of batches                      ...      447
Average number of points per batch           ...       63
Average number of grid points per atom       ...     9503
Average number of shells per batch           ...    19.10 (33.51%)
Average number of basis functions per batch  ...    56.10 (27.91%)
Average number of large shells per batch     ...    16.15 (84.55%)
Average number of large basis fcns per batch ...    46.85 (83.51%)
Maximum spatial batch extension              ...  26.18, 26.18,  4.42 au
[...]
      g-3     :     0.000000
      g+4     :     0.000000
      g-4     :     0.000000
  2 Cus       :     6.865233  s :     6.865233
      pz      :     3.999689  p :    12.015068
      px      :     4.007689
      py      :     4.007689
      dz2     :     1.975129  d :     9.967104
      dxz     :     1.995859
      dyz     :     1.995859
      dx2y2   :     2.000129
      dxy     :     2.000129
      f0      :     0.000040  f :     0.000131
      f+1     :     0.000035
      f-1     :     0.000035
      f+2     :     0.000010
      f-2     :     0.000010
      f+3     :     0.000000
      f-3     :     0.000000
      g0      :     0.000000  g :     0.000000
      g+1     :     0.000000
      g-1     :     0.000000
      g+2     :     0.000000
      g-2     :     0.000000
      g+3     :     0.000000
      g-3     :     0.000000
      g+4     :     0.000000
      g-4     :     0.000000

SPIN
  0 Cus       :    -0.363347  s :    -0.363347
      pz      :     0.061545  p :     0.061777
      px      :     0.000116
      py      :     0.000116
      dz2     :    -0.006371  d :    -0.010799
      dxz     :    -0.002256
      dyz     :    -0.002256
      dx2y2   :     0.000041
      dxy     :     0.000041
      f0      :     0.000013  f :     0.000015
      f+1     :     0.000001
      f-1     :     0.000001
      f+2     :     0.000000
      f-2     :     0.000000
      f+3     :    -0.000000
      f-3     :    -0.000000
      g0      :     0.000000  g :     0.000000
      g+1     :     0.000000
      g-1     :     0.000000
      g+2     :    -0.000000
      g-2     :    -0.000000
      g+3     :    -0.000000
      g-3     :    -0.000000
      g+4     :    -0.000000
      g-4     :    -0.000000
  1 Cus       :     0.648467  s :     0.648467
      pz      :     0.010936  p :     0.013235
      px      :     0.001150
      py      :     0.001150
      dz2     :    -0.005325  d :    -0.005528
      dxz     :    -0.000081
      dyz     :    -0.000081
      dx2y2   :    -0.000021
      dxy     :    -0.000021
      f0      :     0.000000  f :     0.000000
      f+1     :     0.000000
      f-1     :     0.000000
      f+2     :    -0.000000
      f-2     :    -0.000000
      f+3     :     0.000000
      f-3     :     0.000000
      g0      :    -0.000000  g :    -0.000000
      g+1     :    -0.000000
      g-1     :    -0.000000
      g+2     :     0.000000
      g-2     :     0.000000
      g+3     :    -0.000000
      g-3     :    -0.000000
      g+4     :     0.000000
      g-4     :    -0.000000
  2 Cus       :     0.648471  s :     0.648471
      pz      :     0.010936  p :     0.013235
      px      :     0.001150
      py      :     0.001150
      dz2     :    -0.005325  d :    -0.005528
      dxz     :    -0.000081
      dyz     :    -0.000081
      dx2y2   :    -0.000021
      dxy     :    -0.000021
      f0      :     0.000000  f :     0.000000
      f+1     :     0.000000
      f-1     :     0.000000
      f+2     :    -0.000000
      f-2     :    -0.000000
      f+3     :     0.000000
      f-3     :     0.000000
      g0      :    -0.000000  g :    -0.000000
      g+1     :    -0.000000
      g-1     :    -0.000000
      g+2     :     0.000000
      g-2     :     0.000000
      g+3     :    -0.000000
      g-3     :    -0.000000
      g+4     :     0.000000
      g-4     :    -0.000000


                     *******************************
                     * LOEWDIN POPULATION ANALYSIS *
                     *******************************

-------------------------------------------
LOEWDIN ATOMIC CHARGES AND SPIN POPULATIONS
-------------------------------------------
   0 Cu:   -0.249016    0.376190
   1 Cu:    0.124508    0.311905
   2 Cu:    0.124508    0.311905

----------------------------------------------------
LOEWDIN REDUCED ORBITAL CHARGES AND SPIN POPULATIONS
----------------------------------------------------
CHARGE
  0 Cus       :     6.742975  s :     6.742975
      pz      :     4.453256  p :    12.476407
      px      :     4.011576
      py      :     4.011576
      dz2     :     2.066182  d :    10.029103
      dxz     :     1.981714
      dyz     :     1.981714
      dx2y2   :     1.999746
      dxy     :     1.999746
      f0      :     0.000292  f :     0.000529
      f+1     :     0.000111
      f-1     :     0.000111
      f+2     :     0.000008
      f-2     :     0.000008
      f+3     :     0.000000
      f-3     :     0.000000
      g0      :     0.000001  g :     0.000002
      g+1     :     0.000000
      g-1     :     0.000000
      g+2     :     0.000000
      g-2     :     0.000000
      g+3     :     0.000000
      g-3     :     0.000000
      g+4     :     0.000000
      g-4     :     0.000000
  1 Cus       :     6.710974  s :     6.710974
      pz      :     4.135678  p :    12.154659
      px      :     4.009491
      py      :     4.009491
      dz2     :     2.021871  d :    10.009567
      dxz     :     1.993737
      dyz     :     1.993737
      dx2y2   :     2.000111
      dxy     :     2.000111
      f0      :     0.000124  f :     0.000291
      f+1     :     0.000072
      f-1     :     0.000072
      f+2     :     0.000012
      f-2     :     0.000012
      f+3     :     0.000000
      f-3     :     0.000000
      g0      :     0.000000  g :     0.000001
      g+1     :     0.000000
      g-1     :     0.000000
      g+2     :     0.000000
      g-2     :     0.000000
      g+3     :     0.000000
      g-3     :     0.000000
      g+4     :     0.000000
      g-4     :     0.000000
  2 Cus       :     6.710974  s :     6.710974
      pz      :     4.135678  p :    12.154659
      px      :     4.009491
      py      :     4.009491
      dz2     :     2.021871  d :    10.009567
      dxz     :     1.993737
      dyz     :     1.993737
      dx2y2   :     2.000111
      dxy     :     2.000111
      f0      :     0.000124  f :     0.000291
      f+1     :     0.000072
      f-1     :     0.000072
      f+2     :     0.000012
      f-2     :     0.000012
      f+3     :     0.000000
      f-3     :     0.000000
      g0      :     0.000000  g :     0.000001
      g+1     :     0.000000
      g-1     :     0.000000
      g+2     :     0.000000
      g-2     :     0.000000
      g+3     :     0.000000
      g-3     :     0.000000
      g+4     :     0.000000
      g-4     :     0.000000

SPIN
  0 Cus       :    -0.068048  s :    -0.068048
      pz      :     0.419546  p :     0.419735
      px      :     0.000095
      py      :     0.000095
      dz2     :     0.028555  d :     0.024417
      dxz     :    -0.002111
      dyz     :    -0.002111
      dx2y2   :     0.000042
      dxy     :     0.000042
      f0      :     0.000080  f :     0.000087
      f+1     :     0.000003
      f-1     :     0.000003
      f+2     :     0.000000
      f-2     :     0.000000
      f+3     :    -0.000000
      f-3     :    -0.000000
      g0      :     0.000000  g :     0.000000
      g+1     :     0.000000
      g-1     :     0.000000
      g+2     :    -0.000000
      g-2     :    -0.000000
      g+3     :    -0.000000
      g-3     :    -0.000000
      g+4     :    -0.000000
      g-4     :    -0.000000
  1 Cus       :     0.347487  s :     0.347487
      pz      :    -0.030705  p :    -0.028514
      px      :     0.001096
      py      :     0.001096
      dz2     :    -0.006836  d :    -0.007056
      dxz     :    -0.000090
      dyz     :    -0.000090
      dx2y2   :    -0.000021
      dxy     :    -0.000021
      f0      :    -0.000012  f :    -0.000012
      f+1     :     0.000000
      f-1     :     0.000000
      f+2     :    -0.000000
      f-2     :    -0.000000
      f+3     :     0.000000
      f-3     :     0.000000
      g0      :    -0.000000  g :    -0.000000
      g+1     :    -0.000000
      g-1     :    -0.000000
      g+2     :     0.000000
      g-2     :     0.000000
      g+3     :    -0.000000
      g-3     :    -0.000000
      g+4     :     0.000000
      g-4     :    -0.000000
  2 Cus       :     0.347487  s :     0.347487
      pz      :    -0.030705  p :    -0.028514
      px      :     0.001096
      py      :     0.001096
      dz2     :    -0.006836  d :    -0.007056
      dxz     :    -0.000090
      dyz     :    -0.000090
      dx2y2   :    -0.000021
      dxy     :    -0.000021
      f0      :    -0.000012  f :    -0.000012
      f+1     :     0.000000
      f-1     :     0.000000
      f+2     :    -0.000000
      f-2     :    -0.000000
      f+3     :     0.000000
      f-3     :     0.000000
      g0      :    -0.000000  g :    -0.000000
      g+1     :    -0.000000
      g-1     :    -0.000000
      g+2     :     0.000000
      g-2     :     0.000000
      g+3     :    -0.000000
      g-3     :    -0.000000
      g+4     :     0.000000
      g-4     :    -0.000000


                      *****************************
                      * MAYER POPULATION ANALYSIS *
                      *****************************

  NA   - Mulliken gross atomic population
  ZA   - Total nuclear charge
  QA   - Mulliken gross atomic charge
  VA   - Mayer's total valence
  BVA  - Mayer's bonded valence
  FA   - Mayer's free valence

  ATOM       NA         ZA         QA         VA         BVA        FA
  0 Cu    29.3049    29.0000    -0.3049     1.1001     0.9671     0.1330
  1 Cu    28.8475    29.0000     0.1525     0.9611     0.5393     0.4218
  2 Cu    28.8475    29.0000     0.1525     0.9611     0.5393     0.4218

  Mayer bond orders larger than 0.100000
B(  0-Cu,  1-Cu) :   0.4836 B(  0-Cu,  2-Cu) :   0.4836 

-------
TIMINGS
-------

Total SCF time: 0 days 0 hours 0 min 6 sec 

Total time                  ....       6.205 sec
Sum of individual times     ....       5.922 sec  ( 95.4%)

Fock matrix formation       ....       5.477 sec  ( 88.3%)
  XC integration            ....       0.354 sec  (  6.5% of F)
    Basis function eval.    ....       0.038 sec  ( 10.8% of XC)
    Density eval.           ....       0.042 sec  ( 11.7% of XC)
    XC-Functional eval.     ....       0.020 sec  (  5.6% of XC)
    XC-Potential eval.      ....       0.062 sec  ( 17.4% of XC)
Diagonalization             ....       0.090 sec  (  1.5%)
Density matrix formation    ....       0.012 sec  (  0.2%)
Population analysis         ....       0.013 sec  (  0.2%)
Initial guess               ....       0.024 sec  (  0.4%)
Orbital Transformation      ....       0.000 sec  (  0.0%)
Orbital Orthonormalization  ....       0.016 sec  (  0.3%)
DIIS solution               ....       0.027 sec  (  0.4%)
Grid generation             ....       0.279 sec  (  4.5%)

-------------------------   --------------------
FINAL SINGLE POINT ENERGY     -4921.058111294489
-------------------------   --------------------

                                *** OPTIMIZATION RUN DONE ***

                            ***************************************
                            *     ORCA property calculations      *
                            ***************************************

                                    ---------------------
                                    Active property flags
                                    ---------------------
   (+) Dipole Moment


------------------------------------------------------------------------------
                       ORCA ELECTRIC PROPERTIES CALCULATION
------------------------------------------------------------------------------

Dipole Moment Calculation                       ... on
Quadrupole Moment Calculation                   ... off
Polarizability Calculation                      ... off
GBWName                                         ... Cu03N0_LIN.gbw
Electron density file                           ... Cu03N0_LIN.scfp
The origin for moment calculation is the CENTER OF MASS  = ( 0.000000,  0.000000 -0.000000)

-------------
DIPOLE MOMENT
-------------
                                X             Y             Z
Electronic contribution:     -0.00000      -0.00000       0.00000
Nuclear contribution   :     -0.00000      -0.00000       0.00000
                        -----------------------------------------
Total Dipole Moment    :     -0.00000      -0.00000       0.00000
                        -----------------------------------------
Magnitude (a.u.)       :      0.00000
Magnitude (Debye)      :      0.00000



--------------------
Rotational spectrum 
--------------------
 
Rotational constants in cm-1:     0.000000     0.023948     0.023948 
Rotational constants in MHz :     0.000000   717.947816   717.947816 

 Dipole components along the rotational axes: 
x,y,z [a.u.] :     0.000000    -0.000001     0.000000 
x,y,z [Debye]:     0.000000    -0.000002     0.000000 

 

----------------------------------------------------------------------------
                           ORCA NUMERICAL FREQUENCIES
                              (24-process run)
----------------------------------------------------------------------------

Number of atoms                ... 3
Central differences            ... used
Number of displacements        ... 18
Numerical increment            ... 5.000e-03 bohr
IR-spectrum generation         ... on
Raman-spectrum generation      ... off
Surface Crossing Hessian       ... off

 WARNING: There are more processes than displacements to do
  ====> : Reducing number of processes to   9

The output will be reduced. Please look at the following files:
SCF program output             ... >Cu03N0_LIN.lastscf
Integral program output        ... >Cu03N0_LIN.lastint
Gradient program output        ... >Cu03N0_LIN.lastgrad
Dipole moment program output   ... >Cu03N0_LIN.lastmom
AutoCI program output          ... >Cu03N0_LIN.lastautoci


         <<< Energy and Gradient at the input geometry >>>

        <<< Energy and Gradient at displaced geometries >>>
             <<<Displacing   1/coordinate 1 (+)>>>
             <<<Displacing   2/coordinate 1 (+)>>>
             <<<Displacing   2/coordinate 3 (+)>>>
             <<<Displacing   3/coordinate 2 (+)>>>
             <<<Displacing   2/coordinate 2 (+)>>>
             <<<Displacing   3/coordinate 1 (+)>>>
             <<<Displacing   3/coordinate 3 (+)>>>
             <<<Displacing   1/coordinate 3 (+)>>>
             <<<Displacing   1/coordinate 2 (+)>>>
             <<<Displacing   2/coordinate 1 (-)>>>
             <<<Displacing   2/coordinate 2 (-)>>>
             <<<Displacing   3/coordinate 2 (-)>>>
             <<<Displacing   3/coordinate 1 (-)>>>
             <<<Displacing   1/coordinate 2 (-)>>>
             <<<Displacing   1/coordinate 1 (-)>>>
             <<<Displacing   2/coordinate 3 (-)>>>
             <<<Displacing   3/coordinate 3 (-)>>>
             <<<Displacing   1/coordinate 3 (-)>>>

-----------------------
VIBRATIONAL FREQUENCIES
-----------------------

Scaling factor for frequencies =  1.000000000 (already applied!)

   0:         0.00 cm**-1
   1:         0.00 cm**-1
   2:         0.00 cm**-1
   3:         0.00 cm**-1
   4:         0.00 cm**-1
   5:         0.00 cm**-1
   6:       -33.44 cm**-1 ***imaginary mode***
   7:       150.01 cm**-1
   8:       234.07 cm**-1


------------
NORMAL MODES
------------

These modes are the cartesian displacements weighted by the diagonal matrix
M(i,i)=1/sqrt(m[i]) where m[i] is the mass of the displaced atom
Thus, these vectors are normalized but *not* orthogonal

                  0          1          2          3          4          5    
      0       0.000000   0.000000   0.000000   0.000000   0.000000   0.000000
      1       0.000000   0.000000   0.000000   0.000000   0.000000   0.000000
      2       0.000000   0.000000   0.000000   0.000000   0.000000   0.000000
      3       0.000000   0.000000   0.000000   0.000000   0.000000   0.000000
      4       0.000000   0.000000   0.000000   0.000000   0.000000   0.000000
      5       0.000000   0.000000   0.000000   0.000000   0.000000   0.000000
      6       0.000000   0.000000   0.000000   0.000000   0.000000   0.000000
      7       0.000000   0.000000   0.000000   0.000000   0.000000   0.000000
      8       0.000000   0.000000   0.000000   0.000000   0.000000   0.000000
                   6          7          8    
      0       0.728249  -0.000023   0.000081
      1       0.369215  -0.000012   0.000041
      2      -0.000091  -0.000027   0.816497
      3      -0.364125   0.000012  -0.000040
      4      -0.184608   0.000006  -0.000020
      5       0.000023  -0.707093  -0.408272
      6      -0.364125   0.000012  -0.000041
      7      -0.184608   0.000006  -0.000021
      8       0.000068   0.707120  -0.408225


-----------
IR SPECTRUM  
-----------

 Mode    freq (cm**-1)   T**2         TX         TY         TZ
-------------------------------------------------------------------
   7:       150.01    0.000000  (  0.000011   0.000001   0.000069)
   8:       234.07    7.567508  ( -0.000092  -0.000048  -2.750910)

The first frequency considered to be a vibration is 7
The total number of vibrations considered is 2


--------------------------
THERMOCHEMISTRY AT 298.15K
--------------------------

Temperature         ... 298.15 K
Pressure            ... 1.00 atm
Total Mass          ... 190.65 AMU
The molecule is recognized as being linear

Throughout the following assumptions are being made:
  (1) The electronic state is orbitally nondegenerate
      but the spin degeneracy is treated
  (2) There are no thermally accessible electronically excited states
  (3) Hindered rotations indicated by low frequency modes are not
      treated as such but are treated as vibrations and this may
      cause some error
  (4) All equations used are the standard statistical mechanics
      equations for an ideal gas
  (5) All vibrations are strictly harmonic

freq.     150.01  E(vib)   ...       0.40 
freq.     234.07  E(vib)   ...       0.32 

------------
INNER ENERGY
------------

The inner energy is: U= E(el) + E(ZPE) + E(vib) + E(rot) + E(trans)
    E(el)   - is the total energy from the electronic structure calculation
              = E(kin-el) + E(nuc-el) + E(el-el) + E(nuc-nuc)
    E(ZPE)  - the the zero temperature vibrational energy from the frequency calculation
    E(vib)  - the the finite temperature correction to E(ZPE) due to population
              of excited vibrational states
    E(rot)  - is the rotational thermal energy
    E(trans)- is the translational thermal energy

Summary of contributions to the inner energy U:
Electronic energy                ...  -4921.05811130 Eh
Zero point energy                ...      0.00087499 Eh       0.55 kcal/mol
Thermal vibrational correction   ...      0.00115262 Eh       0.72 kcal/mol
Thermal rotational correction    ...      0.00094418 Eh       0.59 kcal/mol
Thermal translational correction ...      0.00141627 Eh       0.89 kcal/mol
-----------------------------------------------------------------------
Total thermal energy                  -4921.05372324 Eh


Summary of corrections to the electronic energy:
(perhaps to be used in another calculation)
Total thermal correction                  0.00351307 Eh       2.20 kcal/mol
Non-thermal (ZPE) correction              0.00087499 Eh       0.55 kcal/mol
-----------------------------------------------------------------------
Total correction                          0.00438806 Eh       2.75 kcal/mol


--------
ENTHALPY
--------

The enthalpy is H = U + kB*T
                kB is Boltzmann's constant
Total free energy                 ...  -4921.05372324 Eh 
Thermal Enthalpy correction       ...      0.00094421 Eh       0.59 kcal/mol
-----------------------------------------------------------------------
Total Enthalpy                    ...  -4921.05277903 Eh

[file orca_tools/Tool-Symmetry/symmain.cpp, line 3070]: Error (ORCA_SYM): TMoleculeSymmetry::CleanUp molecule is linear but not aligned to z axis!

[file orca_tools/Tool-Symmetry/symmain.cpp, line 3070]: Error (ORCA_SYM): TMoleculeSymmetry::CleanUp molecule is linear but not aligned to z axis!

