
                                 *****************
                                 * O   R   C   A *
                                 *****************

           --- An Ab Initio, DFT and Semiempirical electronic structure package ---

                  #######################################################
                  #                        -***-                        #
                  #          Department of theory and spectroscopy      #
                  #               Directorship: Frank Neese             #
                  #        Max Planck Institute fuer Kohlenforschung    #
                  #                Kaiser Wilhelm Platz 1               #
                  #                 D-45470 Muelheim/Ruhr               #
                  #                      Germany                        #
                  #                                                     #
                  #                  All rights reserved                #
                  #                        -***-                        #
                  #######################################################


                         Program Version 4.2.0 -  RELEASE  -


 With contributions from (in alphabetic order):
   Daniel Aravena         : Magnetic Suceptibility
   Michael Atanasov       : Ab Initio Ligand Field Theory (pilot matlab implementation)
   Alexander A. Auer      : GIAO ZORA, VPT2
   Ute Becker             : Parallelization
   Giovanni Bistoni       : ED, misc. LED, open-shell LED, HFLED
   Martin Brehm           : Molecular dynamics
   Dmytro Bykov           : SCF Hessian
   Vijay G. Chilkuri      : MRCI spin determinant printing, contributions to CSF-ICE
   Dipayan Datta          : RHF DLPNO-CCSD density
   Achintya Kumar Dutta   : EOM-CC, STEOM-CC
   Dmitry Ganyushin       : Spin-Orbit,Spin-Spin,Magnetic field MRCI
   Miquel Garcia          : C-PCM Hessian, Gaussian charge scheme
   Yang Guo               : DLPNO-NEVPT2, CIM, IAO-localization
   Andreas Hansen         : Spin unrestricted coupled pair/coupled cluster methods
   Benjamin Helmich-Paris : CASSCF linear response (MC-RPA)
   Lee Huntington         : MR-EOM, pCC
   Robert Izsak           : Overlap fitted RIJCOSX, COSX-SCS-MP3, EOM
   Christian Kollmar      : KDIIS, OOCD, Brueckner-CCSD(T), CCSD density
   Simone Kossmann        : Meta GGA functionals, TD-DFT gradient, OOMP2, MP2 Hessian
   Martin Krupicka        : AUTO-CI
   Lucas Lang             : DCDCAS
   Dagmar Lenk            : GEPOL surface, SMD
   Dimitrios Liakos       : Extrapolation schemes; Compound Job, initial MDCI parallelization
   Dimitrios Manganas     : Further ROCIS development; embedding schemes
   Dimitrios Pantazis     : SARC Basis sets
   Taras Petrenko         : DFT Hessian,TD-DFT gradient, ASA, ECA, R-Raman, ABS, FL, XAS/XES, NRVS
   Peter Pinski           : DLPNO-MP2, DLPNO-MP2 Gradient
   Christoph Reimann      : Effective Core Potentials
   Marius Retegan         : Local ZFS, SOC
   Christoph Riplinger    : Optimizer, TS searches, QM/MM, DLPNO-CCSD(T), (RO)-DLPNO pert. Triples
   Tobias Risthaus        : Range-separated hybrids, TD-DFT gradient, RPA, STAB
   Michael Roemelt        : Original ROCIS implementation
   Masaaki Saitow         : Open-shell DLPNO-CCSD energy and density
   Barbara Sandhoefer     : DKH picture change effects
   Avijit Sen             : IP-ROCIS
   Kantharuban Sivalingam : CASSCF convergence, NEVPT2, FIC-MRCI
   Bernardo de Souza      : ESD, SOC TD-DFT
   Georgi Stoychev        : AutoAux, RI-MP2 NMR
   Willem Van den Heuvel  : Paramagnetic NMR
   Boris Wezisla          : Elementary symmetry handling
   Frank Wennmohs         : Technical directorship


 We gratefully acknowledge several colleagues who have allowed us to
 interface, adapt or use parts of their codes:
   Stefan Grimme, W. Hujo, H. Kruse,             : VdW corrections, initial TS optimization,
                  C. Bannwarth                     DFT functionals, gCP, sTDA/sTD-DF
   Ed Valeev, F. Pavosevic, A. Kumar             : LibInt (2-el integral package), F12 methods
   Garnet Chan, S. Sharma, J. Yang, R. Olivares  : DMRG
   Ulf Ekstrom                                   : XCFun DFT Library
   Mihaly Kallay                                 : mrcc  (arbitrary order and MRCC methods)
   Andreas Klamt, Michael Diedenhofen            : otool_cosmo (COSMO solvation model)
   Jiri Pittner, Ondrej Demel                    : Mk-CCSD
   Frank Weinhold                                : gennbo (NPA and NBO analysis)
   Christopher J. Cramer and Donald G. Truhlar   : smd solvation model
   Lars Goerigk                                  : TD-DFT with DH, B97 family of functionals
   V. Asgeirsson, H. Jonsson                     : NEB implementation
   FAccTs GmbH                                   : IRC, NEB, NEB-TS, Multilevel, MM, QM/MM, CI optimization
   S Lehtola, MJT Oliveira, MAL Marques          : LibXC Library


 Your calculation uses the libint2 library for the computation of 2-el integrals
 For citations please refer to: http://libint.valeyev.net

 Your ORCA version has been built with support for libXC version: 4.2.3
 For citations please refer to: https://tddft.org/programs/libxc/

 This ORCA versions uses:
   CBLAS   interface :  Fast vector & matrix operations
   LAPACKE interface :  Fast linear algebra routines
   SCALAPACK package :  Parallel linear algebra routines


Your calculation utilizes the atom-pairwise dispersion correction
with the Becke-Johnson damping scheme (D3BJ)
Cite in your paper:
S.Grimme, S.Ehrlich, L.Goerigk, J Comput Chem, (2011), 32, 1456–1465 
S.Grimme, J.Antony, S.Ehrlich and H.Krieg, J.Chem.Phys., 132, (2010), 154104 
   

----- Orbital basis set information -----
Your calculation utilizes the basis: def2-TZVPPD
   F. Weigend and R. Ahlrichs, Phys. Chem. Chem. Phys. 7, 3297 (2005).
   D. Rappoport and F. Furche, J. Chem. Phys. 133 134105 (2010).

----- AuxC basis set information -----
Your calculation utilizes the auxiliary basis: def2-TZVPPD/C
   A. Hellweg, C. Hattig, S. Hofener and W. Klopper, Theor. Chem. Acc. 117, 587 (2007).

----- AuxJK basis set information -----
Your calculation utilizes the auxiliary basis: def2/JK
   H-Ba, Hf-Rn: F. Weigend, J. Comput. Chem. 29, 167 (2008).

cite the ECPs for Ag [Def2-ECP] as follows:
Ce-Yb(ecp-28): M. Dolg, H. Stoll, H.Preuss, J. Chem. Phys., 1989, 90, 1730-1734.
Y-Cd(ecp-28), Hf-Hg(ecp-46): D. Andrae,U. Haeussermann, M. Dolg, H. Stoll, H. Preuss, Theor. Chim. Acta, 1990, 77, 123-141.
In-Sb(ecp-28), Tl-Bi(ecp-46): B. Metz, H. Stoll, M. Dolg, J. Chem. Phys., 2000, 113, 2563-2569.
Te-Xe(ecp-28), Po-Rn(ecp-46): K. A. Peterson, D. Figgen, E. Goll, H. Stoll, M. Dolg, J. Chem. Phys., 2003, 119, 11113-11123.
Rb(ecp-28), Cs(ecp-46): T. Leininger, A. Nicklass, W. Kuechle, H. Stoll, M. Dolg, A. Bergner, Chem. Phys. Lett., 1996, 255, 274-280.
Sr(ecp-28), Ba(ecp-46): M. Kaupp, P. V. Schleyer, H. Stoll and H. Preuss, J. Chem. Phys., 1991, 94, 1360-1366.
La(ecp-46): M. Dolg, H. Stoll, A. Savin, H. Preuss, Theor. Chim. Acta, 1989, 75, 173-194.
Lu(ecp-28): X. Cao, M. Dolg, J. Chem. Phys., 2001, 115, 7348-7355.

ECP parameters for Ag [Def2-ECP] have been obtained from:
TURBOMOLE (7.0.2)

================================================================================
                                        WARNINGS
                       Please study these warnings very carefully!
================================================================================


WARNING: your system is open-shell and RHF/RKS was chosen
  ===> : WILL SWITCH to UHF/UKS


WARNING: No MP2 level density has been requested!
         To caclulate MP2 level properties use
         %mp2 Density relaxed end
         or
         %mp2 Density unrelaxed end
         Otherwise for double-hybrid DFT only the energy is correct!

WARNING: There are different parametrizations of Gershom Martin's DSD-DFs
         for use with and without D3(BJ)!
         You are using the D3(BJ) parametrized version,
         consistent with the 2013 article (S. Kozuch and J. M. L. Martin, JCC 2013, 34, 2327)

WARNING: The frozen-core approximation is turned on by default for 
         the MP2 part of double-hybrid DFT.

INFO   : the flag for use of LIBINT has been found!

================================================================================
                                       INPUT FILE
================================================================================
NAME = Ag03N0_D3H.in
|  1> #
|  2> # Ag03N0_D3H ri-DSD-BLYP/2013-D3BJ/Def2-TZVPPD
|  3> #
|  4> ! rijk ri-dsd-blyp/2013 d3bj def2-tzvppd def2/jk def2-tzvppd/c grid4 nofinalgrid
|  5> 
|  6> *xyz 0 2
|  7> Ag       0.000000    1.533951   -0.000000 
|  8> Ag       1.328441   -0.766976    0.000000 
|  9> Ag      -1.328441   -0.766976   -0.000000 
| 10> *
| 11> 
| 12> %maxcore 5000
| 13> 
| 14> %pal
| 15> nprocs = 24
| 16> end
| 17> 
| 18> 
| 19>                          ****END OF INPUT****
================================================================================

                       ****************************
                       * Single Point Calculation *
                       ****************************

---------------------------------
CARTESIAN COORDINATES (ANGSTROEM)
---------------------------------
  Ag     0.000000    1.533951   -0.000000
  Ag     1.328441   -0.766976    0.000000
  Ag    -1.328441   -0.766976   -0.000000

----------------------------
CARTESIAN COORDINATES (A.U.)
----------------------------
  NO LB      ZA    FRAG     MASS         X           Y           Z
   0 Ag   19.0000*   0   107.870    0.000000    2.898747   -0.000000
   1 Ag   19.0000*   0   107.870    2.510390   -1.449375    0.000000
   2 Ag   19.0000*   0   107.870   -2.510390   -1.449375   -0.000000
* core charge reduced due to ECP

--------------------------------
INTERNAL COORDINATES (ANGSTROEM)
--------------------------------
 Ag     0   0   0     0.000000000000     0.00000000     0.00000000
 Ag     1   0   0     2.656881734254     0.00000000     0.00000000
 Ag     1   2   0     2.656881734254    60.00000662     0.00000000

---------------------------
INTERNAL COORDINATES (A.U.)
---------------------------
 Ag     0   0   0     0.000000000000     0.00000000     0.00000000
 Ag     1   0   0     5.020778847957     0.00000000     0.00000000
 Ag     1   2   0     5.020778847957    60.00000662     0.00000000

---------------------
BASIS SET INFORMATION
---------------------
There are 1 groups of distinct atoms

 Group   1 Type Ag  : 7s7p6d2f1g contracted to 6s4p3d2f1g pattern {211111/4111/411/11/1}

Atom   0Ag   basis set group =>   1
Atom   1Ag   basis set group =>   1
Atom   2Ag   basis set group =>   1
---------------------------------
AUXILIARY/C BASIS SET INFORMATION
---------------------------------
There are 1 groups of distinct atoms

 Group   1 Type Ag  : 8s7p6d5f4g3h1i contracted to 8s7p6d5f4g3h1i pattern {11111111/1111111/111111/11111/1111/111/1}

Atom   0Ag   basis set group =>   1
Atom   1Ag   basis set group =>   1
Atom   2Ag   basis set group =>   1
----------------------------------
AUXILIARY/JK BASIS SET INFORMATION
----------------------------------
There are 1 groups of distinct atoms

 Group   1 Type Ag  : 13s12p10d9f6g3h2i contracted to 11s10p9d8f6g3h2i pattern {31111111111/3111111111/211111111/21111111/111111/111/11}

Atom   0Ag   basis set group =>   1
Atom   1Ag   basis set group =>   1
Atom   2Ag   basis set group =>   1
-------------------------
ECP PARAMETER INFORMATION
-------------------------

 Group 1, Type Ag ECP Def2-ECP (replacing 28 core electrons, lmax=3)

Atom   0Ag   ECP group =>   1
Atom   1Ag   ECP group =>   1
Atom   2Ag   ECP group =>   1



           ************************************************************
           *        Program running with 24 parallel MPI-processes    *
           *              working on a common directory               *
           ************************************************************
------------------------------------------------------------------------------
                           ORCA GTO INTEGRAL CALCULATION
                           -- RI-GTO INTEGRALS CHOSEN --
------------------------------------------------------------------------------

                         BASIS SET STATISTICS AND STARTUP INFO

Gaussian basis set:
 # of primitive gaussian shells          ...   69
 # of primitive gaussian functions       ...  243
 # of contracted shells                  ...   48
 # of contracted basis functions         ...  168
 Highest angular momentum                ...    4
 Maximum contraction depth               ...    4
Auxiliary gaussian basis set:
 # of primitive gaussian shells          ...  165
 # of primitive gaussian functions       ...  825
 # of contracted shells                  ...  147
 # of contracted aux-basis functions     ...  765
 Highest angular momentum                ...    6
 Maximum contraction depth               ...    3
Ratio of auxiliary to basis functions    ...  4.55
Integral package used                  ... LIBINT
 One Electron integrals                  
   ECP integrals                         ... done
 Ordering auxiliary basis shells         ... done
 Integral threshhold             Thresh  ...  1.000e-10
 Primitive cut-off               TCut    ...  1.000e-11
 Pre-screening matrix                    ... done
 Shell pair data                         ... 
 Ordering of the shell pairs             ... done (   0.000 sec) 1134 of 1176 pairs
 Determination of significant pairs      ... done (   0.000 sec)
 Creation of shell pair data             ... done (   0.000 sec)
 Storage of shell pair data              ... done (   0.006 sec)
 Shell pair data done in (   0.007 sec)
 Computing two index integrals           ... done
 Cholesky decomposition of the V-matrix  ... done


Timings:
 Total evaluation time                   ...   0.701 sec (  0.012 min)
 One electron matrix time                ...   0.383 sec (  0.006 min) = 54.6%
 Schwartz matrix evaluation time         ...   0.133 sec (  0.002 min) = 19.0%
 Two index repulsion integral time       ...   0.137 sec (  0.002 min) = 19.6%
 Cholesky decomposition of V             ...   0.009 sec (  0.000 min) =  1.2%
 Three index repulsion integral time     ...   0.000 sec (  0.000 min) =  0.0%



           ************************************************************
           *        Program running with 24 parallel MPI-processes    *
           *              working on a common directory               *
           ************************************************************
-------------------------------------------------------------------------------
                                 ORCA SCF
-------------------------------------------------------------------------------

------------
SCF SETTINGS
------------
Hamiltonian:
 Density Functional     Method          .... DFT(GTOs)
 Exchange Functional    Exchange        .... B88
   X-Alpha parameter    XAlpha          ....  0.666667
   Becke's b parameter  XBeta           ....  0.004200
 Correlation Functional Correlation     .... LYP
 LDA part of GGA corr.  LDAOpt          .... VWN-5
 Gradients option       PostSCFGGA      .... off
 Hybrid DFT is turned on
   Fraction HF Exchange ScalHFX         ....  0.710000
   Scaling of DF-GGA-X  ScalDFX         ....  0.290000
   Scaling of DF-GGA-C  ScalDFC         ....  0.540000
   Scaling of DF-LDA-C  ScalLDAC        ....  0.540000
   Perturbative correction              ....  1.000000
   Density functional embedding theory  .... OFF
 RI-approximation to the Coulomb term is turned on
   Number of auxiliary basis functions  .... 765
   RI-JK (J+K treated both via RI)      .... on


General Settings:
 Integral files         IntName         .... Ag03N0_D3H
 Hartree-Fock type      HFTyp           .... UHF
 Total Charge           Charge          ....    0
 Multiplicity           Mult            ....    2
 Number of Electrons    NEL             ....   57
 Basis Dimension        Dim             ....  168
 Nuclear Repulsion      ENuc            ....    215.7035784065 Eh

Convergence Acceleration:
 DIIS                   CNVDIIS         .... on
   Start iteration      DIISMaxIt       ....    12
   Startup error        DIISStart       ....  0.200000
   # of expansion vecs  DIISMaxEq       ....     5
   Bias factor          DIISBfac        ....   1.050
   Max. coefficient     DIISMaxC        ....  10.000
 Newton-Raphson         CNVNR           .... off
 SOSCF                  CNVSOSCF        .... off
 Level Shifting         CNVShift        .... on
   Level shift para.    LevelShift      ....    0.2500
   Turn off err/grad.   ShiftErr        ....    0.0010
 Zerner damping         CNVZerner       .... off
 Static damping         CNVDamp         .... on
   Fraction old density DampFac         ....    0.7000
   Max. Damping (<1)    DampMax         ....    0.9800
   Min. Damping (>=0)   DampMin         ....    0.0000
   Turn off err/grad.   DampErr         ....    0.1000
 Fernandez-Rico         CNVRico         .... off

SCF Procedure:
 Maximum # iterations   MaxIter         ....   125
 SCF integral mode      SCFMode         .... Direct
   Integral package                     .... LIBINT
 Reset frequency        DirectResetFreq ....    20
 Integral Threshold     Thresh          ....  1.000e-10 Eh
 Primitive CutOff       TCut            ....  1.000e-11 Eh

Convergence Tolerance:
 Convergence Check Mode ConvCheckMode   .... Total+1el-Energy
 Convergence forced     ConvForced      .... 0
 Energy Change          TolE            ....  1.000e-06 Eh
 1-El. energy change                    ....  1.000e-03 Eh
 DIIS Error             TolErr          ....  1.000e-06


Diagonalization of the overlap matrix:
Smallest eigenvalue                        ... 2.935e-03
Time for diagonalization                   ...    0.006 sec
Threshold for overlap eigenvalues          ... 1.000e-08
Number of eigenvalues below threshold      ... 0
Time for construction of square roots      ...    0.003 sec
Total time needed                          ...    0.010 sec

-------------------
DFT GRID GENERATION
-------------------

General Integration Accuracy     IntAcc      ...  4.670
Radial Grid Type                 RadialGrid  ... Gauss-Chebyshev
Angular Grid (max. acc.)         AngularGrid ... Lebedev-302
Angular grid pruning method      GridPruning ... 3 (G Style)
Weight generation scheme         WeightScheme... Becke
Basis function cutoff            BFCut       ...    1.0000e-10
Integration weight cutoff        WCut        ...    1.0000e-14
Grids for H and He will be reduced by one unit

# of grid points (after initial pruning)     ...  31974 (   0.0 sec)
# of grid points (after weights+screening)   ...  31838 (   0.0 sec)
nearest neighbour list constructed           ...    0.0 sec
Grid point re-assignment to atoms done       ...    0.0 sec
Grid point division into batches done        ...    0.2 sec
Reduced shell lists constructed in    0.3 sec

Total number of grid points                  ...    31838
Total number of batches                      ...      500
Average number of points per batch           ...       63
Average number of grid points per atom       ...    10613
Average number of shells per batch           ...     4.23 ( 8.81%)
Average number of basis functions per batch  ...     8.95 ( 5.33%)
Average number of large shells per batch     ...     2.82 (66.67%)
Average number of large basis fcns per batch ...     5.91 (65.99%)
Average number of aux-shells per batch       ...     4.23 ( 2.88%)
Average number of aux functions per batch    ...     8.95 ( 1.17%)
Maximum spatial batch extension              ...  27.02, 24.03, 31.14 au
Average spatial batch extension              ...   0.75,  0.64,  0.72 au

Time for grid setup =    0.329 sec

------------------------------
INITIAL GUESS: MODEL POTENTIAL
------------------------------
Loading Hartree-Fock densities                     ... done
  calling /sw/apps/orca/orca_4_2_0_linux_x86-64_openmpi314/orca Ag03N0_D3H_atom47.inp > Ag03N0_D3H_atom47.out in order to generate an atomic fitting density for atom 0 (Ag with ECP) on-the-fly... 
    atom 0 (Ag), assumed electronic state with S=2: 1s2 2s2 2p6 3s2 3p6 4s2 3d10 4p6 5s2 4d9           ... done
Calculating cut-offs                               ... done
Setting up the integral package                    ... done
Initializing the effective Hamiltonian             ... done
Starting the Coulomb interaction                   ... done (   0.0 sec)
Reading the grid                                   ... done
Mapping shells                                     ... done
Starting the XC term evaluation                    ... done (   0.0 sec)
  promolecular density results
     # of electrons  =    141.001589608
     EX              =   -432.256109356
     EC              =     -0.967067978
     EX+EC           =   -433.223177334
Transforming the Hamiltonian                       ... done (   0.0 sec)
Diagonalizing the Hamiltonian                      ... done (   0.0 sec)
Back transforming the eigenvectors                 ... done (   0.0 sec)
Now organizing SCF variables                       ... done
                      ------------------
                      INITIAL GUESS DONE (   1.6 sec)
                      ------------------
--------------
SCF ITERATIONS
--------------
ITER       Energy         Delta-E        Max-DP      RMS-DP      [F,P]     Damp
  0   -439.4180422238   0.000000000000 0.08731066  0.00121789  0.4868885 0.7000
  1   -439.0780975468   0.339944676985 0.09679623  0.00107910  0.3449704 0.7000
  2   -439.1951670847  -0.117069537977 0.07546120  0.00068889  0.2271730 0.7000
                               ***Turning on DIIS***
  3   -439.4269789144  -0.231811829641 0.05161232  0.00041938  0.1510479 0.7000
  4   -439.5864198468  -0.159440932413 0.03361471  0.00029856  0.1040926 0.7000
  5   -439.6736264352  -0.087206588446 0.08820403  0.00086188  0.0752163 0.0000
  6   -439.6216958576   0.051930577666 0.00855303  0.00013380  0.0325743 0.0000
  7   -439.6251483790  -0.003452521469 0.00364554  0.00007079  0.0161872 0.0000
  8   -439.6260444459  -0.000896066863 0.00273388  0.00005672  0.0075437 0.0000
  9   -439.6262944589  -0.000250013032 0.00249703  0.00003219  0.0018787 0.0000
 10   -439.6263156924  -0.000021233426 0.00240990  0.00003293  0.0005347 0.0000
 11   -439.6263227659  -0.000007073548 0.00043127  0.00000868  0.0001625 0.0000
 12   -439.6263239143  -0.000001148420 0.00028783  0.00000550  0.0000843 0.0000
                 **** Energy Check signals convergence ****

               *****************************************************
               *                     SUCCESS                       *
               *           SCF CONVERGED AFTER  13 CYCLES          *
               *****************************************************


----------------
TOTAL SCF ENERGY
----------------

Total Energy       :         -439.62632439 Eh          -11962.84047 eV

Components:
Nuclear Repulsion  :          215.70357841 Eh            5869.59277 eV
Electronic Energy  :         -655.32990280 Eh          -17832.43324 eV
One Electron Energy:        -1215.46718298 Eh          -33074.54353 eV
Two Electron Energy:          560.13728018 Eh           15242.11029 eV

Virial components:
Potential Energy   :         -609.16874635 Eh          -16576.32431 eV
Kinetic Energy     :          169.54242195 Eh            4613.48385 eV
Virial Ratio       :            3.59301666


DFT components:
N(Alpha)           :       28.999984663069 electrons
N(Beta)            :       27.999984212428 electrons
N(Total)           :       56.999968875497 electrons
E(X)               :      -11.696280313720 Eh       
E(C)               :       -1.166948379281 Eh       
E(XC)              :      -12.863228693001 Eh       
DFET-embed. en.    :        0.000000000000 Eh       

---------------
SCF CONVERGENCE
---------------

  Last Energy change         ...   -4.7909e-07  Tolerance :   1.0000e-06
  Last MAX-Density change    ...    2.5307e-04  Tolerance :   1.0000e-05
  Last RMS-Density change    ...    2.9515e-06  Tolerance :   1.0000e-06
  Last DIIS Error            ...    3.7653e-05  Tolerance :   1.0000e-06

             **** THE GBW FILE WAS UPDATED (Ag03N0_D3H.gbw) ****
             **** DENSITY FILE WAS UPDATED (Ag03N0_D3H.scfp) ****
             **** ENERGY FILE WAS UPDATED (Ag03N0_D3H.en.tmp) ****
----------------------
UHF SPIN CONTAMINATION
----------------------

Warning: in a DFT calculation there is little theoretical justification to 
         calculate <S**2> as in Hartree-Fock theory. We will do it anyways
         but you should keep in mind that the values have only limited relevance

Expectation value of <S**2>     :     0.773461
Ideal value S*(S+1) for S=0.5   :     0.750000
Deviation                       :     0.023461

             **** THE GBW FILE WAS UPDATED (Ag03N0_D3H.gbw) ****
             **** DENSITY FILE WAS UPDATED (Ag03N0_D3H.scfp) ****
----------------
ORBITAL ENERGIES
----------------
                 SPIN UP ORBITALS
  NO   OCC          E(Eh)            E(eV) 
   0   1.0000      -4.128381      -112.3390 
   1   1.0000      -4.127959      -112.3275 
   2   1.0000      -4.105413      -111.7140 
   3   1.0000      -2.635468       -71.7147 
   4   1.0000      -2.631251       -71.6000 
   5   1.0000      -2.631021       -71.5937 
   6   1.0000      -2.630213       -71.5717 
   7   1.0000      -2.629768       -71.5596 
   8   1.0000      -2.629676       -71.5571 
   9   1.0000      -2.607280       -70.9477 
  10   1.0000      -2.607019       -70.9406 
  11   1.0000      -2.605117       -70.8888 
  12   1.0000      -0.498832       -13.5739 
  13   1.0000      -0.486425       -13.2363 
  14   1.0000      -0.478881       -13.0310 
  15   1.0000      -0.477006       -12.9800 
  16   1.0000      -0.464205       -12.6317 
  17   1.0000      -0.463410       -12.6100 
  18   1.0000      -0.457647       -12.4532 
  19   1.0000      -0.443882       -12.0787 
  20   1.0000      -0.439943       -11.9715 
  21   1.0000      -0.434676       -11.8281 
  22   1.0000      -0.426696       -11.6110 
  23   1.0000      -0.425353       -11.5744 
  24   1.0000      -0.421532       -11.4705 
  25   1.0000      -0.418905       -11.3990 
  26   1.0000      -0.404855       -11.0167 
  27   1.0000      -0.285258        -7.7623 
  28   1.0000      -0.161302        -4.3892 
  29   0.0000      -0.047674        -1.2973 
  30   0.0000       0.005447         0.1482 
  31   0.0000       0.023492         0.6392 
  32   0.0000       0.041220         1.1216 
  33   0.0000       0.042257         1.1499 
  34   0.0000       0.074489         2.0269 
  35   0.0000       0.075063         2.0426 
  36   0.0000       0.118887         3.2351 
  37   0.0000       0.122048         3.3211 
  38   0.0000       0.124968         3.4005 
  39   0.0000       0.164095         4.4653 
  40   0.0000       0.210785         5.7357 
  41   0.0000       0.212827         5.7913 
  42   0.0000       0.226538         6.1644 
  43   0.0000       0.231792         6.3074 
  44   0.0000       0.251400         6.8410 
  45   0.0000       0.253611         6.9011 
  46   0.0000       0.304045         8.2735 
  47   0.0000       0.308807         8.4031 
  48   0.0000       0.385566        10.4918 
  49   0.0000       0.452569        12.3150 
  50   0.0000       0.456899        12.4329 
  51   0.0000       0.459764        12.5108 
  52   0.0000       0.481635        13.1060 
  53   0.0000       0.488792        13.3007 
  54   0.0000       0.501389        13.6435 
  55   0.0000       0.586320        15.9546 
  56   0.0000       0.590211        16.0605 
  57   0.0000       0.626180        17.0392 
  58   0.0000       0.654235        17.8027 
  59   0.0000       0.680642        18.5212 
  60   0.0000       0.689265        18.7559 
  61   0.0000       0.699435        19.0326 
  62   0.0000       0.700376        19.0582 
  63   0.0000       0.783983        21.3333 
  64   0.0000       0.789607        21.4863 
  65   0.0000       0.830022        22.5860 
  66   0.0000       1.658925        45.1416 
  67   0.0000       1.662776        45.2464 
  68   0.0000       1.698226        46.2111 
  69   0.0000       1.709331        46.5133 
  70   0.0000       1.732288        47.1380 
  71   0.0000       1.743583        47.4453 
  72   0.0000       1.744658        47.4746 
  73   0.0000       1.763979        48.0003 
  74   0.0000       1.768705        48.1289 
  75   0.0000       1.770006        48.1643 
  76   0.0000       1.781171        48.4681 
  77   0.0000       1.787522        48.6410 
  78   0.0000       1.791222        48.7416 
  79   0.0000       1.797359        48.9086 
  80   0.0000       1.801297        49.0158 
  81   0.0000       1.815880        49.4126 
  82   0.0000       1.817393        49.4538 
  83   0.0000       1.819635        49.5148 
  84   0.0000       1.823125        49.6098 
  85   0.0000       1.837315        49.9959 
  86   0.0000       1.843762        50.1713 
  87   0.0000       1.880482        51.1705 
  88   0.0000       1.897456        51.6324 
  89   0.0000       1.904387        51.8210 
  90   0.0000       1.921247        52.2798 
  91   0.0000       1.926627        52.4262 
  92   0.0000       1.929572        52.5063 
  93   0.0000       1.960538        53.3489 
  94   0.0000       1.961039        53.3626 
  95   0.0000       2.111019        57.4437 
  96   0.0000       2.185467        59.4696 
  97   0.0000       2.268063        61.7171 
  98   0.0000       2.273295        61.8595 
  99   0.0000       2.282615        62.1131 
 100   0.0000       2.306814        62.7716 
 101   0.0000       2.312485        62.9259 
 102   0.0000       2.314551        62.9821 
 103   0.0000       2.328500        63.3617 
 104   0.0000       2.338759        63.6409 
 105   0.0000       2.340232        63.6809 
 106   0.0000       2.350348        63.9562 
 107   0.0000       2.364751        64.3481 
 108   0.0000       2.454347        66.7862 
 109   0.0000       2.462818        67.0167 
 110   0.0000       2.491600        67.7999 
 111   0.0000       2.603291        70.8391 
 112   0.0000       2.783386        75.7398 
 113   0.0000       2.791360        75.9568 
 114   0.0000       5.151161       140.1702 
 115   0.0000       5.162885       140.4892 
 116   0.0000       5.167915       140.6261 
 117   0.0000       5.170783       140.7041 
 118   0.0000       5.182011       141.0097 
 119   0.0000       5.182534       141.0239 
 120   0.0000       5.188554       141.1877 
 121   0.0000       5.198299       141.4529 
 122   0.0000       5.200629       141.5163 
 123   0.0000       5.205403       141.6462 
 124   0.0000       5.207196       141.6950 
 125   0.0000       5.226628       142.2238 
 126   0.0000       5.227035       142.2348 
 127   0.0000       5.259768       143.1256 
 128   0.0000       5.277040       143.5956 
 129   0.0000       5.283347       143.7672 
 130   0.0000       5.288911       143.9186 
 131   0.0000       5.290498       143.9618 
 132   0.0000       5.432619       147.8291 
 133   0.0000       5.438551       147.9905 
 134   0.0000       5.456673       148.4836 
 135   0.0000       5.891598       160.3185 
 136   0.0000       5.891788       160.3237 
 137   0.0000       5.892138       160.3332 
 138   0.0000       5.892536       160.3441 
 139   0.0000       5.892758       160.3501 
 140   0.0000       5.892980       160.3561 
 141   0.0000       5.893711       160.3760 
 142   0.0000       5.893883       160.3807 
 143   0.0000       5.894526       160.3982 
 144   0.0000       5.894703       160.4030 
 145   0.0000       5.895067       160.4129 
 146   0.0000       5.895604       160.4275 
 147   0.0000       5.895850       160.4342 
 148   0.0000       5.895867       160.4347 
 149   0.0000       5.895926       160.4363 
 150   0.0000       5.896126       160.4418 
 151   0.0000       5.900334       160.5563 
 152   0.0000       5.901582       160.5902 
 153   0.0000       5.917604       161.0262 
 154   0.0000       5.918023       161.0376 
 155   0.0000       5.919087       161.0666 
 156   0.0000       5.920160       161.0957 
 157   0.0000       5.920239       161.0979 
 158   0.0000       5.920431       161.1031 
 159   0.0000       5.920506       161.1051 
 160   0.0000       5.924352       161.2098 
 161   0.0000       5.925428       161.2391 
 162   0.0000      33.668881       916.1768 
 163   0.0000      33.996609       925.0947 
 164   0.0000      34.011687       925.5051 
 165   0.0000     109.928119      2991.2962 
 166   0.0000     110.026314      2993.9682 
 167   0.0000     110.044933      2994.4749 

                 SPIN DOWN ORBITALS
  NO   OCC          E(Eh)            E(eV) 
   0   1.0000      -4.128057      -112.3301 
   1   1.0000      -4.127636      -112.3187 
   2   1.0000      -4.103586      -111.6643 
   3   1.0000      -2.635557       -71.7172 
   4   1.0000      -2.631448       -71.6053 
   5   1.0000      -2.630882       -71.5899 
   6   1.0000      -2.630363       -71.5758 
   7   1.0000      -2.629938       -71.5643 
   8   1.0000      -2.629067       -71.5406 
   9   1.0000      -2.607522       -70.9543 
  10   1.0000      -2.606482       -70.9260 
  11   1.0000      -2.604955       -70.8844 
  12   1.0000      -0.498564       -13.5666 
  13   1.0000      -0.484703       -13.1894 
  14   1.0000      -0.478776       -13.0282 
  15   1.0000      -0.474846       -12.9212 
  16   1.0000      -0.462555       -12.5867 
  17   1.0000      -0.462429       -12.5833 
  18   1.0000      -0.456864       -12.4319 
  19   1.0000      -0.443700       -12.0737 
  20   1.0000      -0.440130       -11.9765 
  21   1.0000      -0.434771       -11.8307 
  22   1.0000      -0.424432       -11.5494 
  23   1.0000      -0.423315       -11.5190 
  24   1.0000      -0.418690       -11.3931 
  25   1.0000      -0.415457       -11.3052 
  26   1.0000      -0.400882       -10.9085 
  27   1.0000      -0.266708        -7.2575 
  28   0.0000      -0.040188        -1.0936 
  29   0.0000      -0.016746        -0.4557 
  30   0.0000       0.011335         0.3084 
  31   0.0000       0.034010         0.9255 
  32   0.0000       0.059131         1.6090 
  33   0.0000       0.061200         1.6653 
  34   0.0000       0.075546         2.0557 
  35   0.0000       0.087632         2.3846 
  36   0.0000       0.120538         3.2800 
  37   0.0000       0.128724         3.5028 
  38   0.0000       0.132606         3.6084 
  39   0.0000       0.165658         4.5078 
  40   0.0000       0.211345         5.7510 
  41   0.0000       0.220653         6.0043 
  42   0.0000       0.233672         6.3585 
  43   0.0000       0.236369         6.4319 
  44   0.0000       0.264679         7.2023 
  45   0.0000       0.265669         7.2292 
  46   0.0000       0.305853         8.3227 
  47   0.0000       0.322197         8.7674 
  48   0.0000       0.396464        10.7883 
  49   0.0000       0.460088        12.5196 
  50   0.0000       0.460816        12.5394 
  51   0.0000       0.471871        12.8403 
  52   0.0000       0.487405        13.2630 
  53   0.0000       0.494885        13.4665 
  54   0.0000       0.506655        13.7868 
  55   0.0000       0.592043        16.1103 
  56   0.0000       0.599011        16.2999 
  57   0.0000       0.632442        17.2096 
  58   0.0000       0.656020        17.8512 
  59   0.0000       0.683234        18.5917 
  60   0.0000       0.696888        18.9633 
  61   0.0000       0.705749        19.2044 
  62   0.0000       0.707408        19.2495 
  63   0.0000       0.785734        21.3809 
  64   0.0000       0.795513        21.6470 
  65   0.0000       0.836746        22.7690 
  66   0.0000       1.660268        45.1782 
  67   0.0000       1.665371        45.3170 
  68   0.0000       1.701261        46.2937 
  69   0.0000       1.711620        46.5755 
  70   0.0000       1.732827        47.1526 
  71   0.0000       1.746171        47.5157 
  72   0.0000       1.746903        47.5356 
  73   0.0000       1.765456        48.0405 
  74   0.0000       1.769570        48.1525 
  75   0.0000       1.771603        48.2078 
  76   0.0000       1.781849        48.4866 
  77   0.0000       1.788564        48.6693 
  78   0.0000       1.792664        48.7809 
  79   0.0000       1.800017        48.9810 
  80   0.0000       1.804677        49.1078 
  81   0.0000       1.819705        49.5167 
  82   0.0000       1.819936        49.5230 
  83   0.0000       1.824626        49.6506 
  84   0.0000       1.824864        49.6571 
  85   0.0000       1.843214        50.1564 
  86   0.0000       1.845481        50.2181 
  87   0.0000       1.885474        51.3064 
  88   0.0000       1.898628        51.6643 
  89   0.0000       1.907308        51.9005 
  90   0.0000       1.922368        52.3103 
  91   0.0000       1.931689        52.5639 
  92   0.0000       1.931989        52.5721 
  93   0.0000       1.963696        53.4349 
  94   0.0000       1.965346        53.4798 
  95   0.0000       2.112141        57.4743 
  96   0.0000       2.188534        59.5530 
  97   0.0000       2.270505        61.7836 
  98   0.0000       2.275087        61.9083 
  99   0.0000       2.285100        62.1807 
 100   0.0000       2.308553        62.8189 
 101   0.0000       2.313520        62.9541 
 102   0.0000       2.318100        63.0787 
 103   0.0000       2.331306        63.4381 
 104   0.0000       2.341964        63.7281 
 105   0.0000       2.343915        63.7812 
 106   0.0000       2.351739        63.9941 
 107   0.0000       2.368648        64.4542 
 108   0.0000       2.455285        66.8117 
 109   0.0000       2.465163        67.0805 
 110   0.0000       2.494141        67.8690 
 111   0.0000       2.603329        70.8402 
 112   0.0000       2.783579        75.7450 
 113   0.0000       2.794375        76.0388 
 114   0.0000       5.151441       140.1778 
 115   0.0000       5.163441       140.5044 
 116   0.0000       5.168293       140.6364 
 117   0.0000       5.171013       140.7104 
 118   0.0000       5.182288       141.0172 
 119   0.0000       5.182950       141.0352 
 120   0.0000       5.189039       141.2009 
 121   0.0000       5.198856       141.4681 
 122   0.0000       5.201248       141.5331 
 123   0.0000       5.206009       141.6627 
 124   0.0000       5.207678       141.7081 
 125   0.0000       5.227896       142.2583 
 126   0.0000       5.228393       142.2718 
 127   0.0000       5.260339       143.1411 
 128   0.0000       5.277606       143.6110 
 129   0.0000       5.283864       143.7812 
 130   0.0000       5.289474       143.9339 
 131   0.0000       5.291399       143.9863 
 132   0.0000       5.432895       147.8366 
 133   0.0000       5.439231       148.0090 
 134   0.0000       5.457479       148.5056 
 135   0.0000       5.891524       160.3165 
 136   0.0000       5.891911       160.3271 
 137   0.0000       5.892292       160.3374 
 138   0.0000       5.892330       160.3384 
 139   0.0000       5.892849       160.3526 
 140   0.0000       5.892904       160.3541 
 141   0.0000       5.893784       160.3780 
 142   0.0000       5.893946       160.3824 
 143   0.0000       5.894477       160.3969 
 144   0.0000       5.894550       160.3989 
 145   0.0000       5.895072       160.4131 
 146   0.0000       5.895375       160.4213 
 147   0.0000       5.895798       160.4328 
 148   0.0000       5.895891       160.4354 
 149   0.0000       5.896005       160.4384 
 150   0.0000       5.896402       160.4492 
 151   0.0000       5.900272       160.5546 
 152   0.0000       5.901856       160.5977 
 153   0.0000       5.918432       161.0487 
 154   0.0000       5.918531       161.0514 
 155   0.0000       5.919633       161.0814 
 156   0.0000       5.920165       161.0959 
 157   0.0000       5.920527       161.1057 
 158   0.0000       5.920759       161.1121 
 159   0.0000       5.920760       161.1121 
 160   0.0000       5.924812       161.2223 
 161   0.0000       5.926116       161.2578 
 162   0.0000      33.669333       916.1891 
 163   0.0000      33.996813       925.1003 
 164   0.0000      34.012426       925.5252 
 165   0.0000     109.927249      2991.2725 
 166   0.0000     110.026370      2993.9697 
 167   0.0000     110.042111      2994.3981 

                    ********************************
                    * MULLIKEN POPULATION ANALYSIS *
                    ********************************

--------------------------------------------
MULLIKEN ATOMIC CHARGES AND SPIN POPULATIONS
--------------------------------------------
   0 Ag:   -0.137708    0.593849
   1 Ag:    0.068845    0.203088
   2 Ag:    0.068864    0.203062
Sum of atomic charges         :   -0.0000000
Sum of atomic spin populations:    1.0000000

-----------------------------------------------------
MULLIKEN REDUCED ORBITAL CHARGES AND SPIN POPULATIONS
-----------------------------------------------------
CHARGE
  0 Ags       :     3.030377  s :     3.030377
      pz      :     2.005926  p :     6.168795
      px      :     2.004849
      py      :     2.158020
      dz2     :     1.991938  d :     9.937159
      dxz     :     1.997039
      dyz     :     1.993147
      dx2y2   :     1.989726
      dxy     :     1.965310
      f0      :     0.000110  f :     0.001358
      f+1     :     0.000085
      f-1     :     0.000242
      f+2     :     0.000060
      f-2     :     0.000142
      f+3     :     0.000449
      f-3     :     0.000271
      g0      :     0.000002  g :     0.000018
      g+1     :     0.000001
      g-1     :     0.000002
      g+2     :     0.000001
      g-2     :     0.000002
      g+3     :     0.000002
      g-3     :     0.000000
      g+4     :     0.000004
      g-4     :     0.000005
  1 Ags       :     2.752309  s :     2.752309
      pz      :     2.007204  p :     6.217168
      px      :     2.056265
      py      :     2.153699
      dz2     :     1.994377  d :     9.960073
      dxz     :     1.996303
      dyz     :     1.997882
      dx2y2   :     1.982511
      dxy     :     1.988999
      f0      :     0.000128  f :     0.001587
      f+1     :     0.000230
      f-1     :     0.000141
      f+2     :     0.000148
      f-2     :     0.000115
      f+3     :     0.000513
      f-3     :     0.000311
      g0      :     0.000001  g :     0.000019
      g+1     :     0.000002
      g-1     :     0.000001
      g+2     :     0.000002
      g-2     :     0.000001
      g+3     :     0.000002
      g-3     :     0.000000
      g+4     :     0.000005
      g-4     :     0.000004
  2 Ags       :     2.752288  s :     2.752288
      pz      :     2.007204  p :     6.217169
      px      :     2.056265
      py      :     2.153699
      dz2     :     1.994377  d :     9.960074
      dxz     :     1.996303
      dyz     :     1.997882
      dx2y2   :     1.982512
      dxy     :     1.989000
      f0      :     0.000128  f :     0.001587
      f+1     :     0.000230
      f-1     :     0.000141
      f+2     :     0.000148
      f-2     :     0.000115
      f+3     :     0.000513
      f-3     :     0.000311
      g0      :     0.000001  g :     0.000019
      g+1     :     0.000002
      g-1     :     0.000001
      g+2     :     0.000002
      g-2     :     0.000001
      g+3     :     0.000002
      g-3     :     0.000000
      g+4     :     0.000005
      g-4     :     0.000004

SPIN
  0 Ags       :     0.526164  s :     0.526164
      pz      :     0.000134  p :     0.059968
      px      :     0.000464
      py      :     0.059370
      dz2     :     0.000864  d :     0.007754
      dxz     :     0.000239
      dyz     :     0.000553
      dx2y2   :     0.001517
      dxy     :     0.004580
      f0      :    -0.000003  f :    -0.000036
      f+1     :    -0.000002
      f-1     :    -0.000006
      f+2     :    -0.000002
      f-2     :    -0.000004
      f+3     :    -0.000015
      f-3     :    -0.000003
      g0      :     0.000000  g :    -0.000000
      g+1     :     0.000000
      g-1     :     0.000000
      g+2     :     0.000000
      g-2     :    -0.000000
      g+3     :    -0.000000
      g-3     :     0.000000
      g+4     :    -0.000000
      g-4     :    -0.000000
  1 Ags       :     0.082821  s :     0.082821
      pz      :    -0.000052  p :     0.119369
      px      :     0.003018
      py      :     0.116403
      dz2     :     0.000378  d :     0.000900
      dxz     :    -0.000119
      dyz     :    -0.000282
      dx2y2   :    -0.000320
      dxy     :     0.001243
      f0      :    -0.000001  f :    -0.000002
      f+1     :    -0.000001
      f-1     :     0.000002
      f+2     :    -0.000001
      f-2     :    -0.000003
      f+3     :     0.000009
      f-3     :    -0.000006
      g0      :     0.000000  g :    -0.000000
      g+1     :     0.000000
      g-1     :     0.000000
      g+2     :    -0.000000
      g-2     :     0.000000
      g+3     :    -0.000000
      g-3     :    -0.000000
      g+4     :    -0.000000
      g-4     :    -0.000000
  2 Ags       :     0.082792  s :     0.082792
      pz      :    -0.000052  p :     0.119373
      px      :     0.003020
      py      :     0.116404
      dz2     :     0.000378  d :     0.000900
      dxz     :    -0.000119
      dyz     :    -0.000282
      dx2y2   :    -0.000320
      dxy     :     0.001243
      f0      :    -0.000001  f :    -0.000002
      f+1     :    -0.000001
      f-1     :     0.000002
      f+2     :    -0.000001
      f-2     :    -0.000003
      f+3     :     0.000009
      f-3     :    -0.000006
      g0      :     0.000000  g :    -0.000000
      g+1     :     0.000000
      g-1     :     0.000000
      g+2     :    -0.000000
      g-2     :     0.000000
      g+3     :    -0.000000
      g-3     :    -0.000000
      g+4     :    -0.000000
      g-4     :    -0.000000


                     *******************************
                     * LOEWDIN POPULATION ANALYSIS *
                     *******************************

-------------------------------------------
LOEWDIN ATOMIC CHARGES AND SPIN POPULATIONS
-------------------------------------------
   0 Ag:   -0.088914    0.466583
   1 Ag:    0.044453    0.266715
   2 Ag:    0.044461    0.266702

----------------------------------------------------
LOEWDIN REDUCED ORBITAL CHARGES AND SPIN POPULATIONS
----------------------------------------------------
CHARGE
  0 Ags       :     2.783367  s :     2.783367
      pz      :     2.008634  p :     6.344857
      px      :     2.015750
      py      :     2.320473
      dz2     :     2.001103  d :     9.958651
      dxz     :     1.996520
      dyz     :     1.990879
      dx2y2   :     1.993522
      dxy     :     1.976627
      f0      :     0.000150  f :     0.002016
      f+1     :     0.000132
      f-1     :     0.000348
      f+2     :     0.000076
      f-2     :     0.000211
      f+3     :     0.000744
      f-3     :     0.000354
      g0      :     0.000002  g :     0.000024
      g+1     :     0.000001
      g-1     :     0.000002
      g+2     :     0.000001
      g-2     :     0.000003
      g+3     :     0.000002
      g-3     :     0.000000
      g+4     :     0.000005
      g-4     :     0.000007
  1 Ags       :     2.614927  s :     2.614927
      pz      :     2.009964  p :     6.359418
      px      :     2.102576
      py      :     2.246879
      dz2     :     2.000484  d :     9.978842
      dxz     :     1.994514
      dyz     :     1.996740
      dx2y2   :     1.991723
      dxy     :     1.995381
      f0      :     0.000176  f :     0.002335
      f+1     :     0.000294
      f-1     :     0.000205
      f+2     :     0.000210
      f-2     :     0.000152
      f+3     :     0.000887
      f-3     :     0.000410
      g0      :     0.000002  g :     0.000025
      g+1     :     0.000002
      g-1     :     0.000001
      g+2     :     0.000003
      g-2     :     0.000002
      g+3     :     0.000003
      g-3     :     0.000000
      g+4     :     0.000007
      g-4     :     0.000005
  2 Ags       :     2.614917  s :     2.614917
      pz      :     2.009964  p :     6.359419
      px      :     2.102577
      py      :     2.246879
      dz2     :     2.000484  d :     9.978843
      dxz     :     1.994514
      dyz     :     1.996740
      dx2y2   :     1.991724
      dxy     :     1.995381
      f0      :     0.000176  f :     0.002335
      f+1     :     0.000294
      f-1     :     0.000205
      f+2     :     0.000210
      f-2     :     0.000152
      f+3     :     0.000887
      f-3     :     0.000410
      g0      :     0.000002  g :     0.000025
      g+1     :     0.000002
      g-1     :     0.000001
      g+2     :     0.000003
      g-2     :     0.000002
      g+3     :     0.000003
      g-3     :     0.000000
      g+4     :     0.000007
      g-4     :     0.000005

SPIN
  0 Ags       :     0.311399  s :     0.311399
      pz      :     0.000210  p :     0.146413
      px      :    -0.000027
      py      :     0.146230
      dz2     :     0.001628  d :     0.008761
      dxz     :    -0.000061
      dyz     :     0.000412
      dx2y2   :     0.003727
      dxy     :     0.003055
      f0      :    -0.000002  f :     0.000009
      f+1     :    -0.000001
      f-1     :     0.000027
      f+2     :    -0.000000
      f-2     :    -0.000003
      f+3     :    -0.000007
      f-3     :    -0.000003
      g0      :     0.000000  g :     0.000000
      g+1     :     0.000000
      g-1     :     0.000000
      g+2     :     0.000000
      g-2     :     0.000000
      g+3     :    -0.000000
      g-3     :     0.000000
      g+4     :    -0.000000
      g-4     :     0.000000
  1 Ags       :     0.059408  s :     0.059408
      pz      :     0.000016  p :     0.199086
      px      :     0.003631
      py      :     0.195438
      dz2     :     0.001271  d :     0.008127
      dxz     :    -0.000154
      dyz     :    -0.000139
      dx2y2   :     0.002973
      dxy     :     0.004176
      f0      :    -0.000000  f :     0.000094
      f+1     :     0.000001
      f-1     :     0.000024
      f+2     :     0.000000
      f-2     :    -0.000001
      f+3     :     0.000071
      f-3     :    -0.000001
      g0      :     0.000000  g :     0.000000
      g+1     :     0.000000
      g-1     :     0.000000
      g+2     :     0.000000
      g-2     :     0.000000
      g+3     :     0.000000
      g-3     :     0.000000
      g+4     :     0.000000
      g-4     :     0.000000
  2 Ags       :     0.059391  s :     0.059391
      pz      :     0.000016  p :     0.199090
      px      :     0.003634
      py      :     0.195440
      dz2     :     0.001271  d :     0.008127
      dxz     :    -0.000154
      dyz     :    -0.000139
      dx2y2   :     0.002974
      dxy     :     0.004176
      f0      :    -0.000000  f :     0.000094
      f+1     :     0.000001
      f-1     :     0.000024
      f+2     :     0.000000
      f-2     :    -0.000001
      f+3     :     0.000071
      f-3     :    -0.000001
      g0      :     0.000000  g :     0.000000
      g+1     :     0.000000
      g-1     :     0.000000
      g+2     :     0.000000
      g-2     :     0.000000
      g+3     :     0.000000
      g-3     :     0.000000
      g+4     :     0.000000
      g-4     :     0.000000


                      *****************************
                      * MAYER POPULATION ANALYSIS *
                      *****************************

  NA   - Mulliken gross atomic population
  ZA   - Total nuclear charge
  QA   - Mulliken gross atomic charge
  VA   - Mayer's total valence
  BVA  - Mayer's bonded valence
  FA   - Mayer's free valence

  ATOM       NA         ZA         QA         VA         BVA        FA
  0 Ag    19.1377    19.0000    -0.1377     1.3576     0.9475     0.4101
  1 Ag    18.9312    19.0000     0.0688     1.3029     1.2163     0.0866
  2 Ag    18.9311    19.0000     0.0689     1.3029     1.2163     0.0866

  Mayer bond orders larger than 0.100000
B(  0-Ag,  1-Ag) :   0.4738 B(  0-Ag,  2-Ag) :   0.4738 B(  1-Ag,  2-Ag) :   0.7425 


-------
TIMINGS
-------

Total SCF time: 0 days 0 hours 0 min 6 sec 

Total time                  ....       6.489 sec
Sum of individual times     ....       6.338 sec  ( 97.7%)

Fock matrix formation       ....       4.571 sec  ( 70.4%)
  XC integration            ....       0.471 sec  ( 10.3% of F)
    Basis function eval.    ....       0.050 sec  ( 10.5% of XC)
    Density eval.           ....       0.058 sec  ( 12.2% of XC)
    XC-Functional eval.     ....       0.022 sec  (  4.7% of XC)
    XC-Potential eval.      ....       0.106 sec  ( 22.5% of XC)
Diagonalization             ....       0.096 sec  (  1.5%)
Density matrix formation    ....       0.017 sec  (  0.3%)
Population analysis         ....       0.010 sec  (  0.2%)
Initial guess               ....       1.284 sec  ( 19.8%)
Orbital Transformation      ....       0.000 sec  (  0.0%)
Orbital Orthonormalization  ....       0.000 sec  (  0.0%)
DIIS solution               ....       0.031 sec  (  0.5%)
Grid generation             ....       0.329 sec  (  5.1%)


           ************************************************************
           *        Program running with 24 parallel MPI-processes    *
           *              working on a common directory               *
           ************************************************************

------------------------------------------------------------------------------
                                ORCA  MP2 
------------------------------------------------------------------------------

Freezing NCore=0 chemical core electrons

-------------
RI-MP2 ENERGY
-------------
Dimension of the basis                    ...  168
Memory devoted to MP2                     ... 5000 MB   
Data format for buffers                   ... DOUBLE
Compression type for matrix containers    ... UNCOMPRESSED
Scaling for aa/bb pairs                   ...   4.000e-01
Scaling for ab pairs                      ...   4.700e-01
Overall scaling of the MP2 energy         ...   1.000e+00
Calculating two index integrals           ... done (    0.012 sec)
Cholesky decomposition of V**-1           ... done (    0.013 sec)

-----------------
RI-TRANSFORMATION (AUX index driven)
-----------------

Dimension of the orbital-basis         ... 168
Dimension of the aux-basis             ... 528
Transformation of internal/external MOs...    0-  28 to   29- 167
Number Format for Storage              ... Double (8 Byte)
Integral mode                          ... Direct

First Phase: integral generation and transformation of MO indices
  Aux angular momentum 0               ... done (    0.001 sec)
  Aux angular momentum 1               ... done (    0.001 sec)
  Aux angular momentum 2               ... done (    0.002 sec)
  Aux angular momentum 3               ... done (    0.003 sec)
  Aux angular momentum 4               ... done (    0.005 sec)
  Aux angular momentum 5               ... done (    0.007 sec)
  Aux angular momentum 6               ... done (    0.010 sec)
Closing buffer VIA ( 0.02 GB; CompressionRatio= 1.00)
  Phase 1 completed in     0.099 sec
Second Phase: sorting and transformation of aux index

IA-Transformation
Memory available                       ... 4995 MB 
Max. # MO pairs treated in a batch     ... 2    
# of internal orbitals                 ... 29
# batches for internal orbitals        ... 1
Closing buffer IAV ( 0.00 GB; CompressionRatio= 1.00)
(ia|v) transformation done in     0.012 sec

  Phase 2 completed in     0.027 sec
RI-Integral transformation completed in     0.127 sec

-----------------
RI-TRANSFORMATION (AUX index driven)
-----------------

Dimension of the orbital-basis         ... 168
Dimension of the aux-basis             ... 528
Transformation of internal/external MOs...    0-  27 to   28- 167
Number Format for Storage              ... Double (8 Byte)
Integral mode                          ... Direct

First Phase: integral generation and transformation of MO indices
  Aux angular momentum 0               ... done (    0.001 sec)
  Aux angular momentum 1               ... done (    0.001 sec)
  Aux angular momentum 2               ... done (    0.002 sec)
  Aux angular momentum 3               ... done (    0.003 sec)
  Aux angular momentum 4               ... done (    0.005 sec)
  Aux angular momentum 5               ... done (    0.007 sec)
  Aux angular momentum 6               ... done (    0.010 sec)
Closing buffer VIA ( 0.02 GB; CompressionRatio= 1.00)
  Phase 1 completed in     0.097 sec
Second Phase: sorting and transformation of aux index

IA-Transformation
Memory available                       ... 4995 MB 
Max. # MO pairs treated in a batch     ... 2    
# of internal orbitals                 ... 28
# batches for internal orbitals        ... 1
Closing buffer IAV ( 0.00 GB; CompressionRatio= 1.00)
(ia|v) transformation done in     0.011 sec

  Phase 2 completed in     0.026 sec
RI-Integral transformation completed in     0.124 sec
Opening buffers                              ... done

Starting loop over batches of integrals:

Operator 0  - window                       ... (  0- 28)x( 29-167)
Operator 0  - Memory available             ...  5000 MB
Operator 0  - Memory needed per MO         ...   0.6 MB
Operator 0  - Number of orbitals per batch ... 2
Operator 0  - Number of batches            ... 1

OPERATOR  0   PASS   0:  MOs     0 ...    1 +    2 ...    3 +    4 ...    5 +    6 ...    7
                            +    8 ...    9 +   10 ...   11 +   12 ...   13 +   14 ...   15
                            +   16 ...   17 +   18 ...   19 +   20 ...   21 +   22 ...   23
                            +   24 ...   25 +   26 ...   27 +   28 ...   28
  Reading integrals       ... ok

Operator 1  - window                       ... (  0- 27)x( 28-167)
Operator 1  - Memory available             ...  5000 MB
Operator 1  - Memory needed per MO         ...   0.6 MB
Operator 1  - Number of orbitals per batch ... 2
Operator 1  - Number of batches            ... 1

OPERATOR  1   PASS   0:  MOs     0 ...    1 +    2 ...    3 +    4 ...    5 +    6 ...    7
                            +    8 ...    9 +   10 ...   11 +   12 ...   13 +   14 ...   15
                            +   16 ...   17 +   18 ...   19 +   20 ...   21 +   22 ...   23
                            +   24 ...   25 +   26 ...   27
  Reading integrals       ... ok
Time spent in pair loops =     0.088 sec

Spin-scaled correlation energy components}
 E2 and T2 for alpha/alpha pairs :     -0.154188909 Eh      0.000000000
 E2 and T2 for beta/beta   pairs :     -0.146828460 Eh      0.000000000
 E2 and T2 for alpha/beta  pairs :     -0.694576665 Eh      0.000000000


-----------------------------------------------
 RI-MP2 CORRELATION ENERGY:     -0.995594033 Eh
-----------------------------------------------


-------
TIMINGS
-------

Total time                :    0.425 sec
Integral trafo            :    0.282 sec ( 66.2%)
I/O of integrals          :    0.001 sec (  0.2%)
K(i,j) Operators          :    0.041 sec (  9.7%)
T(i,j) pair energies      :    0.004 sec (  0.8%)
V-calculation             :    0.012 sec (  2.8%)
V**(-1/2)                 :    0.013 sec (  3.1%)
Gamma(ia|P)               :    0.000 sec (  0.0%)
Gamma-Trafo               :    0.000 sec (  0.0%)
D(virtual)                :    0.000 sec (  0.0%)
D(internal)               :    0.000 sec (  0.0%)
W(virtual)                :    0.000 sec (  0.0%)
W(internal)               :    0.000 sec (  0.0%)
L(virtual)                :    0.000 sec (  0.0%)
L(internal)               :    0.000 sec (  0.0%)
G(D)                      :    0.000 sec (  0.0%)
G(Z)                      :    0.000 sec (  0.0%)
Z-Vector Solution         :    0.000 sec (  0.0%)
Z-Vector Solution         :    0.000 sec (  0.0%)
3-Index Derivative 
+ Separable RIJ part      :    0.000 sec (  0.0%)
2-Index Derivative 
+ Separable RIJ part      :    0.000 sec (  0.0%)
Separable Gradient (X)    :    0.000 sec (  0.0%)


---------------------------------------
MP2 TOTAL ENERGY:     -440.621918427 Eh
---------------------------------------


-------------------------------------------------------------------------------
                          DFT DISPERSION CORRECTION                            
                                                                               
                              DFTD3 V3.1  Rev 1                                
                          USING Becke-Johnson damping                          
-------------------------------------------------------------------------------
The DSD-BLYP/2013 functional is recognized
Active option DFTDOPT                   ...         4   

molecular C6(AA) [au] = 2417.548083 


            DFT-D V3
 parameters
 s6 scaling factor         :     0.5700 
 a1 scaling factor         :     0.0000 
 s8 scaling factor         :     0.0000 
 a2 scaling factor         :     5.4000 
 ad hoc parameters k1-k3   :    16.0000     1.3333    -4.0000 

 Edisp/kcal,au: -7.062269349273  -0.011254441387 
 E6   /kcal   :  -7.062269349 
 E8   /kcal   :  -0.000000000 
 % E8         :   0.000000000 

-------------------------   ----------------
Dispersion correction           -0.011254441
-------------------------   ----------------


-------------------------   --------------------
FINAL SINGLE POINT ENERGY      -440.633172868254
-------------------------   --------------------


                            ***************************************
                            *     ORCA property calculations      *
                            ***************************************


  WARNING: The energy has been calculated at the MP2 level but the densities
           used in the property calculations are still SCF densities
           MP2 response densities have not been calculated 
           use %mp2 Density relaxed end
           or  %mp2 Density unrelaxed end

                                    ---------------------
                                    Active property flags
                                    ---------------------
   (+) Dipole Moment


------------------------------------------------------------------------------
                       ORCA ELECTRIC PROPERTIES CALCULATION
------------------------------------------------------------------------------

Dipole Moment Calculation                       ... on
Quadrupole Moment Calculation                   ... off
Polarizability Calculation                      ... off
GBWName                                         ... Ag03N0_D3H.gbw
Electron density file                           ... Ag03N0_D3H.scfp
The origin for moment calculation is the CENTER OF MASS  = ( 0.000000, -0.000001  0.000000)

-------------
DIPOLE MOMENT
-------------
                                X             Y             Z
Electronic contribution:     -0.00002      -0.53014       0.00000
Nuclear contribution   :      0.00000       0.00000       0.00000
                        -----------------------------------------
Total Dipole Moment    :     -0.00002      -0.53014       0.00000
                        -----------------------------------------
Magnitude (a.u.)       :      0.53014
Magnitude (Debye)      :      1.34751



--------------------
Rotational spectrum 
--------------------
 
Rotational constants in cm-1:     0.044277     0.044277     0.022139 
Rotational constants in MHz :  1327.402110  1327.401756   663.700966 

 Dipole components along the rotational axes: 
x,y,z [a.u.] :    -0.000022    -0.530140     0.000000 
x,y,z [Debye]:    -0.000056    -1.347508     0.000000 

 

Timings for individual modules:

Sum of individual times         ...        8.777 sec (=   0.146 min)
GTO integral calculation        ...        1.068 sec (=   0.018 min)  12.2 %
SCF iterations                  ...        6.846 sec (=   0.114 min)  78.0 %
MP2 module                      ...        0.863 sec (=   0.014 min)   9.8 %
                             ****ORCA TERMINATED NORMALLY****
TOTAL RUN TIME: 0 days 0 hours 0 minutes 9 seconds 269 msec
