
                                 *****************
                                 * O   R   C   A *
                                 *****************

           --- An Ab Initio, DFT and Semiempirical electronic structure package ---

                  #######################################################
                  #                        -***-                        #
                  #          Department of theory and spectroscopy      #
                  #               Directorship: Frank Neese             #
                  #        Max Planck Institute fuer Kohlenforschung    #
                  #                Kaiser Wilhelm Platz 1               #
                  #                 D-45470 Muelheim/Ruhr               #
                  #                      Germany                        #
                  #                                                     #
                  #                  All rights reserved                #
                  #                        -***-                        #
                  #######################################################


                         Program Version 4.2.0 -  RELEASE  -


 With contributions from (in alphabetic order):
   Daniel Aravena         : Magnetic Suceptibility
   Michael Atanasov       : Ab Initio Ligand Field Theory (pilot matlab implementation)
   Alexander A. Auer      : GIAO ZORA, VPT2
   Ute Becker             : Parallelization
   Giovanni Bistoni       : ED, misc. LED, open-shell LED, HFLED
   Martin Brehm           : Molecular dynamics
   Dmytro Bykov           : SCF Hessian
   Vijay G. Chilkuri      : MRCI spin determinant printing, contributions to CSF-ICE
   Dipayan Datta          : RHF DLPNO-CCSD density
   Achintya Kumar Dutta   : EOM-CC, STEOM-CC
   Dmitry Ganyushin       : Spin-Orbit,Spin-Spin,Magnetic field MRCI
   Miquel Garcia          : C-PCM Hessian, Gaussian charge scheme
   Yang Guo               : DLPNO-NEVPT2, CIM, IAO-localization
   Andreas Hansen         : Spin unrestricted coupled pair/coupled cluster methods
   Benjamin Helmich-Paris : CASSCF linear response (MC-RPA)
   Lee Huntington         : MR-EOM, pCC
   Robert Izsak           : Overlap fitted RIJCOSX, COSX-SCS-MP3, EOM
   Christian Kollmar      : KDIIS, OOCD, Brueckner-CCSD(T), CCSD density
   Simone Kossmann        : Meta GGA functionals, TD-DFT gradient, OOMP2, MP2 Hessian
   Martin Krupicka        : AUTO-CI
   Lucas Lang             : DCDCAS
   Dagmar Lenk            : GEPOL surface, SMD
   Dimitrios Liakos       : Extrapolation schemes; Compound Job, initial MDCI parallelization
   Dimitrios Manganas     : Further ROCIS development; embedding schemes
   Dimitrios Pantazis     : SARC Basis sets
   Taras Petrenko         : DFT Hessian,TD-DFT gradient, ASA, ECA, R-Raman, ABS, FL, XAS/XES, NRVS
   Peter Pinski           : DLPNO-MP2, DLPNO-MP2 Gradient
   Christoph Reimann      : Effective Core Potentials
   Marius Retegan         : Local ZFS, SOC
   Christoph Riplinger    : Optimizer, TS searches, QM/MM, DLPNO-CCSD(T), (RO)-DLPNO pert. Triples
   Tobias Risthaus        : Range-separated hybrids, TD-DFT gradient, RPA, STAB
   Michael Roemelt        : Original ROCIS implementation
   Masaaki Saitow         : Open-shell DLPNO-CCSD energy and density
   Barbara Sandhoefer     : DKH picture change effects
   Avijit Sen             : IP-ROCIS
   Kantharuban Sivalingam : CASSCF convergence, NEVPT2, FIC-MRCI
   Bernardo de Souza      : ESD, SOC TD-DFT
   Georgi Stoychev        : AutoAux, RI-MP2 NMR
   Willem Van den Heuvel  : Paramagnetic NMR
   Boris Wezisla          : Elementary symmetry handling
   Frank Wennmohs         : Technical directorship


 We gratefully acknowledge several colleagues who have allowed us to
 interface, adapt or use parts of their codes:
   Stefan Grimme, W. Hujo, H. Kruse,             : VdW corrections, initial TS optimization,
                  C. Bannwarth                     DFT functionals, gCP, sTDA/sTD-DF
   Ed Valeev, F. Pavosevic, A. Kumar             : LibInt (2-el integral package), F12 methods
   Garnet Chan, S. Sharma, J. Yang, R. Olivares  : DMRG
   Ulf Ekstrom                                   : XCFun DFT Library
   Mihaly Kallay                                 : mrcc  (arbitrary order and MRCC methods)
   Andreas Klamt, Michael Diedenhofen            : otool_cosmo (COSMO solvation model)
   Jiri Pittner, Ondrej Demel                    : Mk-CCSD
   Frank Weinhold                                : gennbo (NPA and NBO analysis)
   Christopher J. Cramer and Donald G. Truhlar   : smd solvation model
   Lars Goerigk                                  : TD-DFT with DH, B97 family of functionals
   V. Asgeirsson, H. Jonsson                     : NEB implementation
   FAccTs GmbH                                   : IRC, NEB, NEB-TS, Multilevel, MM, QM/MM, CI optimization
   S Lehtola, MJT Oliveira, MAL Marques          : LibXC Library


 Your calculation uses the libint2 library for the computation of 2-el integrals
 For citations please refer to: http://libint.valeyev.net

 Your ORCA version has been built with support for libXC version: 4.2.3
 For citations please refer to: https://tddft.org/programs/libxc/

 This ORCA versions uses:
   CBLAS   interface :  Fast vector & matrix operations
   LAPACKE interface :  Fast linear algebra routines
   SCALAPACK package :  Parallel linear algebra routines


Your calculation utilizes the atom-pairwise dispersion correction
with the Becke-Johnson damping scheme (D3BJ)
Cite in your paper:
S.Grimme, S.Ehrlich, L.Goerigk, J Comput Chem, (2011), 32, 1456–1465 
S.Grimme, J.Antony, S.Ehrlich and H.Krieg, J.Chem.Phys., 132, (2010), 154104 
   

----- Orbital basis set information -----
Your calculation utilizes the basis: def2-TZVPPD
   F. Weigend and R. Ahlrichs, Phys. Chem. Chem. Phys. 7, 3297 (2005).
   D. Rappoport and F. Furche, J. Chem. Phys. 133 134105 (2010).

----- AuxC basis set information -----
Your calculation utilizes the auxiliary basis: def2-TZVPPD/C
   A. Hellweg, C. Hattig, S. Hofener and W. Klopper, Theor. Chem. Acc. 117, 587 (2007).

----- AuxJK basis set information -----
Your calculation utilizes the auxiliary basis: def2/JK
   H-Ba, Hf-Rn: F. Weigend, J. Comput. Chem. 29, 167 (2008).

cite the ECPs for Ag [Def2-ECP] as follows:
Ce-Yb(ecp-28): M. Dolg, H. Stoll, H.Preuss, J. Chem. Phys., 1989, 90, 1730-1734.
Y-Cd(ecp-28), Hf-Hg(ecp-46): D. Andrae,U. Haeussermann, M. Dolg, H. Stoll, H. Preuss, Theor. Chim. Acta, 1990, 77, 123-141.
In-Sb(ecp-28), Tl-Bi(ecp-46): B. Metz, H. Stoll, M. Dolg, J. Chem. Phys., 2000, 113, 2563-2569.
Te-Xe(ecp-28), Po-Rn(ecp-46): K. A. Peterson, D. Figgen, E. Goll, H. Stoll, M. Dolg, J. Chem. Phys., 2003, 119, 11113-11123.
Rb(ecp-28), Cs(ecp-46): T. Leininger, A. Nicklass, W. Kuechle, H. Stoll, M. Dolg, A. Bergner, Chem. Phys. Lett., 1996, 255, 274-280.
Sr(ecp-28), Ba(ecp-46): M. Kaupp, P. V. Schleyer, H. Stoll and H. Preuss, J. Chem. Phys., 1991, 94, 1360-1366.
La(ecp-46): M. Dolg, H. Stoll, A. Savin, H. Preuss, Theor. Chim. Acta, 1989, 75, 173-194.
Lu(ecp-28): X. Cao, M. Dolg, J. Chem. Phys., 2001, 115, 7348-7355.

ECP parameters for Ag [Def2-ECP] have been obtained from:
TURBOMOLE (7.0.2)

================================================================================
                                        WARNINGS
                       Please study these warnings very carefully!
================================================================================


WARNING: No MP2 level density has been requested!
         To caclulate MP2 level properties use
         %mp2 Density relaxed end
         or
         %mp2 Density unrelaxed end
         Otherwise for double-hybrid DFT only the energy is correct!

WARNING: There are different parametrizations of Gershom Martin's DSD-DFs
         for use with and without D3(BJ)!
         You are using the D3(BJ) parametrized version,
         consistent with the 2013 article (S. Kozuch and J. M. L. Martin, JCC 2013, 34, 2327)

WARNING: The frozen-core approximation is turned on by default for 
         the MP2 part of double-hybrid DFT.

INFO   : the flag for use of LIBINT has been found!

================================================================================
                                       INPUT FILE
================================================================================
NAME = Ag03C1_LIN.in
|  1> #
|  2> # Ag03C1_LIN ri-DSD-BLYP/2013-D3BJ/Def2-TZVPPD
|  3> #
|  4> ! rijk ri-dsd-blyp/2013 d3bj def2-tzvppd def2/jk def2-tzvppd/c grid4 nofinalgrid
|  5> 
|  6> *xyz 1 1
|  7> Ag       0.000000    0.000000    0.000000 
|  8> Ag       0.000000    0.000000    2.629319 
|  9> Ag       0.000000    0.000000   -2.629319 
| 10> *
| 11> 
| 12> %maxcore 5000
| 13> 
| 14> %pal
| 15> nprocs = 24
| 16> end
| 17> 
| 18> 
| 19>                          ****END OF INPUT****
================================================================================

                       ****************************
                       * Single Point Calculation *
                       ****************************

---------------------------------
CARTESIAN COORDINATES (ANGSTROEM)
---------------------------------
  Ag     0.000000    0.000000    0.000000
  Ag     0.000000    0.000000    2.629319
  Ag     0.000000    0.000000   -2.629319

----------------------------
CARTESIAN COORDINATES (A.U.)
----------------------------
  NO LB      ZA    FRAG     MASS         X           Y           Z
   0 Ag   19.0000*   0   107.870    0.000000    0.000000    0.000000
   1 Ag   19.0000*   0   107.870    0.000000    0.000000    4.968693
   2 Ag   19.0000*   0   107.870    0.000000    0.000000   -4.968693
* core charge reduced due to ECP

--------------------------------
INTERNAL COORDINATES (ANGSTROEM)
--------------------------------
 Ag     0   0   0     0.000000000000     0.00000000     0.00000000
 Ag     1   0   0     2.629319000000     0.00000000     0.00000000
 Ag     1   2   0     2.629319000000   180.00000000     0.00000000

---------------------------
INTERNAL COORDINATES (A.U.)
---------------------------
 Ag     0   0   0     0.000000000000     0.00000000     0.00000000
 Ag     1   0   0     4.968692828716     0.00000000     0.00000000
 Ag     1   2   0     4.968692828716   180.00000000     0.00000000

---------------------
BASIS SET INFORMATION
---------------------
There are 1 groups of distinct atoms

 Group   1 Type Ag  : 7s7p6d2f1g contracted to 6s4p3d2f1g pattern {211111/4111/411/11/1}

Atom   0Ag   basis set group =>   1
Atom   1Ag   basis set group =>   1
Atom   2Ag   basis set group =>   1
---------------------------------
AUXILIARY/C BASIS SET INFORMATION
---------------------------------
There are 1 groups of distinct atoms

 Group   1 Type Ag  : 8s7p6d5f4g3h1i contracted to 8s7p6d5f4g3h1i pattern {11111111/1111111/111111/11111/1111/111/1}

Atom   0Ag   basis set group =>   1
Atom   1Ag   basis set group =>   1
Atom   2Ag   basis set group =>   1
----------------------------------
AUXILIARY/JK BASIS SET INFORMATION
----------------------------------
There are 1 groups of distinct atoms

 Group   1 Type Ag  : 13s12p10d9f6g3h2i contracted to 11s10p9d8f6g3h2i pattern {31111111111/3111111111/211111111/21111111/111111/111/11}

Atom   0Ag   basis set group =>   1
Atom   1Ag   basis set group =>   1
Atom   2Ag   basis set group =>   1
-------------------------
ECP PARAMETER INFORMATION
-------------------------

 Group 1, Type Ag ECP Def2-ECP (replacing 28 core electrons, lmax=3)

Atom   0Ag   ECP group =>   1
Atom   1Ag   ECP group =>   1
Atom   2Ag   ECP group =>   1



           ************************************************************
           *        Program running with 24 parallel MPI-processes    *
           *              working on a common directory               *
           ************************************************************
------------------------------------------------------------------------------
                           ORCA GTO INTEGRAL CALCULATION
                           -- RI-GTO INTEGRALS CHOSEN --
------------------------------------------------------------------------------

                         BASIS SET STATISTICS AND STARTUP INFO

Gaussian basis set:
 # of primitive gaussian shells          ...   69
 # of primitive gaussian functions       ...  243
 # of contracted shells                  ...   48
 # of contracted basis functions         ...  168
 Highest angular momentum                ...    4
 Maximum contraction depth               ...    4
Auxiliary gaussian basis set:
 # of primitive gaussian shells          ...  165
 # of primitive gaussian functions       ...  825
 # of contracted shells                  ...  147
 # of contracted aux-basis functions     ...  765
 Highest angular momentum                ...    6
 Maximum contraction depth               ...    3
Ratio of auxiliary to basis functions    ...  4.55
Integral package used                  ... LIBINT
 One Electron integrals                  
   ECP integrals                         ... done
 Ordering auxiliary basis shells         ... done
 Integral threshhold             Thresh  ...  1.000e-10
 Primitive cut-off               TCut    ...  1.000e-11
 Pre-screening matrix                    ... done
 Shell pair data                         ... 
 Ordering of the shell pairs             ... done (   0.000 sec) 1056 of 1176 pairs
 Determination of significant pairs      ... done (   0.000 sec)
 Creation of shell pair data             ... done (   0.000 sec)
 Storage of shell pair data              ... done (   0.004 sec)
 Shell pair data done in (   0.004 sec)
 Computing two index integrals           ... done
 Cholesky decomposition of the V-matrix  ... done


Timings:
 Total evaluation time                   ...   0.621 sec (  0.010 min)
 One electron matrix time                ...   0.282 sec (  0.005 min) = 45.4%
 Schwartz matrix evaluation time         ...   0.143 sec (  0.002 min) = 23.1%
 Two index repulsion integral time       ...   0.151 sec (  0.003 min) = 24.4%
 Cholesky decomposition of V             ...   0.009 sec (  0.000 min) =  1.5%
 Three index repulsion integral time     ...   0.000 sec (  0.000 min) =  0.0%



           ************************************************************
           *        Program running with 24 parallel MPI-processes    *
           *              working on a common directory               *
           ************************************************************
-------------------------------------------------------------------------------
                                 ORCA SCF
-------------------------------------------------------------------------------

------------
SCF SETTINGS
------------
Hamiltonian:
 Density Functional     Method          .... DFT(GTOs)
 Exchange Functional    Exchange        .... B88
   X-Alpha parameter    XAlpha          ....  0.666667
   Becke's b parameter  XBeta           ....  0.004200
 Correlation Functional Correlation     .... LYP
 LDA part of GGA corr.  LDAOpt          .... VWN-5
 Gradients option       PostSCFGGA      .... off
 Hybrid DFT is turned on
   Fraction HF Exchange ScalHFX         ....  0.710000
   Scaling of DF-GGA-X  ScalDFX         ....  0.290000
   Scaling of DF-GGA-C  ScalDFC         ....  0.540000
   Scaling of DF-LDA-C  ScalLDAC        ....  0.540000
   Perturbative correction              ....  1.000000
   Density functional embedding theory  .... OFF
 RI-approximation to the Coulomb term is turned on
   Number of auxiliary basis functions  .... 765
   RI-JK (J+K treated both via RI)      .... on


General Settings:
 Integral files         IntName         .... Ag03C1_LIN
 Hartree-Fock type      HFTyp           .... RHF
 Total Charge           Charge          ....    1
 Multiplicity           Mult            ....    1
 Number of Electrons    NEL             ....   56
 Basis Dimension        Dim             ....  168
 Nuclear Repulsion      ENuc            ....    181.6373100756 Eh

Convergence Acceleration:
 DIIS                   CNVDIIS         .... on
   Start iteration      DIISMaxIt       ....    12
   Startup error        DIISStart       ....  0.200000
   # of expansion vecs  DIISMaxEq       ....     5
   Bias factor          DIISBfac        ....   1.050
   Max. coefficient     DIISMaxC        ....  10.000
 Newton-Raphson         CNVNR           .... off
 SOSCF                  CNVSOSCF        .... off
 Level Shifting         CNVShift        .... on
   Level shift para.    LevelShift      ....    0.2500
   Turn off err/grad.   ShiftErr        ....    0.0010
 Zerner damping         CNVZerner       .... off
 Static damping         CNVDamp         .... on
   Fraction old density DampFac         ....    0.7000
   Max. Damping (<1)    DampMax         ....    0.9800
   Min. Damping (>=0)   DampMin         ....    0.0000
   Turn off err/grad.   DampErr         ....    0.1000
 Fernandez-Rico         CNVRico         .... off

SCF Procedure:
 Maximum # iterations   MaxIter         ....   125
 SCF integral mode      SCFMode         .... Direct
   Integral package                     .... LIBINT
 Reset frequency        DirectResetFreq ....    20
 Integral Threshold     Thresh          ....  1.000e-10 Eh
 Primitive CutOff       TCut            ....  1.000e-11 Eh

Convergence Tolerance:
 Convergence Check Mode ConvCheckMode   .... Total+1el-Energy
 Convergence forced     ConvForced      .... 0
 Energy Change          TolE            ....  1.000e-06 Eh
 1-El. energy change                    ....  1.000e-03 Eh
 DIIS Error             TolErr          ....  1.000e-06


Diagonalization of the overlap matrix:
Smallest eigenvalue                        ... 1.322e-03
Time for diagonalization                   ...    0.006 sec
Threshold for overlap eigenvalues          ... 1.000e-08
Number of eigenvalues below threshold      ... 0
Time for construction of square roots      ...    0.003 sec
Total time needed                          ...    0.010 sec

-------------------
DFT GRID GENERATION
-------------------

General Integration Accuracy     IntAcc      ...  4.670
Radial Grid Type                 RadialGrid  ... Gauss-Chebyshev
Angular Grid (max. acc.)         AngularGrid ... Lebedev-302
Angular grid pruning method      GridPruning ... 3 (G Style)
Weight generation scheme         WeightScheme... Becke
Basis function cutoff            BFCut       ...    1.0000e-10
Integration weight cutoff        WCut        ...    1.0000e-14
Grids for H and He will be reduced by one unit

# of grid points (after initial pruning)     ...  31974 (   0.0 sec)
# of grid points (after weights+screening)   ...  31770 (   0.0 sec)
nearest neighbour list constructed           ...    0.0 sec
Grid point re-assignment to atoms done       ...    0.0 sec
Grid point division into batches done        ...    0.3 sec
Reduced shell lists constructed in    0.3 sec

Total number of grid points                  ...    31770
Total number of batches                      ...      498
Average number of points per batch           ...       63
Average number of grid points per atom       ...    10590
Average number of shells per batch           ...    11.91 (24.81%)
Average number of basis functions per batch  ...    30.45 (18.13%)
Average number of large shells per batch     ...     9.77 (82.06%)
Average number of large basis fcns per batch ...    24.32 (79.85%)
Average number of aux-shells per batch       ...    11.91 ( 8.10%)
Average number of aux functions per batch    ...    30.45 ( 3.98%)
Maximum spatial batch extension              ...  36.77, 36.77,  4.93 au
Average spatial batch extension              ...   0.56,  0.56,  0.20 au

Time for grid setup =    0.346 sec

------------------------------
INITIAL GUESS: MODEL POTENTIAL
------------------------------
Loading Hartree-Fock densities                     ... done
  calling /sw/apps/orca/orca_4_2_0_linux_x86-64_openmpi314/orca Ag03C1_LIN_atom47.inp > Ag03C1_LIN_atom47.out in order to generate an atomic fitting density for atom 0 (Ag with ECP) on-the-fly... 
    atom 0 (Ag), assumed electronic state with S=2: 1s2 2s2 2p6 3s2 3p6 4s2 3d10 4p6 5s2 4d9           ... done
Calculating cut-offs                               ... done
Setting up the integral package                    ... done
Initializing the effective Hamiltonian             ... done
Starting the Coulomb interaction                   ... done (   0.0 sec)
Reading the grid                                   ... done
Mapping shells                                     ... done
Starting the XC term evaluation                    ... done (   0.0 sec)
  promolecular density results
     # of electrons  =    141.001742024
     EX              =   -432.224372450
     EC              =     -0.961739657
     EX+EC           =   -433.186112108
Transforming the Hamiltonian                       ... done (   0.0 sec)
Diagonalizing the Hamiltonian                      ... done (   0.0 sec)
Back transforming the eigenvectors                 ... done (   0.0 sec)
Now organizing SCF variables                       ... done
                      ------------------
                      INITIAL GUESS DONE (   1.6 sec)
                      ------------------
--------------
SCF ITERATIONS
--------------
ITER       Energy         Delta-E        Max-DP      RMS-DP      [F,P]     Damp
  0   -439.2360139171   0.000000000000 0.12185785  0.00194466  0.4966439 0.7000
  1   -438.9352239017   0.300790015402 0.09128227  0.00156275  0.3540155 0.7000
  2   -439.0390162232  -0.103792321496 0.05600202  0.00087612  0.2346815 0.7000
                               ***Turning on DIIS***
  3   -439.2351509981  -0.196134774995 0.03468969  0.00047354  0.1563104 0.7000
  4   -439.3684245979  -0.133273599748 0.01959997  0.00035602  0.1071327 0.7000
  5   -439.4475618273  -0.079137229437 0.05339973  0.00107535  0.0769226 0.0000
  6   -439.3974860694   0.050075757967 0.00826059  0.00022971  0.0308354 0.0000
  7   -439.4002514834  -0.002765414066 0.00360497  0.00012111  0.0152398 0.0000
  8   -439.4009792844  -0.000727800920 0.00255142  0.00008087  0.0069139 0.0000
  9   -439.4011419460  -0.000162661613 0.00230412  0.00003454  0.0015603 0.0000
 10   -439.4011519445  -0.000009998558 0.00246546  0.00003056  0.0005442 0.0000
 11   -439.4011537366  -0.000001792068 0.00062480  0.00000678  0.0000716 0.0000
                 **** Energy Check signals convergence ****

               *****************************************************
               *                     SUCCESS                       *
               *           SCF CONVERGED AFTER  12 CYCLES          *
               *****************************************************


----------------
TOTAL SCF ENERGY
----------------

Total Energy       :         -439.40115382 Eh          -11956.71326 eV

Components:
Nuclear Repulsion  :          181.63731008 Eh            4942.60248 eV
Electronic Energy  :         -621.03846389 Eh          -16899.31575 eV
One Electron Energy:        -1136.95828163 Eh          -30938.20771 eV
Two Electron Energy:          515.91981774 Eh           14038.89196 eV

Virial components:
Potential Energy   :         -609.05713024 Eh          -16573.28708 eV
Kinetic Energy     :          169.65597643 Eh            4616.57382 eV
Virial Ratio       :            3.58995388


DFT components:
N(Alpha)           :       27.999978390027 electrons
N(Beta)            :       27.999978390027 electrons
N(Total)           :       55.999956780054 electrons
E(X)               :      -11.651752327716 Eh       
E(C)               :       -1.151622099379 Eh       
E(XC)              :      -12.803374427095 Eh       
DFET-embed. en.    :        0.000000000000 Eh       

---------------
SCF CONVERGENCE
---------------

  Last Energy change         ...   -7.9112e-08  Tolerance :   1.0000e-06
  Last MAX-Density change    ...    1.0546e-04  Tolerance :   1.0000e-05
  Last RMS-Density change    ...    1.8420e-06  Tolerance :   1.0000e-06
  Last DIIS Error            ...    7.8113e-05  Tolerance :   1.0000e-06

             **** THE GBW FILE WAS UPDATED (Ag03C1_LIN.gbw) ****
             **** DENSITY FILE WAS UPDATED (Ag03C1_LIN.scfp) ****
             **** ENERGY FILE WAS UPDATED (Ag03C1_LIN.en.tmp) ****
             **** THE GBW FILE WAS UPDATED (Ag03C1_LIN.gbw) ****
             **** DENSITY FILE WAS UPDATED (Ag03C1_LIN.scfp) ****
----------------
ORBITAL ENERGIES
----------------

  NO   OCC          E(Eh)            E(eV) 
   0   2.0000      -4.317916      -117.4965 
   1   2.0000      -4.317915      -117.4964 
   2   2.0000      -4.270645      -116.2102 
   3   2.0000      -2.824595       -76.8611 
   4   2.0000      -2.824255       -76.8519 
   5   2.0000      -2.822262       -76.7977 
   6   2.0000      -2.822262       -76.7977 
   7   2.0000      -2.822245       -76.7972 
   8   2.0000      -2.822245       -76.7972 
   9   2.0000      -2.777141       -75.5699 
  10   2.0000      -2.770575       -75.3912 
  11   2.0000      -2.770575       -75.3912 
  12   2.0000      -0.679455       -18.4889 
  13   2.0000      -0.658638       -17.9224 
  14   2.0000      -0.658638       -17.9224 
  15   2.0000      -0.651330       -17.7236 
  16   2.0000      -0.649409       -17.6713 
  17   2.0000      -0.649409       -17.6713 
  18   2.0000      -0.646584       -17.5945 
  19   2.0000      -0.646584       -17.5944 
  20   2.0000      -0.646260       -17.5856 
  21   2.0000      -0.646260       -17.5856 
  22   2.0000      -0.592598       -16.1254 
  23   2.0000      -0.592598       -16.1254 
  24   2.0000      -0.590207       -16.0603 
  25   2.0000      -0.590207       -16.0603 
  26   2.0000      -0.580939       -15.8082 
  27   2.0000      -0.398220       -10.8361 
  28   0.0000      -0.247182        -6.7262 
  29   0.0000      -0.154983        -4.2173 
  30   0.0000      -0.127284        -3.4636 
  31   0.0000      -0.127284        -3.4636 
  32   0.0000      -0.091807        -2.4982 
  33   0.0000      -0.086931        -2.3655 
  34   0.0000      -0.086931        -2.3655 
  35   0.0000      -0.022873        -0.6224 
  36   0.0000      -0.022873        -0.6224 
  37   0.0000      -0.001865        -0.0507 
  38   0.0000       0.013569         0.3692 
  39   0.0000       0.014976         0.4075 
  40   0.0000       0.062135         1.6908 
  41   0.0000       0.095996         2.6122 
  42   0.0000       0.097098         2.6422 
  43   0.0000       0.097098         2.6422 
  44   0.0000       0.131944         3.5904 
  45   0.0000       0.131944         3.5904 
  46   0.0000       0.178858         4.8670 
  47   0.0000       0.190452         5.1825 
  48   0.0000       0.190452         5.1825 
  49   0.0000       0.229857         6.2547 
  50   0.0000       0.289094         7.8666 
  51   0.0000       0.289096         7.8667 
  52   0.0000       0.325309         8.8521 
  53   0.0000       0.325309         8.8521 
  54   0.0000       0.326656         8.8888 
  55   0.0000       0.326658         8.8888 
  56   0.0000       0.372770        10.1436 
  57   0.0000       0.421242        11.4626 
  58   0.0000       0.421244        11.4626 
  59   0.0000       0.427752        11.6397 
  60   0.0000       0.427752        11.6397 
  61   0.0000       0.541914        14.7462 
  62   0.0000       0.620198        16.8765 
  63   0.0000       0.620624        16.8880 
  64   0.0000       0.620624        16.8880 
  65   0.0000       0.707755        19.2590 
  66   0.0000       1.453836        39.5609 
  67   0.0000       1.537136        41.8276 
  68   0.0000       1.537136        41.8276 
  69   0.0000       1.575145        42.8619 
  70   0.0000       1.575148        42.8620 
  71   0.0000       1.580945        43.0197 
  72   0.0000       1.580945        43.0197 
  73   0.0000       1.580962        43.0202 
  74   0.0000       1.580962        43.0202 
  75   0.0000       1.582034        43.0493 
  76   0.0000       1.582036        43.0494 
  77   0.0000       1.602373        43.6028 
  78   0.0000       1.602373        43.6028 
  79   0.0000       1.614172        43.9239 
  80   0.0000       1.615725        43.9661 
  81   0.0000       1.615725        43.9661 
  82   0.0000       1.636760        44.5385 
  83   0.0000       1.636763        44.5386 
  84   0.0000       1.639393        44.6102 
  85   0.0000       1.639393        44.6102 
  86   0.0000       1.656592        45.0782 
  87   0.0000       1.656592        45.0782 
  88   0.0000       1.677091        45.6360 
  89   0.0000       1.677091        45.6360 
  90   0.0000       1.684425        45.8355 
  91   0.0000       1.691076        46.0165 
  92   0.0000       1.767580        48.0983 
  93   0.0000       1.767580        48.0983 
  94   0.0000       1.771473        48.2042 
  95   0.0000       1.929326        52.4996 
  96   0.0000       1.969704        53.5984 
  97   0.0000       2.070536        56.3421 
  98   0.0000       2.070545        56.3424 
  99   0.0000       2.074843        56.4593 
 100   0.0000       2.074852        56.4596 
 101   0.0000       2.098996        57.1166 
 102   0.0000       2.098996        57.1166 
 103   0.0000       2.143978        58.3406 
 104   0.0000       2.143978        58.3406 
 105   0.0000       2.145527        58.3828 
 106   0.0000       2.145535        58.3830 
 107   0.0000       2.195087        59.7314 
 108   0.0000       2.209056        60.1115 
 109   0.0000       2.263314        61.5879 
 110   0.0000       2.263314        61.5879 
 111   0.0000       2.373182        64.5776 
 112   0.0000       2.396565        65.2138 
 113   0.0000       2.747135        74.7533 
 114   0.0000       4.964667       135.0955 
 115   0.0000       4.980722       135.5323 
 116   0.0000       4.980722       135.5323 
 117   0.0000       5.007942       136.2730 
 118   0.0000       5.008053       136.2761 
 119   0.0000       5.011262       136.3634 
 120   0.0000       5.011262       136.3634 
 121   0.0000       5.011273       136.3637 
 122   0.0000       5.011273       136.3637 
 123   0.0000       5.013328       136.4196 
 124   0.0000       5.013436       136.4225 
 125   0.0000       5.051494       137.4581 
 126   0.0000       5.051494       137.4581 
 127   0.0000       5.062817       137.7663 
 128   0.0000       5.062817       137.7663 
 129   0.0000       5.063650       137.7889 
 130   0.0000       5.063811       137.7933 
 131   0.0000       5.125881       139.4823 
 132   0.0000       5.125881       139.4823 
 133   0.0000       5.166766       140.5948 
 134   0.0000       5.324372       144.8835 
 135   0.0000       5.698770       155.0714 
 136   0.0000       5.698770       155.0714 
 137   0.0000       5.698910       155.0752 
 138   0.0000       5.698931       155.0758 
 139   0.0000       5.699238       155.0842 
 140   0.0000       5.699259       155.0847 
 141   0.0000       5.700032       155.1058 
 142   0.0000       5.700032       155.1058 
 143   0.0000       5.700042       155.1060 
 144   0.0000       5.700042       155.1060 
 145   0.0000       5.700116       155.1080 
 146   0.0000       5.700116       155.1080 
 147   0.0000       5.701007       155.1323 
 148   0.0000       5.701007       155.1323 
 149   0.0000       5.701217       155.1380 
 150   0.0000       5.701217       155.1380 
 151   0.0000       5.703222       155.1926 
 152   0.0000       5.703386       155.1970 
 153   0.0000       5.750307       156.4738 
 154   0.0000       5.750339       156.4747 
 155   0.0000       5.750779       156.4867 
 156   0.0000       5.750779       156.4867 
 157   0.0000       5.754038       156.5753 
 158   0.0000       5.754038       156.5753 
 159   0.0000       5.758491       156.6965 
 160   0.0000       5.758787       156.7046 
 161   0.0000       5.765018       156.8741 
 162   0.0000      33.441544       909.9907 
 163   0.0000      33.576904       913.6740 
 164   0.0000      33.987635       924.8506 
 165   0.0000     109.724604      2985.7583 
 166   0.0000     109.762275      2986.7833 
 167   0.0000     109.923125      2991.1603 

                    ********************************
                    * MULLIKEN POPULATION ANALYSIS *
                    ********************************

-----------------------
MULLIKEN ATOMIC CHARGES
-----------------------
   0 Ag:   -0.098158
   1 Ag:    0.549077
   2 Ag:    0.549081
Sum of atomic charges:    1.0000000

--------------------------------
MULLIKEN REDUCED ORBITAL CHARGES
--------------------------------
  0 Ags       :     3.117011  s :     3.117011
      pz      :     2.000024  p :     6.009321
      px      :     2.004649
      py      :     2.004649
      dz2     :     1.987388  d :     9.970300
      dxz     :     1.991699
      dyz     :     1.991699
      dx2y2   :     1.999757
      dxy     :     1.999757
      f0      :     0.000803  f :     0.001497
      f+1     :     0.000327
      f-1     :     0.000327
      f+2     :     0.000020
      f-2     :     0.000020
      f+3     :     0.000000
      f-3     :     0.000000
      g0      :     0.000013  g :     0.000029
      g+1     :     0.000007
      g-1     :     0.000007
      g+2     :     0.000001
      g-2     :     0.000001
      g+3     :     0.000000
      g-3     :     0.000000
      g+4     :     0.000000
      g-4     :     0.000000
  1 Ags       :     2.405987  s :     2.405987
      pz      :     2.054019  p :     6.061000
      px      :     2.003491
      py      :     2.003491
      dz2     :     1.986905  d :     9.982998
      dxz     :     1.997958
      dyz     :     1.997958
      dx2y2   :     2.000089
      dxy     :     2.000089
      f0      :     0.000466  f :     0.000927
      f+1     :     0.000208
      f-1     :     0.000208
      f+2     :     0.000022
      f-2     :     0.000022
      f+3     :     0.000000
      f-3     :     0.000000
      g0      :     0.000006  g :     0.000011
      g+1     :     0.000003
      g-1     :     0.000003
      g+2     :     0.000000
      g-2     :     0.000000
      g+3     :     0.000000
      g-3     :     0.000000
      g+4     :     0.000000
      g-4     :     0.000000
  2 Ags       :     2.405985  s :     2.405985
      pz      :     2.054018  p :     6.060999
      px      :     2.003491
      py      :     2.003491
      dz2     :     1.986905  d :     9.982998
      dxz     :     1.997958
      dyz     :     1.997958
      dx2y2   :     2.000089
      dxy     :     2.000089
      f0      :     0.000466  f :     0.000927
      f+1     :     0.000208
      f-1     :     0.000208
      f+2     :     0.000022
      f-2     :     0.000022
      f+3     :     0.000000
      f-3     :     0.000000
      g0      :     0.000006  g :     0.000011
      g+1     :     0.000003
      g-1     :     0.000003
      g+2     :     0.000000
      g-2     :     0.000000
      g+3     :     0.000000
      g-3     :     0.000000
      g+4     :     0.000000
      g-4     :     0.000000


                     *******************************
                     * LOEWDIN POPULATION ANALYSIS *
                     *******************************

----------------------
LOEWDIN ATOMIC CHARGES
----------------------
   0 Ag:    0.112796
   1 Ag:    0.443602
   2 Ag:    0.443602

-------------------------------
LOEWDIN REDUCED ORBITAL CHARGES
-------------------------------
  0 Ags       :     2.876078  s :     2.876078
      pz      :     2.023150  p :     6.038023
      px      :     2.007436
      py      :     2.007436
      dz2     :     1.996875  d :     9.970967
      dxz     :     1.987288
      dyz     :     1.987288
      dx2y2   :     1.999758
      dxy     :     1.999758
      f0      :     0.001174  f :     0.002104
      f+1     :     0.000441
      f-1     :     0.000441
      f+2     :     0.000025
      f-2     :     0.000025
      f+3     :     0.000000
      f-3     :     0.000000
      g0      :     0.000015  g :     0.000032
      g+1     :     0.000007
      g-1     :     0.000007
      g+2     :     0.000001
      g-2     :     0.000001
      g+3     :     0.000000
      g-3     :     0.000000
      g+4     :     0.000000
      g-4     :     0.000000
  1 Ags       :     2.425896  s :     2.425896
      pz      :     2.125550  p :     6.136411
      px      :     2.005430
      py      :     2.005430
      dz2     :     1.999231  d :     9.992763
      dxz     :     1.996683
      dyz     :     1.996683
      dx2y2   :     2.000083
      dxy     :     2.000083
      f0      :     0.000670  f :     0.001314
      f+1     :     0.000297
      f-1     :     0.000297
      f+2     :     0.000025
      f-2     :     0.000025
      f+3     :     0.000000
      f-3     :     0.000000
      g0      :     0.000007  g :     0.000015
      g+1     :     0.000003
      g-1     :     0.000003
      g+2     :     0.000000
      g-2     :     0.000000
      g+3     :     0.000000
      g-3     :     0.000000
      g+4     :     0.000000
      g-4     :     0.000000
  2 Ags       :     2.425896  s :     2.425896
      pz      :     2.125550  p :     6.136410
      px      :     2.005430
      py      :     2.005430
      dz2     :     1.999231  d :     9.992763
      dxz     :     1.996683
      dyz     :     1.996683
      dx2y2   :     2.000083
      dxy     :     2.000083
      f0      :     0.000670  f :     0.001314
      f+1     :     0.000297
      f-1     :     0.000297
      f+2     :     0.000025
      f-2     :     0.000025
      f+3     :     0.000000
      f-3     :     0.000000
      g0      :     0.000007  g :     0.000015
      g+1     :     0.000003
      g-1     :     0.000003
      g+2     :     0.000000
      g-2     :     0.000000
      g+3     :     0.000000
      g-3     :     0.000000
      g+4     :     0.000000
      g-4     :     0.000000


                      *****************************
                      * MAYER POPULATION ANALYSIS *
                      *****************************

  NA   - Mulliken gross atomic population
  ZA   - Total nuclear charge
  QA   - Mulliken gross atomic charge
  VA   - Mayer's total valence
  BVA  - Mayer's bonded valence
  FA   - Mayer's free valence

  ATOM       NA         ZA         QA         VA         BVA        FA
  0 Ag    19.0982    19.0000    -0.0982     1.0808     1.0808     0.0000
  1 Ag    18.4509    19.0000     0.5491     0.7577     0.7577     0.0000
  2 Ag    18.4509    19.0000     0.5491     0.7577     0.7577     0.0000

  Mayer bond orders larger than 0.100000
B(  0-Ag,  1-Ag) :   0.5404 B(  0-Ag,  2-Ag) :   0.5404 B(  1-Ag,  2-Ag) :   0.2173 


-------
TIMINGS
-------

Total SCF time: 0 days 0 hours 0 min 5 sec 

Total time                  ....       5.071 sec
Sum of individual times     ....       4.945 sec  ( 97.5%)

Fock matrix formation       ....       3.269 sec  ( 64.5%)
  XC integration            ....       0.614 sec  ( 18.8% of F)
    Basis function eval.    ....       0.045 sec  (  7.2% of XC)
    Density eval.           ....       0.027 sec  (  4.4% of XC)
    XC-Functional eval.     ....       0.013 sec  (  2.2% of XC)
    XC-Potential eval.      ....       0.042 sec  (  6.8% of XC)
Diagonalization             ....       0.045 sec  (  0.9%)
Density matrix formation    ....       0.008 sec  (  0.2%)
Population analysis         ....       0.006 sec  (  0.1%)
Initial guess               ....       1.249 sec  ( 24.6%)
Orbital Transformation      ....       0.000 sec  (  0.0%)
Orbital Orthonormalization  ....       0.000 sec  (  0.0%)
DIIS solution               ....       0.021 sec  (  0.4%)
Grid generation             ....       0.346 sec  (  6.8%)


           ************************************************************
           *        Program running with 24 parallel MPI-processes    *
           *              working on a common directory               *
           ************************************************************

------------------------------------------------------------------------------
                                ORCA  MP2 
------------------------------------------------------------------------------

Freezing NCore=0 chemical core electrons

-------------
RI-MP2 ENERGY
-------------
Dimension of the basis                    ...  168
Memory devoted to MP2                     ... 5000 MB   
Data format for buffers                   ... DOUBLE
Compression type for matrix containers    ... UNCOMPRESSED
Scaling for aa/bb pairs                   ...   4.000e-01
Scaling for ab pairs                      ...   4.700e-01
Overall scaling of the MP2 energy         ...   1.000e+00
Calculating two index integrals           ... done (    0.011 sec)
Cholesky decomposition of V**-1           ... done (    0.020 sec)

-----------------
RI-TRANSFORMATION (AUX index driven)
-----------------

Dimension of the orbital-basis         ... 168
Dimension of the aux-basis             ... 528
Transformation of internal/external MOs...    0-  27 to   28- 167
Number Format for Storage              ... Double (8 Byte)
Integral mode                          ... Direct

First Phase: integral generation and transformation of MO indices
  Aux angular momentum 0               ... done (    0.001 sec)
  Aux angular momentum 1               ... done (    0.001 sec)
  Aux angular momentum 2               ... done (    0.002 sec)
  Aux angular momentum 3               ... done (    0.003 sec)
  Aux angular momentum 4               ... done (    0.004 sec)
  Aux angular momentum 5               ... done (    0.006 sec)
  Aux angular momentum 6               ... done (    0.009 sec)
Closing buffer VIA ( 0.02 GB; CompressionRatio= 1.00)
  Phase 1 completed in     0.115 sec
Second Phase: sorting and transformation of aux index

IA-Transformation
Memory available                       ... 4996 MB 
Max. # MO pairs treated in a batch     ... 2    
# of internal orbitals                 ... 28
# batches for internal orbitals        ... 1
Closing buffer IAV ( 0.00 GB; CompressionRatio= 1.00)
(ia|v) transformation done in     0.011 sec

  Phase 2 completed in     0.026 sec
RI-Integral transformation completed in     0.142 sec
Opening buffers                              ... done

Starting loop over batches of integrals:

Operator 0  - window                       ... (  0- 27)x( 28-167)
Operator 0  - Memory available             ...  5000 MB
Operator 0  - Memory needed per MO         ...   0.6 MB
Operator 0  - Number of orbitals per batch ... 2
Operator 0  - Number of batches            ... 1

OPERATOR  0   PASS   0:  MOs     0 ...    1 +    2 ...    3 +    4 ...    5 +    6 ...    7
                            +    8 ...    9 +   10 ...   11 +   12 ...   13 +   14 ...   15
                            +   16 ...   17 +   18 ...   19 +   20 ...   21 +   22 ...   23
                            +   24 ...   25 +   26 ...   27
  Reading integrals       ... ok
Time spent in pair loops =     0.003 sec

-----------------------------------------------
 RI-MP2 CORRELATION ENERGY:     -0.970612734 Eh
-----------------------------------------------


-------
TIMINGS
-------

Total time                :    0.221 sec
Integral trafo            :    0.157 sec ( 71.1%)
I/O of integrals          :    0.001 sec (  0.3%)
K(i,j) Operators          :    0.001 sec (  0.6%)
T(i,j) pair energies      :    0.000 sec (  0.1%)
V-calculation             :    0.011 sec (  5.0%)
V**(-1/2)                 :    0.020 sec (  9.1%)
Gamma(ia|P)               :    0.000 sec (  0.0%)
Gamma-Trafo               :    0.000 sec (  0.0%)
D(virtual)                :    0.000 sec (  0.0%)
D(internal)               :    0.000 sec (  0.0%)
W(virtual)                :    0.000 sec (  0.0%)
W(internal)               :    0.000 sec (  0.0%)
L(virtual)                :    0.000 sec (  0.0%)
L(internal)               :    0.000 sec (  0.0%)
G(D)                      :    0.000 sec (  0.0%)
G(Z)                      :    0.000 sec (  0.0%)
Z-Vector Solution         :    0.000 sec (  0.0%)
Z-Vector Solution         :    0.000 sec (  0.0%)
3-Index Derivative 
+ Separable RIJ part      :    0.000 sec (  0.0%)
2-Index Derivative 
+ Separable RIJ part      :    0.000 sec (  0.0%)
Separable Gradient (X)    :    0.000 sec (  0.0%)


---------------------------------------
MP2 TOTAL ENERGY:     -440.371766550 Eh
---------------------------------------


-------------------------------------------------------------------------------
                          DFT DISPERSION CORRECTION                            
                                                                               
                              DFTD3 V3.1  Rev 1                                
                          USING Becke-Johnson damping                          
-------------------------------------------------------------------------------
The DSD-BLYP/2013 functional is recognized
Active option DFTDOPT                   ...         4   

molecular C6(AA) [au] = 2440.326272 


            DFT-D V3
 parameters
 s6 scaling factor         :     0.5700 
 a1 scaling factor         :     0.0000 
 s8 scaling factor         :     0.0000 
 a2 scaling factor         :     5.4000 
 ad hoc parameters k1-k3   :    16.0000     1.3333    -4.0000 

 Edisp/kcal,au: -4.955563821866  -0.007897192788 
 E6   /kcal   :  -4.955563822 
 E8   /kcal   :  -0.000000000 
 % E8         :   0.000000000 

-------------------------   ----------------
Dispersion correction           -0.007897193
-------------------------   ----------------


-------------------------   --------------------
FINAL SINGLE POINT ENERGY      -440.379663742517
-------------------------   --------------------


                            ***************************************
                            *     ORCA property calculations      *
                            ***************************************


  WARNING: The energy has been calculated at the MP2 level but the densities
           used in the property calculations are still SCF densities
           MP2 response densities have not been calculated 
           use %mp2 Density relaxed end
           or  %mp2 Density unrelaxed end

                                    ---------------------
                                    Active property flags
                                    ---------------------
   (+) Dipole Moment


------------------------------------------------------------------------------
                       ORCA ELECTRIC PROPERTIES CALCULATION
------------------------------------------------------------------------------

Dipole Moment Calculation                       ... on
Quadrupole Moment Calculation                   ... off
Polarizability Calculation                      ... off
GBWName                                         ... Ag03C1_LIN.gbw
Electron density file                           ... Ag03C1_LIN.scfp
The origin for moment calculation is the CENTER OF MASS  = ( 0.000000,  0.000000  0.000000)

-------------
DIPOLE MOMENT
-------------
                                X             Y             Z
Electronic contribution:      0.00000       0.00000       0.00000
Nuclear contribution   :      0.00000       0.00000       0.00000
                        -----------------------------------------
Total Dipole Moment    :      0.00000       0.00000       0.00000
                        -----------------------------------------
Magnitude (a.u.)       :      0.00000
Magnitude (Debye)      :      0.00000



--------------------
Rotational spectrum 
--------------------
 
Rotational constants in cm-1:     0.000000     0.011303     0.011303 
Rotational constants in MHz :     0.000000   338.844445   338.844445 

 Dipole components along the rotational axes: 
x,y,z [a.u.] :     0.000000     0.000000     0.000000 
x,y,z [Debye]:     0.000000     0.000000     0.000000 

 

Timings for individual modules:

Sum of individual times         ...        7.065 sec (=   0.118 min)
GTO integral calculation        ...        0.984 sec (=   0.016 min)  13.9 %
SCF iterations                  ...        5.409 sec (=   0.090 min)  76.6 %
MP2 module                      ...        0.672 sec (=   0.011 min)   9.5 %
                             ****ORCA TERMINATED NORMALLY****
TOTAL RUN TIME: 0 days 0 hours 0 minutes 7 seconds 579 msec
