
                                 *****************
                                 * O   R   C   A *
                                 *****************

           --- An Ab Initio, DFT and Semiempirical electronic structure package ---

                  #######################################################
                  #                        -***-                        #
                  #          Department of theory and spectroscopy      #
                  #               Directorship: Frank Neese             #
                  #        Max Planck Institute fuer Kohlenforschung    #
                  #                Kaiser Wilhelm Platz 1               #
                  #                 D-45470 Muelheim/Ruhr               #
                  #                      Germany                        #
                  #                                                     #
                  #                  All rights reserved                #
                  #                        -***-                        #
                  #######################################################


                         Program Version 4.2.0 -  RELEASE  -


 With contributions from (in alphabetic order):
   Daniel Aravena         : Magnetic Suceptibility
   Michael Atanasov       : Ab Initio Ligand Field Theory (pilot matlab implementation)
   Alexander A. Auer      : GIAO ZORA, VPT2
   Ute Becker             : Parallelization
   Giovanni Bistoni       : ED, misc. LED, open-shell LED, HFLED
   Martin Brehm           : Molecular dynamics
   Dmytro Bykov           : SCF Hessian
   Vijay G. Chilkuri      : MRCI spin determinant printing, contributions to CSF-ICE
   Dipayan Datta          : RHF DLPNO-CCSD density
   Achintya Kumar Dutta   : EOM-CC, STEOM-CC
   Dmitry Ganyushin       : Spin-Orbit,Spin-Spin,Magnetic field MRCI
   Miquel Garcia          : C-PCM Hessian, Gaussian charge scheme
   Yang Guo               : DLPNO-NEVPT2, CIM, IAO-localization
   Andreas Hansen         : Spin unrestricted coupled pair/coupled cluster methods
   Benjamin Helmich-Paris : CASSCF linear response (MC-RPA)
   Lee Huntington         : MR-EOM, pCC
   Robert Izsak           : Overlap fitted RIJCOSX, COSX-SCS-MP3, EOM
   Christian Kollmar      : KDIIS, OOCD, Brueckner-CCSD(T), CCSD density
   Simone Kossmann        : Meta GGA functionals, TD-DFT gradient, OOMP2, MP2 Hessian
   Martin Krupicka        : AUTO-CI
   Lucas Lang             : DCDCAS
   Dagmar Lenk            : GEPOL surface, SMD
   Dimitrios Liakos       : Extrapolation schemes; Compound Job, initial MDCI parallelization
   Dimitrios Manganas     : Further ROCIS development; embedding schemes
   Dimitrios Pantazis     : SARC Basis sets
   Taras Petrenko         : DFT Hessian,TD-DFT gradient, ASA, ECA, R-Raman, ABS, FL, XAS/XES, NRVS
   Peter Pinski           : DLPNO-MP2, DLPNO-MP2 Gradient
   Christoph Reimann      : Effective Core Potentials
   Marius Retegan         : Local ZFS, SOC
   Christoph Riplinger    : Optimizer, TS searches, QM/MM, DLPNO-CCSD(T), (RO)-DLPNO pert. Triples
   Tobias Risthaus        : Range-separated hybrids, TD-DFT gradient, RPA, STAB
   Michael Roemelt        : Original ROCIS implementation
   Masaaki Saitow         : Open-shell DLPNO-CCSD energy and density
   Barbara Sandhoefer     : DKH picture change effects
   Avijit Sen             : IP-ROCIS
   Kantharuban Sivalingam : CASSCF convergence, NEVPT2, FIC-MRCI
   Bernardo de Souza      : ESD, SOC TD-DFT
   Georgi Stoychev        : AutoAux, RI-MP2 NMR
   Willem Van den Heuvel  : Paramagnetic NMR
   Boris Wezisla          : Elementary symmetry handling
   Frank Wennmohs         : Technical directorship


 We gratefully acknowledge several colleagues who have allowed us to
 interface, adapt or use parts of their codes:
   Stefan Grimme, W. Hujo, H. Kruse,             : VdW corrections, initial TS optimization,
                  C. Bannwarth                     DFT functionals, gCP, sTDA/sTD-DF
   Ed Valeev, F. Pavosevic, A. Kumar             : LibInt (2-el integral package), F12 methods
   Garnet Chan, S. Sharma, J. Yang, R. Olivares  : DMRG
   Ulf Ekstrom                                   : XCFun DFT Library
   Mihaly Kallay                                 : mrcc  (arbitrary order and MRCC methods)
   Andreas Klamt, Michael Diedenhofen            : otool_cosmo (COSMO solvation model)
   Jiri Pittner, Ondrej Demel                    : Mk-CCSD
   Frank Weinhold                                : gennbo (NPA and NBO analysis)
   Christopher J. Cramer and Donald G. Truhlar   : smd solvation model
   Lars Goerigk                                  : TD-DFT with DH, B97 family of functionals
   V. Asgeirsson, H. Jonsson                     : NEB implementation
   FAccTs GmbH                                   : IRC, NEB, NEB-TS, Multilevel, MM, QM/MM, CI optimization
   S Lehtola, MJT Oliveira, MAL Marques          : LibXC Library


 Your calculation uses the libint2 library for the computation of 2-el integrals
 For citations please refer to: http://libint.valeyev.net

 Your ORCA version has been built with support for libXC version: 4.2.3
 For citations please refer to: https://tddft.org/programs/libxc/

 This ORCA versions uses:
   CBLAS   interface :  Fast vector & matrix operations
   LAPACKE interface :  Fast linear algebra routines
   SCALAPACK package :  Parallel linear algebra routines


Your calculation utilizes the atom-pairwise dispersion correction
with the Becke-Johnson damping scheme (D3BJ)
Cite in your paper:
S.Grimme, S.Ehrlich, L.Goerigk, J Comput Chem, (2011), 32, 1456–1465 
S.Grimme, J.Antony, S.Ehrlich and H.Krieg, J.Chem.Phys., 132, (2010), 154104 
   

----- Orbital basis set information -----
Your calculation utilizes the basis: def2-TZVPPD
   F. Weigend and R. Ahlrichs, Phys. Chem. Chem. Phys. 7, 3297 (2005).
   D. Rappoport and F. Furche, J. Chem. Phys. 133 134105 (2010).

----- AuxC basis set information -----
Your calculation utilizes the auxiliary basis: def2-TZVPPD/C
   A. Hellweg, C. Hattig, S. Hofener and W. Klopper, Theor. Chem. Acc. 117, 587 (2007).

----- AuxJK basis set information -----
Your calculation utilizes the auxiliary basis: def2/JK
   H-Ba, Hf-Rn: F. Weigend, J. Comput. Chem. 29, 167 (2008).

cite the ECPs for Ag [Def2-ECP] as follows:
Ce-Yb(ecp-28): M. Dolg, H. Stoll, H.Preuss, J. Chem. Phys., 1989, 90, 1730-1734.
Y-Cd(ecp-28), Hf-Hg(ecp-46): D. Andrae,U. Haeussermann, M. Dolg, H. Stoll, H. Preuss, Theor. Chim. Acta, 1990, 77, 123-141.
In-Sb(ecp-28), Tl-Bi(ecp-46): B. Metz, H. Stoll, M. Dolg, J. Chem. Phys., 2000, 113, 2563-2569.
Te-Xe(ecp-28), Po-Rn(ecp-46): K. A. Peterson, D. Figgen, E. Goll, H. Stoll, M. Dolg, J. Chem. Phys., 2003, 119, 11113-11123.
Rb(ecp-28), Cs(ecp-46): T. Leininger, A. Nicklass, W. Kuechle, H. Stoll, M. Dolg, A. Bergner, Chem. Phys. Lett., 1996, 255, 274-280.
Sr(ecp-28), Ba(ecp-46): M. Kaupp, P. V. Schleyer, H. Stoll and H. Preuss, J. Chem. Phys., 1991, 94, 1360-1366.
La(ecp-46): M. Dolg, H. Stoll, A. Savin, H. Preuss, Theor. Chim. Acta, 1989, 75, 173-194.
Lu(ecp-28): X. Cao, M. Dolg, J. Chem. Phys., 2001, 115, 7348-7355.

ECP parameters for Ag [Def2-ECP] have been obtained from:
TURBOMOLE (7.0.2)

================================================================================
                                        WARNINGS
                       Please study these warnings very carefully!
================================================================================


WARNING: No MP2 level density has been requested!
         To caclulate MP2 level properties use
         %mp2 Density relaxed end
         or
         %mp2 Density unrelaxed end
         Otherwise for double-hybrid DFT only the energy is correct!

WARNING: There are different parametrizations of Gershom Martin's DSD-DFs
         for use with and without D3(BJ)!
         You are using the D3(BJ) parametrized version,
         consistent with the 2013 article (S. Kozuch and J. M. L. Martin, JCC 2013, 34, 2327)

WARNING: The frozen-core approximation is turned on by default for 
         the MP2 part of double-hybrid DFT.

INFO   : the flag for use of LIBINT has been found!

================================================================================
                                       INPUT FILE
================================================================================
NAME = Ag04C2_NH3_A.in
|  1> #
|  2> # Ag04C2_NH3_A ri-DSD-BLYP/2013-D3BJ/Def2-TZVPPD
|  3> #
|  4> ! rijk ri-dsd-blyp/2013 d3bj def2-tzvppd def2/jk def2-tzvppd/c grid4 nofinalgrid
|  5> 
|  6> *xyz 2 1
|  7> Ag      -0.268639    1.507918    0.000000 
|  8> Ag       1.705052   -0.492854   -0.000000 
|  9> Ag      -0.647170   -0.911099    1.379441 
| 10> Ag      -0.647170   -0.911099   -1.379441 
| 11> N       -0.647170    3.675657    0.000000 
| 12> H       -0.250844    4.149729    0.817426 
| 13> H       -0.250844    4.149729   -0.817426 
| 14> H       -1.645581    3.906275    0.000000 
| 15> *
| 16> 
| 17> %maxcore 5000
| 18> 
| 19> %pal
| 20> nprocs = 24
| 21> end
| 22> 
| 23> 
| 24>                          ****END OF INPUT****
================================================================================

                       ****************************
                       * Single Point Calculation *
                       ****************************

---------------------------------
CARTESIAN COORDINATES (ANGSTROEM)
---------------------------------
  Ag    -0.268639    1.507918    0.000000
  Ag     1.705052   -0.492854   -0.000000
  Ag    -0.647170   -0.911099    1.379441
  Ag    -0.647170   -0.911099   -1.379441
  N     -0.647170    3.675657    0.000000
  H     -0.250844    4.149729    0.817426
  H     -0.250844    4.149729   -0.817426
  H     -1.645581    3.906275    0.000000

----------------------------
CARTESIAN COORDINATES (A.U.)
----------------------------
  NO LB      ZA    FRAG     MASS         X           Y           Z
   0 Ag   19.0000*   0   107.870   -0.507654    2.849552    0.000000
   1 Ag   19.0000*   0   107.870    3.222081   -0.931359   -0.000000
   2 Ag   19.0000*   0   107.870   -1.222974   -1.721728    2.606766
   3 Ag   19.0000*   0   107.870   -1.222974   -1.721728   -2.606766
   4 N     7.0000    0    14.007   -1.222974    6.945985    0.000000
   5 H     1.0000    0     1.008   -0.474026    7.841851    1.544711
   6 H     1.0000    0     1.008   -0.474026    7.841851   -1.544711
   7 H     1.0000    0     1.008   -3.109697    7.381790    0.000000
* core charge reduced due to ECP

--------------------------------
INTERNAL COORDINATES (ANGSTROEM)
--------------------------------
 Ag     0   0   0     0.000000000000     0.00000000     0.00000000
 Ag     1   0   0     2.810434976915     0.00000000     0.00000000
 Ag     2   1   0     2.758756004033    60.60322075     0.00000000
 Ag     2   1   3     2.758756004033    60.60322075    70.04806330
 N      1   2   3     2.200540408646   145.29552250   144.97596835
 H      5   1   2     1.024696942972   112.90585165   300.00135613
 H      5   1   2     1.024696942972   112.90585165    59.99864387
 H      5   1   2     1.024699559308   112.91148512   180.00000000

---------------------------
INTERNAL COORDINATES (A.U.)
---------------------------
 Ag     0   0   0     0.000000000000     0.00000000     0.00000000
 Ag     1   0   0     5.310952423562     0.00000000     0.00000000
 Ag     2   1   0     5.213293317934    60.60322075     0.00000000
 Ag     2   1   3     5.213293317934    60.60322075    70.04806330
 N      1   2   3     4.158418718967   145.29552250   144.97596835
 H      5   1   2     1.936396592483   112.90585165   300.00135613
 H      5   1   2     1.936396592483   112.90585165    59.99864387
 H      5   1   2     1.936401536641   112.91148512   180.00000000

---------------------
BASIS SET INFORMATION
---------------------
There are 3 groups of distinct atoms

 Group   1 Type Ag  : 7s7p6d2f1g contracted to 6s4p3d2f1g pattern {211111/4111/411/11/1}
 Group   2 Type N   : 12s6p3d1f contracted to 6s3p3d1f pattern {621111/411/111/1}
 Group   3 Type H   : 5s3p1d contracted to 3s3p1d pattern {311/111/1}

Atom   0Ag   basis set group =>   1
Atom   1Ag   basis set group =>   1
Atom   2Ag   basis set group =>   1
Atom   3Ag   basis set group =>   1
Atom   4N    basis set group =>   2
Atom   5H    basis set group =>   3
Atom   6H    basis set group =>   3
Atom   7H    basis set group =>   3
---------------------------------
AUXILIARY/C BASIS SET INFORMATION
---------------------------------
There are 3 groups of distinct atoms

 Group   1 Type Ag  : 8s7p6d5f4g3h1i contracted to 8s7p6d5f4g3h1i pattern {11111111/1111111/111111/11111/1111/111/1}
 Group   2 Type N   : 9s7p6d4f1g contracted to 9s7p5d4f1g pattern {111111111/1111111/21111/1111/1}
 Group   3 Type H   : 5s4p3d1f contracted to 5s4p3d1f pattern {11111/1111/111/1}

Atom   0Ag   basis set group =>   1
Atom   1Ag   basis set group =>   1
Atom   2Ag   basis set group =>   1
Atom   3Ag   basis set group =>   1
Atom   4N    basis set group =>   2
Atom   5H    basis set group =>   3
Atom   6H    basis set group =>   3
Atom   7H    basis set group =>   3
----------------------------------
AUXILIARY/JK BASIS SET INFORMATION
----------------------------------
There are 3 groups of distinct atoms

 Group   1 Type Ag  : 13s12p10d9f6g3h2i contracted to 11s10p9d8f6g3h2i pattern {31111111111/3111111111/211111111/21111111/111111/111/11}
 Group   2 Type N   : 14s10p6d2f1g contracted to 10s8p4d2f1g pattern {5111111111/31111111/3111/11/1}
 Group   3 Type H   : 4s2p2d contracted to 2s2p2d pattern {31/11/11}

Atom   0Ag   basis set group =>   1
Atom   1Ag   basis set group =>   1
Atom   2Ag   basis set group =>   1
Atom   3Ag   basis set group =>   1
Atom   4N    basis set group =>   2
Atom   5H    basis set group =>   3
Atom   6H    basis set group =>   3
Atom   7H    basis set group =>   3
-------------------------
ECP PARAMETER INFORMATION
-------------------------

 Group 1, Type Ag ECP Def2-ECP (replacing 28 core electrons, lmax=3)

Atom   0Ag   ECP group =>   1
Atom   1Ag   ECP group =>   1
Atom   2Ag   ECP group =>   1
Atom   3Ag   ECP group =>   1



           ************************************************************
           *        Program running with 24 parallel MPI-processes    *
           *              working on a common directory               *
           ************************************************************
------------------------------------------------------------------------------
                           ORCA GTO INTEGRAL CALCULATION
                           -- RI-GTO INTEGRALS CHOSEN --
------------------------------------------------------------------------------

                         BASIS SET STATISTICS AND STARTUP INFO

Gaussian basis set:
 # of primitive gaussian shells          ...  141
 # of primitive gaussian functions       ...  433
 # of contracted shells                  ...   98
 # of contracted basis functions         ...  312
 Highest angular momentum                ...    4
 Maximum contraction depth               ...    6
Auxiliary gaussian basis set:
 # of primitive gaussian shells          ...  277
 # of primitive gaussian functions       ... 1257
 # of contracted shells                  ...  239
 # of contracted aux-basis functions     ... 1151
 Highest angular momentum                ...    6
 Maximum contraction depth               ...    5
Ratio of auxiliary to basis functions    ...  3.69
Integral package used                  ... LIBINT
 One Electron integrals                  
   ECP integrals                         ... done
 Ordering auxiliary basis shells         ... done
 Integral threshhold             Thresh  ...  1.000e-10
 Primitive cut-off               TCut    ...  1.000e-11
 Pre-screening matrix                    ... done
 Shell pair data                         ... 
 Ordering of the shell pairs             ... done (   0.001 sec) 4223 of 4851 pairs
 Determination of significant pairs      ... done (   0.000 sec)
 Creation of shell pair data             ... done (   0.000 sec)
 Storage of shell pair data              ... done (   0.009 sec)
 Shell pair data done in (   0.010 sec)
 Computing two index integrals           ... done
 Cholesky decomposition of the V-matrix  ... done


Timings:
 Total evaluation time                   ...   1.616 sec (  0.027 min)
 One electron matrix time                ...   1.017 sec (  0.017 min) = 62.9%
 Schwartz matrix evaluation time         ...   0.204 sec (  0.003 min) = 12.6%
 Two index repulsion integral time       ...   0.272 sec (  0.005 min) = 16.8%
 Cholesky decomposition of V             ...   0.060 sec (  0.001 min) =  3.7%
 Three index repulsion integral time     ...   0.000 sec (  0.000 min) =  0.0%



           ************************************************************
           *        Program running with 24 parallel MPI-processes    *
           *              working on a common directory               *
           ************************************************************
-------------------------------------------------------------------------------
                                 ORCA SCF
-------------------------------------------------------------------------------

------------
SCF SETTINGS
------------
Hamiltonian:
 Density Functional     Method          .... DFT(GTOs)
 Exchange Functional    Exchange        .... B88
   X-Alpha parameter    XAlpha          ....  0.666667
   Becke's b parameter  XBeta           ....  0.004200
 Correlation Functional Correlation     .... LYP
 LDA part of GGA corr.  LDAOpt          .... VWN-5
 Gradients option       PostSCFGGA      .... off
 Hybrid DFT is turned on
   Fraction HF Exchange ScalHFX         ....  0.710000
   Scaling of DF-GGA-X  ScalDFX         ....  0.290000
   Scaling of DF-GGA-C  ScalDFC         ....  0.540000
   Scaling of DF-LDA-C  ScalLDAC        ....  0.540000
   Perturbative correction              ....  1.000000
   Density functional embedding theory  .... OFF
 RI-approximation to the Coulomb term is turned on
   Number of auxiliary basis functions  .... 1151
   RI-JK (J+K treated both via RI)      .... on


General Settings:
 Integral files         IntName         .... Ag04C2_NH3_A
 Hartree-Fock type      HFTyp           .... RHF
 Total Charge           Charge          ....    2
 Multiplicity           Mult            ....    1
 Number of Electrons    NEL             ....   84
 Basis Dimension        Dim             ....  312
 Nuclear Repulsion      ENuc            ....    527.7252334619 Eh

Convergence Acceleration:
 DIIS                   CNVDIIS         .... on
   Start iteration      DIISMaxIt       ....    12
   Startup error        DIISStart       ....  0.200000
   # of expansion vecs  DIISMaxEq       ....     5
   Bias factor          DIISBfac        ....   1.050
   Max. coefficient     DIISMaxC        ....  10.000
 Newton-Raphson         CNVNR           .... off
 SOSCF                  CNVSOSCF        .... off
 Level Shifting         CNVShift        .... on
   Level shift para.    LevelShift      ....    0.2500
   Turn off err/grad.   ShiftErr        ....    0.0010
 Zerner damping         CNVZerner       .... off
 Static damping         CNVDamp         .... on
   Fraction old density DampFac         ....    0.7000
   Max. Damping (<1)    DampMax         ....    0.9800
   Min. Damping (>=0)   DampMin         ....    0.0000
   Turn off err/grad.   DampErr         ....    0.1000
 Fernandez-Rico         CNVRico         .... off

SCF Procedure:
 Maximum # iterations   MaxIter         ....   125
 SCF integral mode      SCFMode         .... Direct
   Integral package                     .... LIBINT
 Reset frequency        DirectResetFreq ....    20
 Integral Threshold     Thresh          ....  1.000e-10 Eh
 Primitive CutOff       TCut            ....  1.000e-11 Eh

Convergence Tolerance:
 Convergence Check Mode ConvCheckMode   .... Total+1el-Energy
 Convergence forced     ConvForced      .... 0
 Energy Change          TolE            ....  1.000e-06 Eh
 1-El. energy change                    ....  1.000e-03 Eh
 DIIS Error             TolErr          ....  1.000e-06


Diagonalization of the overlap matrix:
Smallest eigenvalue                        ... 2.012e-04
Time for diagonalization                   ...    0.012 sec
Threshold for overlap eigenvalues          ... 1.000e-08
Number of eigenvalues below threshold      ... 0
Time for construction of square roots      ...    0.011 sec
Total time needed                          ...    0.024 sec

-------------------
DFT GRID GENERATION
-------------------

General Integration Accuracy     IntAcc      ...  4.670
Radial Grid Type                 RadialGrid  ... Gauss-Chebyshev
Angular Grid (max. acc.)         AngularGrid ... Lebedev-302
Angular grid pruning method      GridPruning ... 3 (G Style)
Weight generation scheme         WeightScheme... Becke
Basis function cutoff            BFCut       ...    1.0000e-10
Integration weight cutoff        WCut        ...    1.0000e-14
Grids for H and He will be reduced by one unit

# of grid points (after initial pruning)     ...  59026 (   0.0 sec)
# of grid points (after weights+screening)   ...  57099 (   0.0 sec)
nearest neighbour list constructed           ...    0.0 sec
Grid point re-assignment to atoms done       ...    0.0 sec
Grid point division into batches done        ...    0.4 sec
Reduced shell lists constructed in    0.4 sec

Total number of grid points                  ...    57099
Total number of batches                      ...      896
Average number of points per batch           ...       63
Average number of grid points per atom       ...     7137
Average number of shells per batch           ...    66.36 (67.71%)
Average number of basis functions per batch  ...   211.18 (67.69%)
Average number of large shells per batch     ...    53.03 (79.91%)
Average number of large basis fcns per batch ...   162.31 (76.86%)
Average number of aux-shells per batch       ...    66.36 (27.77%)
Average number of aux functions per batch    ...   211.18 (18.35%)
Maximum spatial batch extension              ...   4.09,  2.73,  4.73 au
Average spatial batch extension              ...   0.10,  0.09,  0.09 au

Time for grid setup =    0.487 sec

------------------------------
INITIAL GUESS: MODEL POTENTIAL
------------------------------
Loading Hartree-Fock densities                     ... done
  calling /sw/apps/orca/orca_4_2_0_linux_x86-64_openmpi314/orca Ag04C2_NH3_A_atom47.inp > Ag04C2_NH3_A_atom47.out in order to generate an atomic fitting density for atom 0 (Ag with ECP) on-the-fly... 
    atom 0 (Ag), assumed electronic state with S=2: 1s2 2s2 2p6 3s2 3p6 4s2 3d10 4p6 5s2 4d9           ... done
Calculating cut-offs                               ... done
Setting up the integral package                    ... done
Initializing the effective Hamiltonian             ... done
Starting the Coulomb interaction                   ... done (   0.0 sec)
Reading the grid                                   ... done
Mapping shells                                     ... done
Starting the XC term evaluation                    ... done (   0.0 sec)
  promolecular density results
     # of electrons  =    198.000320224
     EX              =   -583.851007947
     EC              =     -1.335453387
     EX+EC           =   -585.186461334
Transforming the Hamiltonian                       ... done (   0.0 sec)
Diagonalizing the Hamiltonian                      ... done (   0.0 sec)
Back transforming the eigenvectors                 ... done (   0.0 sec)
Now organizing SCF variables                       ... done
                      ------------------
                      INITIAL GUESS DONE (   1.8 sec)
                      ------------------
--------------
SCF ITERATIONS
--------------
ITER       Energy         Delta-E        Max-DP      RMS-DP      [F,P]     Damp
  0   -641.8356756688   0.000000000000 0.09285384  0.00142346  0.4884001 0.7000
  1   -641.4461433020   0.389532366864 0.07769907  0.00122848  0.3490526 0.7000
  2   -641.5824688427  -0.136325540769 0.05953435  0.00078159  0.2327233 0.7000
                               ***Turning on DIIS***
  3   -641.8468383626  -0.264369519853 0.04489056  0.00048468  0.1558538 0.7000
  4   -642.0388049965  -0.191966633922 0.03393678  0.00034920  0.1070938 0.7000
  5   -642.1204059775  -0.081600980941 0.08813794  0.00097748  0.0753104 0.0000
  6   -642.0972590812   0.023146896226 0.00809053  0.00011647  0.0380414 0.0000
  7   -642.0986788985  -0.001419817248 0.00291690  0.00004692  0.0186877 0.0000
  8   -642.0990718446  -0.000392946090 0.00280692  0.00003341  0.0116838 0.0000
  9   -642.0992565676  -0.000184723028 0.00172764  0.00002059  0.0044921 0.0000
 10   -642.0992876604  -0.000031092791 0.00067285  0.00001168  0.0008334 0.0000
 11   -642.0992902869  -0.000002626544 0.00047375  0.00000487  0.0003752 0.0000
 12   -642.0992906715  -0.000000384539 0.00009535  0.00000152  0.0001465 0.0000
                 **** Energy Check signals convergence ****

               *****************************************************
               *                     SUCCESS                       *
               *           SCF CONVERGED AFTER  13 CYCLES          *
               *****************************************************


----------------
TOTAL SCF ENERGY
----------------

Total Energy       :         -642.09929073 Eh          -17472.40998 eV

Components:
Nuclear Repulsion  :          527.72523346 Eh           14360.13366 eV
Electronic Energy  :        -1169.82452419 Eh          -31832.54364 eV
One Electron Energy:        -2147.90920076 Eh          -58447.58077 eV
Two Electron Energy:          978.08467657 Eh           26615.03713 eV

Virial components:
Potential Energy   :         -924.23419160 Eh          -25149.69094 eV
Kinetic Energy     :          282.13490087 Eh            7677.28096 eV
Virial Ratio       :            3.27585913


DFT components:
N(Alpha)           :       42.000015446459 electrons
N(Beta)            :       42.000015446459 electrons
N(Total)           :       84.000030892917 electrons
E(X)               :      -17.729097618727 Eh       
E(C)               :       -1.712769653544 Eh       
E(XC)              :      -19.441867272271 Eh       
DFET-embed. en.    :        0.000000000000 Eh       

---------------
SCF CONVERGENCE
---------------

  Last Energy change         ...   -5.8735e-08  Tolerance :   1.0000e-06
  Last MAX-Density change    ...    8.1879e-05  Tolerance :   1.0000e-05
  Last RMS-Density change    ...    6.2226e-07  Tolerance :   1.0000e-06
  Last DIIS Error            ...    4.1594e-05  Tolerance :   1.0000e-06

             **** THE GBW FILE WAS UPDATED (Ag04C2_NH3_A.gbw) ****
             **** DENSITY FILE WAS UPDATED (Ag04C2_NH3_A.scfp) ****
             **** ENERGY FILE WAS UPDATED (Ag04C2_NH3_A.en.tmp) ****
             **** THE GBW FILE WAS UPDATED (Ag04C2_NH3_A.gbw) ****
             **** DENSITY FILE WAS UPDATED (Ag04C2_NH3_A.scfp) ****
----------------
ORBITAL ENERGIES
----------------

  NO   OCC          E(Eh)            E(eV) 
   0   2.0000     -15.425288      -419.7434 
   1   2.0000      -4.462612      -121.4338 
   2   2.0000      -4.462230      -121.4235 
   3   2.0000      -4.462224      -121.4233 
   4   2.0000      -4.443555      -120.9153 
   5   2.0000      -2.969707       -80.8098 
   6   2.0000      -2.967427       -80.7478 
   7   2.0000      -2.967423       -80.7477 
   8   2.0000      -2.966168       -80.7135 
   9   2.0000      -2.965753       -80.7022 
  10   2.0000      -2.965747       -80.7021 
  11   2.0000      -2.964860       -80.6779 
  12   2.0000      -2.964560       -80.6698 
  13   2.0000      -2.964556       -80.6697 
  14   2.0000      -2.946262       -80.1719 
  15   2.0000      -2.946262       -80.1719 
  16   2.0000      -2.946171       -80.1694 
  17   2.0000      -1.356679       -36.9171 
  18   2.0000      -0.884712       -24.0742 
  19   2.0000      -0.884707       -24.0741 
  20   2.0000      -0.844769       -22.9873 
  21   2.0000      -0.824182       -22.4271 
  22   2.0000      -0.818249       -22.2657 
  23   2.0000      -0.818233       -22.2653 
  24   2.0000      -0.808430       -21.9985 
  25   2.0000      -0.808428       -21.9984 
  26   2.0000      -0.801812       -21.8184 
  27   2.0000      -0.794705       -21.6250 
  28   2.0000      -0.794179       -21.6107 
  29   2.0000      -0.794178       -21.6107 
  30   2.0000      -0.780062       -21.2266 
  31   2.0000      -0.778124       -21.1738 
  32   2.0000      -0.778113       -21.1735 
  33   2.0000      -0.774632       -21.0788 
  34   2.0000      -0.774631       -21.0788 
  35   2.0000      -0.765088       -20.8191 
  36   2.0000      -0.765078       -20.8188 
  37   2.0000      -0.753809       -20.5122 
  38   2.0000      -0.744124       -20.2487 
  39   2.0000      -0.744112       -20.2483 
  40   2.0000      -0.687087       -18.6966 
  41   2.0000      -0.623244       -16.9593 
  42   0.0000      -0.336514        -9.1570 
  43   0.0000      -0.336509        -9.1569 
  44   0.0000      -0.311483        -8.4759 
  45   0.0000      -0.237328        -6.4580 
  46   0.0000      -0.222734        -6.0609 
  47   0.0000      -0.222731        -6.0608 
  48   0.0000      -0.214014        -5.8236 
  49   0.0000      -0.214011        -5.8235 
  50   0.0000      -0.196344        -5.3428 
  51   0.0000      -0.133715        -3.6386 
  52   0.0000      -0.130325        -3.5463 
  53   0.0000      -0.130316        -3.5461 
  54   0.0000      -0.121282        -3.3003 
  55   0.0000      -0.120001        -3.2654 
  56   0.0000      -0.119997        -3.2653 
  57   0.0000      -0.109156        -2.9703 
  58   0.0000      -0.079331        -2.1587 
  59   0.0000      -0.079322        -2.1585 
  60   0.0000      -0.057017        -1.5515 
  61   0.0000      -0.056877        -1.5477 
  62   0.0000      -0.056227        -1.5300 
  63   0.0000      -0.043880        -1.1940 
  64   0.0000      -0.019069        -0.5189 
  65   0.0000      -0.019057        -0.5186 
  66   0.0000      -0.012396        -0.3373 
  67   0.0000      -0.006617        -0.1801 
  68   0.0000      -0.006537        -0.1779 
  69   0.0000      -0.001064        -0.0289 
  70   0.0000      -0.001052        -0.0286 
  71   0.0000       0.009645         0.2625 
  72   0.0000       0.045412         1.2357 
  73   0.0000       0.056395         1.5346 
  74   0.0000       0.056663         1.5419 
  75   0.0000       0.086386         2.3507 
  76   0.0000       0.101875         2.7722 
  77   0.0000       0.101951         2.7742 
  78   0.0000       0.113251         3.0817 
  79   0.0000       0.114048         3.1034 
  80   0.0000       0.126265         3.4358 
  81   0.0000       0.126362         3.4385 
  82   0.0000       0.131202         3.5702 
  83   0.0000       0.149015         4.0549 
  84   0.0000       0.149062         4.0562 
  85   0.0000       0.172077         4.6825 
  86   0.0000       0.179599         4.8871 
  87   0.0000       0.179842         4.8938 
  88   0.0000       0.225964         6.1488 
  89   0.0000       0.227782         6.1983 
  90   0.0000       0.227782         6.1983 
  91   0.0000       0.284963         7.7542 
  92   0.0000       0.285145         7.7592 
  93   0.0000       0.298445         8.1211 
  94   0.0000       0.303902         8.2696 
  95   0.0000       0.307214         8.3597 
  96   0.0000       0.307659         8.3718 
  97   0.0000       0.333510         9.0753 
  98   0.0000       0.333765         9.0822 
  99   0.0000       0.353060         9.6072 
 100   0.0000       0.391635        10.6569 
 101   0.0000       0.391734        10.6596 
 102   0.0000       0.441450        12.0125 
 103   0.0000       0.441595        12.0164 
 104   0.0000       0.444017        12.0823 
 105   0.0000       0.466693        12.6994 
 106   0.0000       0.466806        12.7024 
 107   0.0000       0.505584        13.7576 
 108   0.0000       0.514492        14.0001 
 109   0.0000       0.533695        14.5226 
 110   0.0000       0.533825        14.5261 
 111   0.0000       0.557277        15.1643 
 112   0.0000       0.557317        15.1654 
 113   0.0000       0.563536        15.3346 
 114   0.0000       0.613443        16.6926 
 115   0.0000       0.714170        19.4336 
 116   0.0000       0.714719        19.4485 
 117   0.0000       0.733324        19.9548 
 118   0.0000       0.911085        24.7919 
 119   0.0000       0.955002        25.9869 
 120   0.0000       0.955058        25.9884 
 121   0.0000       1.020209        27.7613 
 122   0.0000       1.020442        27.7676 
 123   0.0000       1.036326        28.1999 
 124   0.0000       1.073618        29.2146 
 125   0.0000       1.073625        29.2148 
 126   0.0000       1.290250        35.1095 
 127   0.0000       1.336193        36.3597 
 128   0.0000       1.367257        37.2050 
 129   0.0000       1.367304        37.2062 
 130   0.0000       1.397287        38.0221 
 131   0.0000       1.401966        38.1494 
 132   0.0000       1.401995        38.1502 
 133   0.0000       1.414451        38.4892 
 134   0.0000       1.414452        38.4892 
 135   0.0000       1.425966        38.8025 
 136   0.0000       1.432034        38.9676 
 137   0.0000       1.433392        39.0046 
 138   0.0000       1.435705        39.0675 
 139   0.0000       1.435721        39.0680 
 140   0.0000       1.449460        39.4418 
 141   0.0000       1.449484        39.4425 
 142   0.0000       1.459416        39.7127 
 143   0.0000       1.461262        39.7630 
 144   0.0000       1.461455        39.7682 
 145   0.0000       1.468084        39.9486 
 146   0.0000       1.475477        40.1498 
 147   0.0000       1.475673        40.1551 
 148   0.0000       1.476131        40.1676 
 149   0.0000       1.486056        40.4376 
 150   0.0000       1.490553        40.5600 
 151   0.0000       1.490695        40.5639 
 152   0.0000       1.507143        41.0114 
 153   0.0000       1.507450        41.0198 
 154   0.0000       1.525778        41.5185 
 155   0.0000       1.544236        42.0208 
 156   0.0000       1.544260        42.0215 
 157   0.0000       1.558545        42.4102 
 158   0.0000       1.612938        43.8903 
 159   0.0000       1.613056        43.8935 
 160   0.0000       1.629577        44.3430 
 161   0.0000       1.629592        44.3434 
 162   0.0000       1.646496        44.8034 
 163   0.0000       1.647905        44.8418 
 164   0.0000       1.648060        44.8460 
 165   0.0000       1.723858        46.9086 
 166   0.0000       1.723889        46.9094 
 167   0.0000       1.728417        47.0326 
 168   0.0000       1.764745        48.0212 
 169   0.0000       1.792223        48.7689 
 170   0.0000       1.792304        48.7711 
 171   0.0000       1.878988        51.1299 
 172   0.0000       1.959983        53.3338 
 173   0.0000       1.971639        53.6510 
 174   0.0000       1.971732        53.6536 
 175   0.0000       1.989662        54.1414 
 176   0.0000       1.999530        54.4100 
 177   0.0000       1.999606        54.4120 
 178   0.0000       2.027935        55.1829 
 179   0.0000       2.031987        55.2932 
 180   0.0000       2.032069        55.2954 
 181   0.0000       2.073919        56.4342 
 182   0.0000       2.073935        56.4346 
 183   0.0000       2.075670        56.4818 
 184   0.0000       2.087328        56.7991 
 185   0.0000       2.087330        56.7991 
 186   0.0000       2.101869        57.1948 
 187   0.0000       2.108728        57.3814 
 188   0.0000       2.108886        57.3857 
 189   0.0000       2.140190        58.2375 
 190   0.0000       2.322843        63.2078 
 191   0.0000       2.323684        63.2306 
 192   0.0000       2.422680        65.9245 
 193   0.0000       2.503296        68.1182 
 194   0.0000       2.503378        68.1204 
 195   0.0000       2.547043        69.3086 
 196   0.0000       2.669639        72.6446 
 197   0.0000       2.718894        73.9849 
 198   0.0000       2.719050        73.9891 
 199   0.0000       2.731812        74.3364 
 200   0.0000       2.821502        76.7770 
 201   0.0000       2.842343        77.3441 
 202   0.0000       2.842483        77.3479 
 203   0.0000       3.095786        84.2406 
 204   0.0000       3.123312        84.9896 
 205   0.0000       3.202894        87.1552 
 206   0.0000       3.202897        87.1553 
 207   0.0000       3.265944        88.8708 
 208   0.0000       3.266023        88.8730 
 209   0.0000       3.377863        91.9163 
 210   0.0000       3.420474        93.0758 
 211   0.0000       3.420476        93.0759 
 212   0.0000       3.810125       103.6788 
 213   0.0000       3.810141       103.6792 
 214   0.0000       3.893906       105.9586 
 215   0.0000       3.904646       106.2508 
 216   0.0000       3.904679       106.2517 
 217   0.0000       3.981548       108.3434 
 218   0.0000       4.064771       110.6080 
 219   0.0000       4.064853       110.6103 
 220   0.0000       4.234735       115.2330 
 221   0.0000       4.402126       119.7879 
 222   0.0000       4.402293       119.7925 
 223   0.0000       4.466965       121.5523 
 224   0.0000       4.631658       126.0338 
 225   0.0000       4.820034       131.1598 
 226   0.0000       4.820049       131.1602 
 227   0.0000       4.839375       131.6861 
 228   0.0000       4.844519       131.8261 
 229   0.0000       4.844632       131.8291 
 230   0.0000       4.854700       132.1031 
 231   0.0000       4.854733       132.1040 
 232   0.0000       4.863475       132.3419 
 233   0.0000       4.870134       132.5231 
 234   0.0000       4.870194       132.5247 
 235   0.0000       4.870592       132.5355 
 236   0.0000       4.881697       132.8377 
 237   0.0000       4.884925       132.9256 
 238   0.0000       4.900110       133.3388 
 239   0.0000       4.900257       133.3428 
 240   0.0000       4.911622       133.6520 
 241   0.0000       4.917737       133.8184 
 242   0.0000       4.921113       133.9103 
 243   0.0000       4.921113       133.9103 
 244   0.0000       4.929163       134.1293 
 245   0.0000       4.929267       134.1322 
 246   0.0000       4.954524       134.8195 
 247   0.0000       4.955257       134.8394 
 248   0.0000       5.049773       137.4113 
 249   0.0000       5.065416       137.8370 
 250   0.0000       5.067250       137.8869 
 251   0.0000       5.067276       137.8876 
 252   0.0000       5.116040       139.2145 
 253   0.0000       5.116175       139.2182 
 254   0.0000       5.157719       140.3487 
 255   0.0000       5.157807       140.3511 
 256   0.0000       5.213361       141.8628 
 257   0.0000       5.259306       143.1130 
 258   0.0000       5.500186       149.6677 
 259   0.0000       5.556792       151.2080 
 260   0.0000       5.556965       151.2127 
 261   0.0000       5.557240       151.2202 
 262   0.0000       5.557317       151.2223 
 263   0.0000       5.557370       151.2237 
 264   0.0000       5.557481       151.2267 
 265   0.0000       5.557687       151.2324 
 266   0.0000       5.557780       151.2349 
 267   0.0000       5.557921       151.2387 
 268   0.0000       5.557923       151.2388 
 269   0.0000       5.558236       151.2473 
 270   0.0000       5.558302       151.2491 
 271   0.0000       5.558603       151.2573 
 272   0.0000       5.558755       151.2614 
 273   0.0000       5.558796       151.2625 
 274   0.0000       5.558887       151.2650 
 275   0.0000       5.559239       151.2746 
 276   0.0000       5.559248       151.2748 
 277   0.0000       5.560077       151.2974 
 278   0.0000       5.560364       151.3052 
 279   0.0000       5.560422       151.3068 
 280   0.0000       5.562020       151.3503 
 281   0.0000       5.562030       151.3505 
 282   0.0000       5.563149       151.3810 
 283   0.0000       5.567995       151.5128 
 284   0.0000       5.568071       151.5149 
 285   0.0000       5.576430       151.7424 
 286   0.0000       5.579572       151.8279 
 287   0.0000       5.579606       151.8288 
 288   0.0000       5.580764       151.8603 
 289   0.0000       5.581452       151.8790 
 290   0.0000       5.581491       151.8801 
 291   0.0000       5.584100       151.9511 
 292   0.0000       5.604037       152.4936 
 293   0.0000       5.604059       152.4942 
 294   0.0000       5.735800       156.0790 
 295   0.0000       5.794260       157.6698 
 296   0.0000       5.794325       157.6716 
 297   0.0000       5.804519       157.9490 
 298   0.0000       5.947734       161.8461 
 299   0.0000       5.947747       161.8464 
 300   0.0000       6.461330       175.8217 
 301   0.0000       6.654783       181.0859 
 302   0.0000       6.654867       181.0881 
 303   0.0000      33.274797       905.4533 
 304   0.0000      33.459403       910.4766 
 305   0.0000      33.799816       919.7398 
 306   0.0000      33.800148       919.7488 
 307   0.0000      33.922640       923.0820 
 308   0.0000     109.624978      2983.0473 
 309   0.0000     109.732800      2985.9813 
 310   0.0000     109.732909      2985.9842 
 311   0.0000     109.783724      2987.3670 

                    ********************************
                    * MULLIKEN POPULATION ANALYSIS *
                    ********************************

-----------------------
MULLIKEN ATOMIC CHARGES
-----------------------
   0 Ag:    0.399790
   1 Ag:    0.426361
   2 Ag:    0.425960
   3 Ag:    0.425945
   4 N :   -0.362276
   5 H :    0.227980
   6 H :    0.227979
   7 H :    0.228261
Sum of atomic charges:    2.0000000

--------------------------------
MULLIKEN REDUCED ORBITAL CHARGES
--------------------------------
  0 Ags       :     2.517264  s :     2.517264
      pz      :     2.009378  p :     6.153078
      px      :     2.013122
      py      :     2.130577
      dz2     :     1.989558  d :     9.926627
      dxz     :     1.997137
      dyz     :     1.980583
      dx2y2   :     1.976028
      dxy     :     1.983320
      f0      :     0.000197  f :     0.003208
      f+1     :     0.000083
      f-1     :     0.000772
      f+2     :     0.000344
      f-2     :     0.000143
      f+3     :     0.000600
      f-3     :     0.001067
      g0      :     0.000003  g :     0.000033
      g+1     :     0.000000
      g-1     :     0.000003
      g+2     :     0.000006
      g-2     :     0.000002
      g+3     :     0.000001
      g-3     :     0.000003
      g+4     :     0.000008
      g-4     :     0.000006
  1 Ags       :     2.500088  s :     2.500088
      pz      :     2.008152  p :     6.130508
      px      :     2.109778
      py      :     2.012578
      dz2     :     1.994884  d :     9.941777
      dxz     :     1.976591
      dyz     :     1.997105
      dx2y2   :     1.990722
      dxy     :     1.982476
      f0      :     0.000131  f :     0.001252
      f+1     :     0.000198
      f-1     :     0.000056
      f+2     :     0.000246
      f-2     :     0.000163
      f+3     :     0.000246
      f-3     :     0.000212
      g0      :     0.000001  g :     0.000014
      g+1     :     0.000002
      g-1     :     0.000000
      g+2     :     0.000001
      g-2     :     0.000001
      g+3     :     0.000002
      g-3     :     0.000002
      g+4     :     0.000002
      g-4     :     0.000002
  2 Ags       :     2.500463  s :     2.500463
      pz      :     2.078170  p :     6.130581
      px      :     2.025739
      py      :     2.026672
      dz2     :     1.980884  d :     9.941730
      dxz     :     1.989549
      dyz     :     1.989840
      dx2y2   :     1.985418
      dxy     :     1.996039
      f0      :     0.000336  f :     0.001252
      f+1     :     0.000174
      f-1     :     0.000165
      f+2     :     0.000224
      f-2     :     0.000110
      f+3     :     0.000121
      f-3     :     0.000121
      g0      :     0.000003  g :     0.000014
      g+1     :     0.000002
      g-1     :     0.000002
      g+2     :     0.000001
      g-2     :     0.000000
      g+3     :     0.000002
      g-3     :     0.000002
      g+4     :     0.000001
      g-4     :     0.000001
  3 Ags       :     2.500474  s :     2.500474
      pz      :     2.078173  p :     6.130585
      px      :     2.025739
      py      :     2.026673
      dz2     :     1.980884  d :     9.941730
      dxz     :     1.989549
      dyz     :     1.989840
      dx2y2   :     1.985418
      dxy     :     1.996039
      f0      :     0.000336  f :     0.001252
      f+1     :     0.000174
      f-1     :     0.000165
      f+2     :     0.000224
      f-2     :     0.000110
      f+3     :     0.000121
      f-3     :     0.000121
      g0      :     0.000003  g :     0.000014
      g+1     :     0.000002
      g-1     :     0.000002
      g+2     :     0.000001
      g-2     :     0.000000
      g+3     :     0.000002
      g-3     :     0.000002
      g+4     :     0.000001
      g-4     :     0.000001
  4 N s       :     3.223801  s :     3.223801
      pz      :     1.260142  p :     4.116072
      px      :     1.270080
      py      :     1.585850
      dz2     :     0.006194  d :     0.021780
      dxz     :     0.005722
      dyz     :     0.005336
      dx2y2   :     0.004270
      dxy     :     0.000258
      f0      :     0.000032  f :     0.000623
      f+1     :     0.000142
      f-1     :     0.000149
      f+2     :     0.000019
      f-2     :     0.000014
      f+3     :     0.000179
      f-3     :     0.000086
  5 H s       :     0.686574  s :     0.686574
      pz      :     0.036113  p :     0.080633
      px      :     0.021456
      py      :     0.023064
      dz2     :     0.001385  d :     0.004813
      dxz     :     0.001089
      dyz     :     0.001298
      dx2y2   :     0.000619
      dxy     :     0.000423
  6 H s       :     0.686574  s :     0.686574
      pz      :     0.036113  p :     0.080634
      px      :     0.021456
      py      :     0.023066
      dz2     :     0.001385  d :     0.004813
      dxz     :     0.001089
      dyz     :     0.001298
      dx2y2   :     0.000619
      dxy     :     0.000423
  7 H s       :     0.686372  s :     0.686372
      pz      :     0.017670  p :     0.080554
      px      :     0.046124
      py      :     0.016760
      dz2     :     0.000406  d :     0.004813
      dxz     :     0.001232
      dyz     :     0.000018
      dx2y2   :     0.001412
      dxy     :     0.001745


                     *******************************
                     * LOEWDIN POPULATION ANALYSIS *
                     *******************************

----------------------
LOEWDIN ATOMIC CHARGES
----------------------
   0 Ag:    0.416764
   1 Ag:    0.479322
   2 Ag:    0.479308
   3 Ag:    0.479308
   4 N :    0.393089
   5 H :   -0.082607
   6 H :   -0.082607
   7 H :   -0.082576

-------------------------------
LOEWDIN REDUCED ORBITAL CHARGES
-------------------------------
  0 Ags       :     2.296826  s :     2.296826
      pz      :     2.019048  p :     6.373505
      px      :     2.028624
      py      :     2.325833
      dz2     :     1.990244  d :     9.907415
      dxz     :     1.993159
      dyz     :     1.969343
      dx2y2   :     1.982261
      dxy     :     1.972407
      f0      :     0.000317  f :     0.005427
      f+1     :     0.000143
      f-1     :     0.001335
      f+2     :     0.000540
      f-2     :     0.000200
      f+3     :     0.001016
      f-3     :     0.001877
      g0      :     0.000006  g :     0.000063
      g+1     :     0.000001
      g-1     :     0.000005
      g+2     :     0.000012
      g-2     :     0.000003
      g+3     :     0.000002
      g-3     :     0.000004
      g+4     :     0.000016
      g-4     :     0.000013
  1 Ags       :     2.355035  s :     2.355035
      pz      :     2.017152  p :     6.205319
      px      :     2.163648
      py      :     2.024519
      dz2     :     1.995519  d :     9.958392
      dxz     :     1.983368
      dyz     :     1.996760
      dx2y2   :     1.997440
      dxy     :     1.985305
      f0      :     0.000215  f :     0.001913
      f+1     :     0.000267
      f-1     :     0.000079
      f+2     :     0.000400
      f-2     :     0.000222
      f+3     :     0.000398
      f-3     :     0.000330
      g0      :     0.000001  g :     0.000019
      g+1     :     0.000003
      g-1     :     0.000000
      g+2     :     0.000002
      g-2     :     0.000001
      g+3     :     0.000003
      g-3     :     0.000002
      g+4     :     0.000003
      g-4     :     0.000002
  2 Ags       :     2.355135  s :     2.355135
      pz      :     2.119854  p :     6.205283
      px      :     2.044199
      py      :     2.041230
      dz2     :     1.988358  d :     9.958342
      dxz     :     1.992731
      dyz     :     1.991054
      dx2y2   :     1.990457
      dxy     :     1.995742
      f0      :     0.000553  f :     0.001912
      f+1     :     0.000227
      f-1     :     0.000233
      f+2     :     0.000377
      f-2     :     0.000155
      f+3     :     0.000180
      f-3     :     0.000186
      g0      :     0.000005  g :     0.000019
      g+1     :     0.000002
      g-1     :     0.000002
      g+2     :     0.000002
      g-2     :     0.000001
      g+3     :     0.000002
      g-3     :     0.000002
      g+4     :     0.000001
      g-4     :     0.000001
  3 Ags       :     2.355136  s :     2.355136
      pz      :     2.119855  p :     6.205284
      px      :     2.044199
      py      :     2.041230
      dz2     :     1.988358  d :     9.958342
      dxz     :     1.992731
      dyz     :     1.991054
      dx2y2   :     1.990457
      dxy     :     1.995742
      f0      :     0.000553  f :     0.001912
      f+1     :     0.000227
      f-1     :     0.000233
      f+2     :     0.000377
      f-2     :     0.000155
      f+3     :     0.000180
      f-3     :     0.000186
      g0      :     0.000005  g :     0.000019
      g+1     :     0.000002
      g-1     :     0.000002
      g+2     :     0.000002
      g-2     :     0.000001
      g+3     :     0.000002
      g-3     :     0.000002
      g+4     :     0.000001
      g-4     :     0.000001
  4 N s       :     2.883800  s :     2.883800
      pz      :     1.109389  p :     3.510342
      px      :     1.114790
      py      :     1.286163
      dz2     :     0.044168  d :     0.204592
      dxz     :     0.028753
      dyz     :     0.040644
      dx2y2   :     0.063173
      dxy     :     0.027855
      f0      :     0.000067  f :     0.008176
      f+1     :     0.001766
      f-1     :     0.002035
      f+2     :     0.000417
      f-2     :     0.002118
      f+3     :     0.000699
      f-3     :     0.001074
  5 H s       :     0.641174  s :     0.641174
      pz      :     0.137720  p :     0.385180
      px      :     0.099440
      py      :     0.148021
      dz2     :     0.015882  d :     0.056253
      dxz     :     0.012185
      dyz     :     0.015003
      dx2y2   :     0.007558
      dxy     :     0.005625
  6 H s       :     0.641174  s :     0.641174
      pz      :     0.137720  p :     0.385180
      px      :     0.099440
      py      :     0.148021
      dz2     :     0.015882  d :     0.056253
      dxz     :     0.012185
      dyz     :     0.015003
      dx2y2   :     0.007558
      dxy     :     0.005625
  7 H s       :     0.641156  s :     0.641156
      pz      :     0.086470  p :     0.385167
      px      :     0.165096
      py      :     0.133600
      dz2     :     0.004886  d :     0.056253
      dxz     :     0.016104
      dyz     :     0.000601
      dx2y2   :     0.014269
      dxy     :     0.020392


                      *****************************
                      * MAYER POPULATION ANALYSIS *
                      *****************************

  NA   - Mulliken gross atomic population
  ZA   - Total nuclear charge
  QA   - Mulliken gross atomic charge
  VA   - Mayer's total valence
  BVA  - Mayer's bonded valence
  FA   - Mayer's free valence

  ATOM       NA         ZA         QA         VA         BVA        FA
  0 Ag    18.6002    19.0000     0.3998     1.1730     1.1730    -0.0000
  1 Ag    18.5736    19.0000     0.4264     1.0116     1.0116     0.0000
  2 Ag    18.5740    19.0000     0.4260     1.0120     1.0120    -0.0000
  3 Ag    18.5741    19.0000     0.4259     1.0120     1.0120     0.0000
  4 N      7.3623     7.0000    -0.3623     3.3322     3.3322     0.0000
  5 H      0.7720     1.0000     0.2280     1.0742     1.0742     0.0000
  6 H      0.7720     1.0000     0.2280     1.0742     1.0742     0.0000
  7 H      0.7717     1.0000     0.2283     1.0738     1.0738    -0.0000

  Mayer bond orders larger than 0.100000
B(  0-Ag,  1-Ag) :   0.2470 B(  0-Ag,  2-Ag) :   0.2471 B(  0-Ag,  3-Ag) :   0.2472 
B(  0-Ag,  4-N ) :   0.3831 B(  1-Ag,  2-Ag) :   0.3842 B(  1-Ag,  3-Ag) :   0.3842 
B(  2-Ag,  3-Ag) :   0.3844 B(  4-N ,  5-H ) :   0.9884 B(  4-N ,  6-H ) :   0.9884 
B(  4-N ,  7-H ) :   0.9881 

-------
TIMINGS
-------

Total SCF time: 0 days 0 hours 0 min 11 sec 

Total time                  ....      11.892 sec
Sum of individual times     ....      11.703 sec  ( 98.4%)

Fock matrix formation       ....       9.553 sec  ( 80.3%)
  XC integration            ....       1.161 sec  ( 12.2% of F)
    Basis function eval.    ....       0.142 sec  ( 12.2% of XC)
    Density eval.           ....       0.117 sec  ( 10.1% of XC)
    XC-Functional eval.     ....       0.027 sec  (  2.3% of XC)
    XC-Potential eval.      ....       0.169 sec  ( 14.6% of XC)
Diagonalization             ....       0.210 sec  (  1.8%)
Density matrix formation    ....       0.021 sec  (  0.2%)
Population analysis         ....       0.014 sec  (  0.1%)
Initial guess               ....       1.308 sec  ( 11.0%)
Orbital Transformation      ....       0.000 sec  (  0.0%)
Orbital Orthonormalization  ....       0.000 sec  (  0.0%)
DIIS solution               ....       0.110 sec  (  0.9%)
Grid generation             ....       0.487 sec  (  4.1%)


           ************************************************************
           *        Program running with 24 parallel MPI-processes    *
           *              working on a common directory               *
           ************************************************************

------------------------------------------------------------------------------
                                ORCA  MP2 
------------------------------------------------------------------------------

Freezing NCore=2 chemical core electrons

-------------
RI-MP2 ENERGY
-------------
Dimension of the basis                    ...  312
Memory devoted to MP2                     ... 5000 MB   
Data format for buffers                   ... DOUBLE
Compression type for matrix containers    ... UNCOMPRESSED
Scaling for aa/bb pairs                   ...   4.000e-01
Scaling for ab pairs                      ...   4.700e-01
Overall scaling of the MP2 energy         ...   1.000e+00
Calculating two index integrals           ... done (    0.024 sec)
Cholesky decomposition of V**-1           ... done (    0.046 sec)

-----------------
RI-TRANSFORMATION (AUX index driven)
-----------------

Dimension of the orbital-basis         ... 312
Dimension of the aux-basis             ... 913
Transformation of internal/external MOs...    1-  41 to   42- 311
Number Format for Storage              ... Double (8 Byte)
Integral mode                          ... Direct

First Phase: integral generation and transformation of MO indices
  Aux angular momentum 0               ... done (    0.006 sec)
  Aux angular momentum 1               ... done (    0.010 sec)
  Aux angular momentum 2               ... done (    0.016 sec)
  Aux angular momentum 3               ... done (    0.024 sec)
  Aux angular momentum 4               ... done (    0.016 sec)
  Aux angular momentum 5               ... done (    0.023 sec)
  Aux angular momentum 6               ... done (    0.030 sec)
Closing buffer VIA ( 0.08 GB; CompressionRatio= 1.00)
  Phase 1 completed in     0.200 sec
Second Phase: sorting and transformation of aux index

IA-Transformation
Memory available                       ... 4987 MB 
Max. # MO pairs treated in a batch     ... 2    
# of internal orbitals                 ... 41
# batches for internal orbitals        ... 1
Closing buffer IAV ( 0.00 GB; CompressionRatio= 1.00)
(ia|v) transformation done in     0.046 sec

  Phase 2 completed in     0.115 sec
RI-Integral transformation completed in     0.316 sec
Opening buffers                              ... done

Starting loop over batches of integrals:

Operator 0  - window                       ... (  1- 41)x( 42-311)
Operator 0  - Memory available             ...  5000 MB
Operator 0  - Memory needed per MO         ...   1.9 MB
Operator 0  - Number of orbitals per batch ... 2
Operator 0  - Number of batches            ... 1

OPERATOR  0   PASS   0:  MOs     1 ...    2 +    3 ...    4 +    5 ...    6 +    7 ...    8
                            +    9 ...   10 +   11 ...   12 +   13 ...   14 +   15 ...   16
                            +   17 ...   18 +   19 ...   20 +   21 ...   22 +   23 ...   24
                            +   25 ...   26 +   27 ...   28 +   29 ...   30 +   31 ...   32
                            +   33 ...   34 +   35 ...   36 +   37 ...   38 +   39 ...   40
                            +   41 ...   41
  Reading integrals       ... ok
Time spent in pair loops =     0.021 sec
Deleting buffer (Ka|jb)[aa] ...done

-----------------------------------------------
 RI-MP2 CORRELATION ENERGY:     -1.419046338 Eh
-----------------------------------------------


-------
TIMINGS
-------

Total time                :    0.677 sec
Integral trafo            :    0.321 sec ( 47.5%)
I/O of integrals          :    0.003 sec (  0.5%)
K(i,j) Operators          :    0.008 sec (  1.2%)
T(i,j) pair energies      :    0.001 sec (  0.2%)
V-calculation             :    0.024 sec (  3.5%)
V**(-1/2)                 :    0.046 sec (  6.8%)
Gamma(ia|P)               :    0.000 sec (  0.0%)
Gamma-Trafo               :    0.000 sec (  0.0%)
D(virtual)                :    0.000 sec (  0.0%)
D(internal)               :    0.000 sec (  0.0%)
W(virtual)                :    0.000 sec (  0.0%)
W(internal)               :    0.000 sec (  0.0%)
L(virtual)                :    0.000 sec (  0.0%)
L(internal)               :    0.000 sec (  0.0%)
G(D)                      :    0.000 sec (  0.0%)
G(Z)                      :    0.000 sec (  0.0%)
Z-Vector Solution         :    0.000 sec (  0.0%)
Z-Vector Solution         :    0.000 sec (  0.0%)
3-Index Derivative 
+ Separable RIJ part      :    0.000 sec (  0.0%)
2-Index Derivative 
+ Separable RIJ part      :    0.000 sec (  0.0%)
Separable Gradient (X)    :    0.000 sec (  0.0%)


---------------------------------------
MP2 TOTAL ENERGY:     -643.518337068 Eh
---------------------------------------


-------------------------------------------------------------------------------
                          DFT DISPERSION CORRECTION                            
                                                                               
                              DFTD3 V3.1  Rev 1                                
                          USING Becke-Johnson damping                          
-------------------------------------------------------------------------------
The DSD-BLYP/2013 functional is recognized
Active option DFTDOPT                   ...         4   

molecular C6(AA) [au] = 5557.993231 


            DFT-D V3
 parameters
 s6 scaling factor         :     0.5700 
 a1 scaling factor         :     0.0000 
 s8 scaling factor         :     0.0000 
 a2 scaling factor         :     5.4000 
 ad hoc parameters k1-k3   :    16.0000     1.3333    -4.0000 

 Edisp/kcal,au: -14.576243587435  -0.023228720259 
 E6   /kcal   : -14.576243587 
 E8   /kcal   :  -0.000000000 
 % E8         :   0.000000000 

-------------------------   ----------------
Dispersion correction           -0.023228720
-------------------------   ----------------


-------------------------   --------------------
FINAL SINGLE POINT ENERGY      -643.541565788225
-------------------------   --------------------


                            ***************************************
                            *     ORCA property calculations      *
                            ***************************************


  WARNING: The energy has been calculated at the MP2 level but the densities
           used in the property calculations are still SCF densities
           MP2 response densities have not been calculated 
           use %mp2 Density relaxed end
           or  %mp2 Density unrelaxed end

                                    ---------------------
                                    Active property flags
                                    ---------------------
   (+) Dipole Moment


------------------------------------------------------------------------------
                       ORCA ELECTRIC PROPERTIES CALCULATION
------------------------------------------------------------------------------

Dipole Moment Calculation                       ... on
Quadrupole Moment Calculation                   ... off
Polarizability Calculation                      ... off
GBWName                                         ... Ag04C2_NH3_A.gbw
Electron density file                           ... Ag04C2_NH3_A.scfp
The origin for moment calculation is the CENTER OF MASS  = ( 0.017258, -0.098075  0.000000)

-------------
DIPOLE MOMENT
-------------
                                X             Y             Z
Electronic contribution:      8.72153     -49.54128       0.00000
Nuclear contribution   :     -9.00166      51.14183       0.00000
                        -----------------------------------------
Total Dipole Moment    :     -0.28013       1.60056       0.00000
                        -----------------------------------------
Magnitude (a.u.)       :      1.62489
Magnitude (Debye)      :      4.13013



--------------------
Rotational spectrum 
--------------------
 
Rotational constants in cm-1:     0.020466     0.015199     0.015198 
Rotational constants in MHz :   613.555994   455.656791   455.636329 

 Dipole components along the rotational axes: 
x,y,z [a.u.] :    -1.624886     0.000000    -0.002066 
x,y,z [Debye]:    -4.130131     0.000000    -0.005250 

 

Timings for individual modules:

Sum of individual times         ...       15.394 sec (=   0.257 min)
GTO integral calculation        ...        1.980 sec (=   0.033 min)  12.9 %
SCF iterations                  ...       12.224 sec (=   0.204 min)  79.4 %
MP2 module                      ...        1.190 sec (=   0.020 min)   7.7 %
                             ****ORCA TERMINATED NORMALLY****
TOTAL RUN TIME: 0 days 0 hours 0 minutes 15 seconds 894 msec
