
                                 *****************
                                 * O   R   C   A *
                                 *****************

           --- An Ab Initio, DFT and Semiempirical electronic structure package ---

                  #######################################################
                  #                        -***-                        #
                  #          Department of theory and spectroscopy      #
                  #               Directorship: Frank Neese             #
                  #        Max Planck Institute fuer Kohlenforschung    #
                  #                Kaiser Wilhelm Platz 1               #
                  #                 D-45470 Muelheim/Ruhr               #
                  #                      Germany                        #
                  #                                                     #
                  #                  All rights reserved                #
                  #                        -***-                        #
                  #######################################################


                         Program Version 4.2.0 -  RELEASE  -


 With contributions from (in alphabetic order):
   Daniel Aravena         : Magnetic Suceptibility
   Michael Atanasov       : Ab Initio Ligand Field Theory (pilot matlab implementation)
   Alexander A. Auer      : GIAO ZORA, VPT2
   Ute Becker             : Parallelization
   Giovanni Bistoni       : ED, misc. LED, open-shell LED, HFLED
   Martin Brehm           : Molecular dynamics
   Dmytro Bykov           : SCF Hessian
   Vijay G. Chilkuri      : MRCI spin determinant printing, contributions to CSF-ICE
   Dipayan Datta          : RHF DLPNO-CCSD density
   Achintya Kumar Dutta   : EOM-CC, STEOM-CC
   Dmitry Ganyushin       : Spin-Orbit,Spin-Spin,Magnetic field MRCI
   Miquel Garcia          : C-PCM Hessian, Gaussian charge scheme
   Yang Guo               : DLPNO-NEVPT2, CIM, IAO-localization
   Andreas Hansen         : Spin unrestricted coupled pair/coupled cluster methods
   Benjamin Helmich-Paris : CASSCF linear response (MC-RPA)
   Lee Huntington         : MR-EOM, pCC
   Robert Izsak           : Overlap fitted RIJCOSX, COSX-SCS-MP3, EOM
   Christian Kollmar      : KDIIS, OOCD, Brueckner-CCSD(T), CCSD density
   Simone Kossmann        : Meta GGA functionals, TD-DFT gradient, OOMP2, MP2 Hessian
   Martin Krupicka        : AUTO-CI
   Lucas Lang             : DCDCAS
   Dagmar Lenk            : GEPOL surface, SMD
   Dimitrios Liakos       : Extrapolation schemes; Compound Job, initial MDCI parallelization
   Dimitrios Manganas     : Further ROCIS development; embedding schemes
   Dimitrios Pantazis     : SARC Basis sets
   Taras Petrenko         : DFT Hessian,TD-DFT gradient, ASA, ECA, R-Raman, ABS, FL, XAS/XES, NRVS
   Peter Pinski           : DLPNO-MP2, DLPNO-MP2 Gradient
   Christoph Reimann      : Effective Core Potentials
   Marius Retegan         : Local ZFS, SOC
   Christoph Riplinger    : Optimizer, TS searches, QM/MM, DLPNO-CCSD(T), (RO)-DLPNO pert. Triples
   Tobias Risthaus        : Range-separated hybrids, TD-DFT gradient, RPA, STAB
   Michael Roemelt        : Original ROCIS implementation
   Masaaki Saitow         : Open-shell DLPNO-CCSD energy and density
   Barbara Sandhoefer     : DKH picture change effects
   Avijit Sen             : IP-ROCIS
   Kantharuban Sivalingam : CASSCF convergence, NEVPT2, FIC-MRCI
   Bernardo de Souza      : ESD, SOC TD-DFT
   Georgi Stoychev        : AutoAux, RI-MP2 NMR
   Willem Van den Heuvel  : Paramagnetic NMR
   Boris Wezisla          : Elementary symmetry handling
   Frank Wennmohs         : Technical directorship


 We gratefully acknowledge several colleagues who have allowed us to
 interface, adapt or use parts of their codes:
   Stefan Grimme, W. Hujo, H. Kruse,             : VdW corrections, initial TS optimization,
                  C. Bannwarth                     DFT functionals, gCP, sTDA/sTD-DF
   Ed Valeev, F. Pavosevic, A. Kumar             : LibInt (2-el integral package), F12 methods
   Garnet Chan, S. Sharma, J. Yang, R. Olivares  : DMRG
   Ulf Ekstrom                                   : XCFun DFT Library
   Mihaly Kallay                                 : mrcc  (arbitrary order and MRCC methods)
   Andreas Klamt, Michael Diedenhofen            : otool_cosmo (COSMO solvation model)
   Jiri Pittner, Ondrej Demel                    : Mk-CCSD
   Frank Weinhold                                : gennbo (NPA and NBO analysis)
   Christopher J. Cramer and Donald G. Truhlar   : smd solvation model
   Lars Goerigk                                  : TD-DFT with DH, B97 family of functionals
   V. Asgeirsson, H. Jonsson                     : NEB implementation
   FAccTs GmbH                                   : IRC, NEB, NEB-TS, Multilevel, MM, QM/MM, CI optimization
   S Lehtola, MJT Oliveira, MAL Marques          : LibXC Library


 Your calculation uses the libint2 library for the computation of 2-el integrals
 For citations please refer to: http://libint.valeyev.net

 Your ORCA version has been built with support for libXC version: 4.2.3
 For citations please refer to: https://tddft.org/programs/libxc/

 This ORCA versions uses:
   CBLAS   interface :  Fast vector & matrix operations
   LAPACKE interface :  Fast linear algebra routines
   SCALAPACK package :  Parallel linear algebra routines


Your calculation utilizes the atom-pairwise dispersion correction
with the Becke-Johnson damping scheme (D3BJ)
Cite in your paper:
S.Grimme, S.Ehrlich, L.Goerigk, J Comput Chem, (2011), 32, 1456–1465 
S.Grimme, J.Antony, S.Ehrlich and H.Krieg, J.Chem.Phys., 132, (2010), 154104 
   

----- Orbital basis set information -----
Your calculation utilizes the basis: def2-TZVPPD
   F. Weigend and R. Ahlrichs, Phys. Chem. Chem. Phys. 7, 3297 (2005).
   D. Rappoport and F. Furche, J. Chem. Phys. 133 134105 (2010).

----- AuxC basis set information -----
Your calculation utilizes the auxiliary basis: def2-TZVPPD/C
   A. Hellweg, C. Hattig, S. Hofener and W. Klopper, Theor. Chem. Acc. 117, 587 (2007).

----- AuxJK basis set information -----
Your calculation utilizes the auxiliary basis: def2/JK
   H-Ba, Hf-Rn: F. Weigend, J. Comput. Chem. 29, 167 (2008).

cite the ECPs for Ag [Def2-ECP] as follows:
Ce-Yb(ecp-28): M. Dolg, H. Stoll, H.Preuss, J. Chem. Phys., 1989, 90, 1730-1734.
Y-Cd(ecp-28), Hf-Hg(ecp-46): D. Andrae,U. Haeussermann, M. Dolg, H. Stoll, H. Preuss, Theor. Chim. Acta, 1990, 77, 123-141.
In-Sb(ecp-28), Tl-Bi(ecp-46): B. Metz, H. Stoll, M. Dolg, J. Chem. Phys., 2000, 113, 2563-2569.
Te-Xe(ecp-28), Po-Rn(ecp-46): K. A. Peterson, D. Figgen, E. Goll, H. Stoll, M. Dolg, J. Chem. Phys., 2003, 119, 11113-11123.
Rb(ecp-28), Cs(ecp-46): T. Leininger, A. Nicklass, W. Kuechle, H. Stoll, M. Dolg, A. Bergner, Chem. Phys. Lett., 1996, 255, 274-280.
Sr(ecp-28), Ba(ecp-46): M. Kaupp, P. V. Schleyer, H. Stoll and H. Preuss, J. Chem. Phys., 1991, 94, 1360-1366.
La(ecp-46): M. Dolg, H. Stoll, A. Savin, H. Preuss, Theor. Chim. Acta, 1989, 75, 173-194.
Lu(ecp-28): X. Cao, M. Dolg, J. Chem. Phys., 2001, 115, 7348-7355.

ECP parameters for Ag [Def2-ECP] have been obtained from:
TURBOMOLE (7.0.2)

================================================================================
                                        WARNINGS
                       Please study these warnings very carefully!
================================================================================


WARNING: No MP2 level density has been requested!
         To caclulate MP2 level properties use
         %mp2 Density relaxed end
         or
         %mp2 Density unrelaxed end
         Otherwise for double-hybrid DFT only the energy is correct!

WARNING: There are different parametrizations of Gershom Martin's DSD-DFs
         for use with and without D3(BJ)!
         You are using the D3(BJ) parametrized version,
         consistent with the 2013 article (S. Kozuch and J. M. L. Martin, JCC 2013, 34, 2327)

WARNING: The frozen-core approximation is turned on by default for 
         the MP2 part of double-hybrid DFT.

INFO   : the flag for use of LIBINT has been found!

================================================================================
                                       INPUT FILE
================================================================================
NAME = Ag04N0.in
|  1> #
|  2> # Ag04N0 ri-DSD-BLYP/2013-D3BJ/Def2-TZVPPD
|  3> #
|  4> ! rijk ri-dsd-blyp/2013 d3bj def2-tzvppd def2/jk def2-tzvppd/c grid4 nofinalgrid
|  5> 
|  6> *xyz 0 1
|  7> Ag      -1.015022   -0.433109    0.700282 
|  8> Ag       0.974659   -2.209777    0.043294 
|  9> Ag       1.013798    0.433158   -0.699441 
| 10> Ag      -0.973435    2.209727   -0.044135 
| 11> *
| 12> 
| 13> %maxcore 5000
| 14> 
| 15> %pal
| 16> nprocs = 24
| 17> end
| 18> 
| 19> 
| 20>                          ****END OF INPUT****
================================================================================

                       ****************************
                       * Single Point Calculation *
                       ****************************

---------------------------------
CARTESIAN COORDINATES (ANGSTROEM)
---------------------------------
  Ag    -1.015022   -0.433109    0.700282
  Ag     0.974659   -2.209777    0.043294
  Ag     1.013798    0.433158   -0.699441
  Ag    -0.973435    2.209727   -0.044135

----------------------------
CARTESIAN COORDINATES (A.U.)
----------------------------
  NO LB      ZA    FRAG     MASS         X           Y           Z
   0 Ag   19.0000*   0   107.870   -1.918114   -0.818457    1.323341
   1 Ag   19.0000*   0   107.870    1.841839   -4.175873    0.081814
   2 Ag   19.0000*   0   107.870    1.915801    0.818550   -1.321752
   3 Ag   19.0000*   0   107.870   -1.839526    4.175779   -0.083403
* core charge reduced due to ECP

--------------------------------
INTERNAL COORDINATES (ANGSTROEM)
--------------------------------
 Ag     0   0   0     0.000000000000     0.00000000     0.00000000
 Ag     1   0   0     2.747182719829     0.00000000     0.00000000
 Ag     1   2   0     2.612614319875    61.56800028     0.00000000
 Ag     3   1   2     2.744944145458    61.60842682   179.99389243

---------------------------
INTERNAL COORDINATES (A.U.)
---------------------------
 Ag     0   0   0     0.000000000000     0.00000000     0.00000000
 Ag     1   0   0     5.191422980318     0.00000000     0.00000000
 Ag     1   2   0     4.937125558125    61.56800028     0.00000000
 Ag     3   1   2     5.187192687827    61.60842682   179.99389243

---------------------
BASIS SET INFORMATION
---------------------
There are 1 groups of distinct atoms

 Group   1 Type Ag  : 7s7p6d2f1g contracted to 6s4p3d2f1g pattern {211111/4111/411/11/1}

Atom   0Ag   basis set group =>   1
Atom   1Ag   basis set group =>   1
Atom   2Ag   basis set group =>   1
Atom   3Ag   basis set group =>   1
---------------------------------
AUXILIARY/C BASIS SET INFORMATION
---------------------------------
There are 1 groups of distinct atoms

 Group   1 Type Ag  : 8s7p6d5f4g3h1i contracted to 8s7p6d5f4g3h1i pattern {11111111/1111111/111111/11111/1111/111/1}

Atom   0Ag   basis set group =>   1
Atom   1Ag   basis set group =>   1
Atom   2Ag   basis set group =>   1
Atom   3Ag   basis set group =>   1
----------------------------------
AUXILIARY/JK BASIS SET INFORMATION
----------------------------------
There are 1 groups of distinct atoms

 Group   1 Type Ag  : 13s12p10d9f6g3h2i contracted to 11s10p9d8f6g3h2i pattern {31111111111/3111111111/211111111/21111111/111111/111/11}

Atom   0Ag   basis set group =>   1
Atom   1Ag   basis set group =>   1
Atom   2Ag   basis set group =>   1
Atom   3Ag   basis set group =>   1
-------------------------
ECP PARAMETER INFORMATION
-------------------------

 Group 1, Type Ag ECP Def2-ECP (replacing 28 core electrons, lmax=3)

Atom   0Ag   ECP group =>   1
Atom   1Ag   ECP group =>   1
Atom   2Ag   ECP group =>   1
Atom   3Ag   ECP group =>   1



           ************************************************************
           *        Program running with 24 parallel MPI-processes    *
           *              working on a common directory               *
           ************************************************************
------------------------------------------------------------------------------
                           ORCA GTO INTEGRAL CALCULATION
                           -- RI-GTO INTEGRALS CHOSEN --
------------------------------------------------------------------------------

                         BASIS SET STATISTICS AND STARTUP INFO

Gaussian basis set:
 # of primitive gaussian shells          ...   92
 # of primitive gaussian functions       ...  324
 # of contracted shells                  ...   64
 # of contracted basis functions         ...  224
 Highest angular momentum                ...    4
 Maximum contraction depth               ...    4
Auxiliary gaussian basis set:
 # of primitive gaussian shells          ...  220
 # of primitive gaussian functions       ... 1100
 # of contracted shells                  ...  196
 # of contracted aux-basis functions     ... 1020
 Highest angular momentum                ...    6
 Maximum contraction depth               ...    3
Ratio of auxiliary to basis functions    ...  4.55
Integral package used                  ... LIBINT
 One Electron integrals                  
   ECP integrals                         ... done
 Ordering auxiliary basis shells         ... done
 Integral threshhold             Thresh  ...  1.000e-10
 Primitive cut-off               TCut    ...  1.000e-11
 Pre-screening matrix                    ... done
 Shell pair data                         ... 
 Ordering of the shell pairs             ... done (   0.000 sec) 1927 of 2080 pairs
 Determination of significant pairs      ... done (   0.000 sec)
 Creation of shell pair data             ... done (   0.000 sec)
 Storage of shell pair data              ... done (   0.009 sec)
 Shell pair data done in (   0.010 sec)
 Computing two index integrals           ... done
 Cholesky decomposition of the V-matrix  ... done


Timings:
 Total evaluation time                   ...   1.128 sec (  0.019 min)
 One electron matrix time                ...   0.622 sec (  0.010 min) = 55.2%
 Schwartz matrix evaluation time         ...   0.177 sec (  0.003 min) = 15.7%
 Two index repulsion integral time       ...   0.247 sec (  0.004 min) = 21.9%
 Cholesky decomposition of V             ...   0.046 sec (  0.001 min) =  4.0%
 Three index repulsion integral time     ...   0.000 sec (  0.000 min) =  0.0%



           ************************************************************
           *        Program running with 24 parallel MPI-processes    *
           *              working on a common directory               *
           ************************************************************
-------------------------------------------------------------------------------
                                 ORCA SCF
-------------------------------------------------------------------------------

------------
SCF SETTINGS
------------
Hamiltonian:
 Density Functional     Method          .... DFT(GTOs)
 Exchange Functional    Exchange        .... B88
   X-Alpha parameter    XAlpha          ....  0.666667
   Becke's b parameter  XBeta           ....  0.004200
 Correlation Functional Correlation     .... LYP
 LDA part of GGA corr.  LDAOpt          .... VWN-5
 Gradients option       PostSCFGGA      .... off
 Hybrid DFT is turned on
   Fraction HF Exchange ScalHFX         ....  0.710000
   Scaling of DF-GGA-X  ScalDFX         ....  0.290000
   Scaling of DF-GGA-C  ScalDFC         ....  0.540000
   Scaling of DF-LDA-C  ScalLDAC        ....  0.540000
   Perturbative correction              ....  1.000000
   Density functional embedding theory  .... OFF
 RI-approximation to the Coulomb term is turned on
   Number of auxiliary basis functions  .... 1020
   RI-JK (J+K treated both via RI)      .... on


General Settings:
 Integral files         IntName         .... Ag04N0
 Hartree-Fock type      HFTyp           .... RHF
 Total Charge           Charge          ....    0
 Multiplicity           Mult            ....    1
 Number of Electrons    NEL             ....   76
 Basis Dimension        Dim             ....  224
 Nuclear Repulsion      ENuc            ....    390.9440555712 Eh

Convergence Acceleration:
 DIIS                   CNVDIIS         .... on
   Start iteration      DIISMaxIt       ....    12
   Startup error        DIISStart       ....  0.200000
   # of expansion vecs  DIISMaxEq       ....     5
   Bias factor          DIISBfac        ....   1.050
   Max. coefficient     DIISMaxC        ....  10.000
 Newton-Raphson         CNVNR           .... off
 SOSCF                  CNVSOSCF        .... off
 Level Shifting         CNVShift        .... on
   Level shift para.    LevelShift      ....    0.2500
   Turn off err/grad.   ShiftErr        ....    0.0010
 Zerner damping         CNVZerner       .... off
 Static damping         CNVDamp         .... on
   Fraction old density DampFac         ....    0.7000
   Max. Damping (<1)    DampMax         ....    0.9800
   Min. Damping (>=0)   DampMin         ....    0.0000
   Turn off err/grad.   DampErr         ....    0.1000
 Fernandez-Rico         CNVRico         .... off

SCF Procedure:
 Maximum # iterations   MaxIter         ....   125
 SCF integral mode      SCFMode         .... Direct
   Integral package                     .... LIBINT
 Reset frequency        DirectResetFreq ....    20
 Integral Threshold     Thresh          ....  1.000e-10 Eh
 Primitive CutOff       TCut            ....  1.000e-11 Eh

Convergence Tolerance:
 Convergence Check Mode ConvCheckMode   .... Total+1el-Energy
 Convergence forced     ConvForced      .... 0
 Energy Change          TolE            ....  1.000e-06 Eh
 1-El. energy change                    ....  1.000e-03 Eh
 DIIS Error             TolErr          ....  1.000e-06


Diagonalization of the overlap matrix:
Smallest eigenvalue                        ... 2.397e-03
Time for diagonalization                   ...    0.010 sec
Threshold for overlap eigenvalues          ... 1.000e-08
Number of eigenvalues below threshold      ... 0
Time for construction of square roots      ...    0.006 sec
Total time needed                          ...    0.017 sec

-------------------
DFT GRID GENERATION
-------------------

General Integration Accuracy     IntAcc      ...  4.670
Radial Grid Type                 RadialGrid  ... Gauss-Chebyshev
Angular Grid (max. acc.)         AngularGrid ... Lebedev-302
Angular grid pruning method      GridPruning ... 3 (G Style)
Weight generation scheme         WeightScheme... Becke
Basis function cutoff            BFCut       ...    1.0000e-10
Integration weight cutoff        WCut        ...    1.0000e-14
Grids for H and He will be reduced by one unit

# of grid points (after initial pruning)     ...  42632 (   0.0 sec)
# of grid points (after weights+screening)   ...  42194 (   0.0 sec)
nearest neighbour list constructed           ...    0.0 sec
Grid point re-assignment to atoms done       ...    0.0 sec
Grid point division into batches done        ...    0.4 sec
Reduced shell lists constructed in    0.4 sec

Total number of grid points                  ...    42194
Total number of batches                      ...      662
Average number of points per batch           ...       63
Average number of grid points per atom       ...    10548
Average number of shells per batch           ...    11.69 (18.27%)
Average number of basis functions per batch  ...    28.79 (12.85%)
Average number of large shells per batch     ...     7.52 (64.31%)
Average number of large basis fcns per batch ...    17.10 (59.40%)
Average number of aux-shells per batch       ...    11.69 ( 5.96%)
Average number of aux functions per batch    ...    28.79 ( 2.82%)
Maximum spatial batch extension              ...  24.21, 24.92, 26.73 au
Average spatial batch extension              ...   0.47,  0.46,  0.50 au

Time for grid setup =    0.436 sec

------------------------------
INITIAL GUESS: MODEL POTENTIAL
------------------------------
Loading Hartree-Fock densities                     ... done
  calling /sw/apps/orca/orca_4_2_0_linux_x86-64_openmpi314/orca Ag04N0_atom47.inp > Ag04N0_atom47.out in order to generate an atomic fitting density for atom 0 (Ag with ECP) on-the-fly... 
    atom 0 (Ag), assumed electronic state with S=2: 1s2 2s2 2p6 3s2 3p6 4s2 3d10 4p6 5s2 4d9           ... done
Calculating cut-offs                               ... done
Setting up the integral package                    ... done
Initializing the effective Hamiltonian             ... done
Starting the Coulomb interaction                   ... done (   0.0 sec)
Reading the grid                                   ... done
Mapping shells                                     ... done
Starting the XC term evaluation                    ... done (   0.0 sec)
  promolecular density results
     # of electrons  =    188.002003962
     EX              =   -576.359970295
     EC              =     -1.293363206
     EX+EC           =   -577.653333501
Transforming the Hamiltonian                       ... done (   0.0 sec)
Diagonalizing the Hamiltonian                      ... done (   0.0 sec)
Back transforming the eigenvectors                 ... done (   0.0 sec)
Now organizing SCF variables                       ... done
                      ------------------
                      INITIAL GUESS DONE (   1.7 sec)
                      ------------------
--------------
SCF ITERATIONS
--------------
ITER       Energy         Delta-E        Max-DP      RMS-DP      [F,P]     Damp
  0   -585.9273686130   0.000000000000 0.12395841  0.00209229  0.4869734 0.7000
  1   -585.4773089413   0.450059671680 0.11500596  0.00183749  0.3457097 0.7000
  2   -585.6317094524  -0.154400511159 0.09085701  0.00115855  0.2284227 0.7000
                               ***Turning on DIIS***
  3   -585.9394295764  -0.307720123930 0.06376358  0.00069787  0.1523522 0.7000
  4   -586.1512118007  -0.211782224371 0.04378165  0.00050175  0.1051584 0.7000
  5   -586.2660481524  -0.114836351612 0.11684765  0.00144341  0.0758649 0.0000
  6   -586.1952437193   0.070804433040 0.00837449  0.00022482  0.0320192 0.0000
  7   -586.1998724542  -0.004628734928 0.00318988  0.00011678  0.0157537 0.0000
  8   -586.2010607194  -0.001188265133 0.00278790  0.00009367  0.0076301 0.0000
  9   -586.2014109447  -0.000350225294 0.00306935  0.00004931  0.0016737 0.0000
 10   -586.2014385629  -0.000027618241 0.00318146  0.00004236  0.0005542 0.0000
 11   -586.2014435040  -0.000004941078 0.00081142  0.00000861  0.0001133 0.0000
                 **** Energy Check signals convergence ****

               *****************************************************
               *                     SUCCESS                       *
               *           SCF CONVERGED AFTER  12 CYCLES          *
               *****************************************************


----------------
TOTAL SCF ENERGY
----------------

Total Energy       :         -586.20144377 Eh          -15951.35224 eV

Components:
Nuclear Repulsion  :          390.94405557 Eh           10638.12858 eV
Electronic Energy  :         -977.14549934 Eh          -26589.48082 eV
One Electron Energy:        -1827.84368308 Eh          -49738.15526 eV
Two Electron Energy:          850.69818374 Eh           23148.67444 eV

Virial components:
Potential Energy   :         -812.19340785 Eh          -22100.90622 eV
Kinetic Energy     :          225.99196408 Eh            6149.55398 eV
Virial Ratio       :            3.59390393


DFT components:
N(Alpha)           :       38.000014515640 electrons
N(Beta)            :       38.000014515640 electrons
N(Total)           :       76.000029031280 electrons
E(X)               :      -15.594456567755 Eh       
E(C)               :       -1.563373328217 Eh       
E(XC)              :      -17.157829895972 Eh       
DFET-embed. en.    :        0.000000000000 Eh       

---------------
SCF CONVERGENCE
---------------

  Last Energy change         ...   -2.6375e-07  Tolerance :   1.0000e-06
  Last MAX-Density change    ...    2.3729e-04  Tolerance :   1.0000e-05
  Last RMS-Density change    ...    3.1293e-06  Tolerance :   1.0000e-06
  Last DIIS Error            ...    7.4550e-05  Tolerance :   1.0000e-06

             **** THE GBW FILE WAS UPDATED (Ag04N0.gbw) ****
             **** DENSITY FILE WAS UPDATED (Ag04N0.scfp) ****
             **** ENERGY FILE WAS UPDATED (Ag04N0.en.tmp) ****
             **** THE GBW FILE WAS UPDATED (Ag04N0.gbw) ****
             **** DENSITY FILE WAS UPDATED (Ag04N0.scfp) ****
----------------
ORBITAL ENERGIES
----------------

  NO   OCC          E(Eh)            E(eV) 
   0   2.0000      -4.128593      -112.3447 
   1   2.0000      -4.128066      -112.3304 
   2   2.0000      -4.098954      -111.5382 
   3   2.0000      -4.098906      -111.5369 
   4   2.0000      -2.636760       -71.7499 
   5   2.0000      -2.631168       -71.5977 
   6   2.0000      -2.630881       -71.5899 
   7   2.0000      -2.630524       -71.5802 
   8   2.0000      -2.630440       -71.5779 
   9   2.0000      -2.630374       -71.5761 
  10   2.0000      -2.602237       -70.8105 
  11   2.0000      -2.602058       -70.8056 
  12   2.0000      -2.600668       -70.7678 
  13   2.0000      -2.600577       -70.7653 
  14   2.0000      -2.599403       -70.7333 
  15   2.0000      -2.599357       -70.7321 
  16   2.0000      -0.497435       -13.5359 
  17   2.0000      -0.496073       -13.4988 
  18   2.0000      -0.479754       -13.0548 
  19   2.0000      -0.474237       -12.9046 
  20   2.0000      -0.470211       -12.7951 
  21   2.0000      -0.467928       -12.7330 
  22   2.0000      -0.456326       -12.4172 
  23   2.0000      -0.452649       -12.3172 
  24   2.0000      -0.439621       -11.9627 
  25   2.0000      -0.436216       -11.8700 
  26   2.0000      -0.427260       -11.6263 
  27   2.0000      -0.424315       -11.5462 
  28   2.0000      -0.423955       -11.5364 
  29   2.0000      -0.422813       -11.5053 
  30   2.0000      -0.417921       -11.3722 
  31   2.0000      -0.417110       -11.3502 
  32   2.0000      -0.415456       -11.3051 
  33   2.0000      -0.414813       -11.2876 
  34   2.0000      -0.409666       -11.1476 
  35   2.0000      -0.396657       -10.7936 
  36   2.0000      -0.290277        -7.8989 
  37   2.0000      -0.188004        -5.1158 
  38   0.0000      -0.042675        -1.1613 
  39   0.0000      -0.007393        -0.2012 
  40   0.0000       0.004290         0.1167 
  41   0.0000       0.033026         0.8987 
  42   0.0000       0.036739         0.9997 
  43   0.0000       0.055191         1.5018 
  44   0.0000       0.057054         1.5525 
  45   0.0000       0.079415         2.1610 
  46   0.0000       0.098913         2.6916 
  47   0.0000       0.109158         2.9703 
  48   0.0000       0.121576         3.3083 
  49   0.0000       0.136409         3.7119 
  50   0.0000       0.144740         3.9386 
  51   0.0000       0.158453         4.3117 
  52   0.0000       0.162321         4.4170 
  53   0.0000       0.193567         5.2672 
  54   0.0000       0.213188         5.8011 
  55   0.0000       0.230538         6.2733 
  56   0.0000       0.231085         6.2882 
  57   0.0000       0.238868         6.4999 
  58   0.0000       0.245043         6.6680 
  59   0.0000       0.248459         6.7609 
  60   0.0000       0.287824         7.8321 
  61   0.0000       0.308028         8.3819 
  62   0.0000       0.324521         8.8307 
  63   0.0000       0.336824         9.1654 
  64   0.0000       0.419144        11.4055 
  65   0.0000       0.441305        12.0085 
  66   0.0000       0.463637        12.6162 
  67   0.0000       0.470976        12.8159 
  68   0.0000       0.482794        13.1375 
  69   0.0000       0.497624        13.5410 
  70   0.0000       0.499418        13.5899 
  71   0.0000       0.543767        14.7966 
  72   0.0000       0.551327        15.0024 
  73   0.0000       0.566294        15.4096 
  74   0.0000       0.645268        17.5586 
  75   0.0000       0.655327        17.8323 
  76   0.0000       0.657781        17.8991 
  77   0.0000       0.663309        18.0495 
  78   0.0000       0.683910        18.6101 
  79   0.0000       0.687287        18.7020 
  80   0.0000       0.707684        19.2571 
  81   0.0000       0.731323        19.9003 
  82   0.0000       0.757301        20.6072 
  83   0.0000       0.774813        21.0837 
  84   0.0000       0.786960        21.4143 
  85   0.0000       0.794239        21.6123 
  86   0.0000       0.846077        23.0229 
  87   0.0000       0.921483        25.0748 
  88   0.0000       1.646413        44.8012 
  89   0.0000       1.700693        46.2782 
  90   0.0000       1.719246        46.7831 
  91   0.0000       1.724678        46.9309 
  92   0.0000       1.725612        46.9563 
  93   0.0000       1.733949        47.1831 
  94   0.0000       1.737333        47.2752 
  95   0.0000       1.751162        47.6515 
  96   0.0000       1.754232        47.7351 
  97   0.0000       1.757632        47.8276 
  98   0.0000       1.768784        48.1311 
  99   0.0000       1.787307        48.6351 
 100   0.0000       1.792039        48.7639 
 101   0.0000       1.793818        48.8123 
 102   0.0000       1.796177        48.8765 
 103   0.0000       1.805613        49.1332 
 104   0.0000       1.806904        49.1684 
 105   0.0000       1.806977        49.1703 
 106   0.0000       1.813514        49.3482 
 107   0.0000       1.814680        49.3799 
 108   0.0000       1.818043        49.4715 
 109   0.0000       1.822414        49.5904 
 110   0.0000       1.830569        49.8123 
 111   0.0000       1.835846        49.9559 
 112   0.0000       1.845902        50.2295 
 113   0.0000       1.846587        50.2482 
 114   0.0000       1.865669        50.7674 
 115   0.0000       1.871902        50.9370 
 116   0.0000       1.873912        50.9917 
 117   0.0000       1.897610        51.6366 
 118   0.0000       1.908786        51.9407 
 119   0.0000       1.919106        52.2215 
 120   0.0000       1.929852        52.5139 
 121   0.0000       1.936570        52.6968 
 122   0.0000       1.937113        52.7115 
 123   0.0000       1.944202        52.9044 
 124   0.0000       1.963536        53.4305 
 125   0.0000       2.055214        55.9252 
 126   0.0000       2.093139        56.9572 
 127   0.0000       2.191273        59.6276 
 128   0.0000       2.191996        59.6473 
 129   0.0000       2.290271        62.3214 
 130   0.0000       2.304941        62.7206 
 131   0.0000       2.317464        63.0614 
 132   0.0000       2.320094        63.1330 
 133   0.0000       2.333386        63.4947 
 134   0.0000       2.335712        63.5579 
 135   0.0000       2.338364        63.6301 
 136   0.0000       2.352204        64.0067 
 137   0.0000       2.361268        64.2534 
 138   0.0000       2.370535        64.5055 
 139   0.0000       2.371088        64.5206 
 140   0.0000       2.376609        64.6708 
 141   0.0000       2.419001        65.8244 
 142   0.0000       2.435861        66.2831 
 143   0.0000       2.440278        66.4033 
 144   0.0000       2.441495        66.4364 
 145   0.0000       2.459306        66.9211 
 146   0.0000       2.499618        68.0181 
 147   0.0000       2.582688        70.2785 
 148   0.0000       2.628122        71.5148 
 149   0.0000       2.765571        75.2550 
 150   0.0000       2.796072        76.0850 
 151   0.0000       2.879672        78.3599 
 152   0.0000       5.158330       140.3653 
 153   0.0000       5.159758       140.4042 
 154   0.0000       5.163958       140.5185 
 155   0.0000       5.178255       140.9075 
 156   0.0000       5.178363       140.9104 
 157   0.0000       5.186913       141.1431 
 158   0.0000       5.191075       141.2563 
 159   0.0000       5.193326       141.3176 
 160   0.0000       5.198162       141.4492 
 161   0.0000       5.198720       141.4644 
 162   0.0000       5.201570       141.5419 
 163   0.0000       5.230458       142.3280 
 164   0.0000       5.232226       142.3761 
 165   0.0000       5.232873       142.3937 
 166   0.0000       5.236081       142.4810 
 167   0.0000       5.252477       142.9272 
 168   0.0000       5.267425       143.3339 
 169   0.0000       5.269430       143.3885 
 170   0.0000       5.273400       143.4965 
 171   0.0000       5.275773       143.5611 
 172   0.0000       5.277635       143.6118 
 173   0.0000       5.286634       143.8566 
 174   0.0000       5.290598       143.9645 
 175   0.0000       5.381454       146.4368 
 176   0.0000       5.406839       147.1276 
 177   0.0000       5.426109       147.6519 
 178   0.0000       5.427227       147.6824 
 179   0.0000       5.463817       148.6780 
 180   0.0000       5.890508       160.2889 
 181   0.0000       5.891486       160.3155 
 182   0.0000       5.892164       160.3339 
 183   0.0000       5.892277       160.3370 
 184   0.0000       5.892497       160.3430 
 185   0.0000       5.892873       160.3532 
 186   0.0000       5.893382       160.3671 
 187   0.0000       5.893553       160.3717 
 188   0.0000       5.893872       160.3804 
 189   0.0000       5.895296       160.4192 
 190   0.0000       5.895767       160.4320 
 191   0.0000       5.896050       160.4397 
 192   0.0000       5.896418       160.4497 
 193   0.0000       5.896913       160.4632 
 194   0.0000       5.897057       160.4671 
 195   0.0000       5.897830       160.4881 
 196   0.0000       5.902471       160.6144 
 197   0.0000       5.912121       160.8770 
 198   0.0000       5.922530       161.1602 
 199   0.0000       5.923738       161.1931 
 200   0.0000       5.924288       161.2081 
 201   0.0000       5.924876       161.2241 
 202   0.0000       5.924932       161.2256 
 203   0.0000       5.925043       161.2286 
 204   0.0000       5.925438       161.2394 
 205   0.0000       5.925492       161.2408 
 206   0.0000       5.926379       161.2650 
 207   0.0000       5.926604       161.2711 
 208   0.0000       5.926676       161.2731 
 209   0.0000       5.926787       161.2761 
 210   0.0000       5.926850       161.2778 
 211   0.0000       5.927009       161.2821 
 212   0.0000       5.927802       161.3037 
 213   0.0000       5.928370       161.3192 
 214   0.0000       5.928693       161.3279 
 215   0.0000       5.931778       161.4119 
 216   0.0000      33.671606       916.2510 
 217   0.0000      33.977348       924.5706 
 218   0.0000      34.008407       925.4158 
 219   0.0000      34.089295       927.6169 
 220   0.0000     109.932621      2991.4187 
 221   0.0000     110.041116      2994.3710 
 222   0.0000     110.041233      2994.3742 
 223   0.0000     110.054281      2994.7292 

                    ********************************
                    * MULLIKEN POPULATION ANALYSIS *
                    ********************************

-----------------------
MULLIKEN ATOMIC CHARGES
-----------------------
   0 Ag:    0.147790
   1 Ag:   -0.147694
   2 Ag:    0.147474
   3 Ag:   -0.147569
Sum of atomic charges:    0.0000000

--------------------------------
MULLIKEN REDUCED ORBITAL CHARGES
--------------------------------
  0 Ags       :     2.539495  s :     2.539495
      pz      :     2.019624  p :     6.362087
      px      :     2.078809
      py      :     2.263653
      dz2     :     1.993550  d :     9.948696
      dxz     :     1.990479
      dyz     :     1.993640
      dx2y2   :     1.985910
      dxy     :     1.985117
      f0      :     0.000218  f :     0.001909
      f+1     :     0.000219
      f-1     :     0.000178
      f+2     :     0.000303
      f-2     :     0.000302
      f+3     :     0.000294
      f-3     :     0.000395
      g0      :     0.000002  g :     0.000023
      g+1     :     0.000002
      g-1     :     0.000002
      g+2     :     0.000002
      g-2     :     0.000002
      g+3     :     0.000003
      g-3     :     0.000004
      g+4     :     0.000004
      g-4     :     0.000003
  1 Ags       :     3.121379  s :     3.121379
      pz      :     2.004401  p :     6.076664
      px      :     2.014583
      py      :     2.057680
      dz2     :     1.994246  d :     9.948725
      dxz     :     1.995495
      dyz     :     1.989610
      dx2y2   :     1.984385
      dxy     :     1.984989
      f0      :     0.000088  f :     0.000916
      f+1     :     0.000051
      f-1     :     0.000127
      f+2     :     0.000119
      f-2     :     0.000112
      f+3     :     0.000182
      f-3     :     0.000236
      g0      :     0.000001  g :     0.000011
      g+1     :     0.000001
      g-1     :     0.000001
      g+2     :     0.000001
      g-2     :     0.000001
      g+3     :     0.000001
      g-3     :     0.000002
      g+4     :     0.000003
      g-4     :     0.000002
  2 Ags       :     2.539604  s :     2.539604
      pz      :     2.019623  p :     6.362372
      px      :     2.078865
      py      :     2.263883
      dz2     :     1.993536  d :     9.948613
      dxz     :     1.990474
      dyz     :     1.993634
      dx2y2   :     1.985896
      dxy     :     1.985073
      f0      :     0.000218  f :     0.001914
      f+1     :     0.000219
      f-1     :     0.000179
      f+2     :     0.000303
      f-2     :     0.000303
      f+3     :     0.000295
      f-3     :     0.000397
      g0      :     0.000002  g :     0.000023
      g+1     :     0.000002
      g-1     :     0.000002
      g+2     :     0.000002
      g-2     :     0.000002
      g+3     :     0.000003
      g-3     :     0.000004
      g+4     :     0.000004
      g-4     :     0.000003
  3 Ags       :     3.121243  s :     3.121243
      pz      :     2.004412  p :     6.076732
      px      :     2.014562
      py      :     2.057758
      dz2     :     1.994241  d :     9.948664
      dxz     :     1.995492
      dyz     :     1.989592
      dx2y2   :     1.984402
      dxy     :     1.984937
      f0      :     0.000089  f :     0.000919
      f+1     :     0.000051
      f-1     :     0.000127
      f+2     :     0.000119
      f-2     :     0.000113
      f+3     :     0.000183
      f-3     :     0.000237
      g0      :     0.000001  g :     0.000011
      g+1     :     0.000001
      g-1     :     0.000001
      g+2     :     0.000001
      g-2     :     0.000001
      g+3     :     0.000001
      g-3     :     0.000002
      g+4     :     0.000003
      g-4     :     0.000002


                     *******************************
                     * LOEWDIN POPULATION ANALYSIS *
                     *******************************

----------------------
LOEWDIN ATOMIC CHARGES
----------------------
   0 Ag:   -0.086517
   1 Ag:    0.086861
   2 Ag:   -0.087322
   3 Ag:    0.086978

-------------------------------
LOEWDIN REDUCED ORBITAL CHARGES
-------------------------------
  0 Ags       :     2.471893  s :     2.471893
      pz      :     2.039425  p :     6.636795
      px      :     2.150384
      py      :     2.446985
      dz2     :     1.995238  d :     9.974957
      dxz     :     1.996757
      dyz     :     1.997223
      dx2y2   :     1.993378
      dxy     :     1.992362
      f0      :     0.000277  f :     0.002841
      f+1     :     0.000318
      f-1     :     0.000265
      f+2     :     0.000470
      f-2     :     0.000465
      f+3     :     0.000405
      f-3     :     0.000641
      g0      :     0.000002  g :     0.000032
      g+1     :     0.000003
      g-1     :     0.000002
      g+2     :     0.000003
      g-2     :     0.000003
      g+3     :     0.000003
      g-3     :     0.000006
      g+4     :     0.000005
      g-4     :     0.000004
  1 Ags       :     2.812075  s :     2.812075
      pz      :     2.008873  p :     6.138322
      px      :     2.028708
      py      :     2.100741
      dz2     :     1.997134  d :     9.961343
      dxz     :     1.996113
      dyz     :     1.990011
      dx2y2   :     1.988581
      dxy     :     1.989504
      f0      :     0.000137  f :     0.001384
      f+1     :     0.000077
      f-1     :     0.000189
      f+2     :     0.000162
      f-2     :     0.000154
      f+3     :     0.000280
      f-3     :     0.000386
      g0      :     0.000001  g :     0.000015
      g+1     :     0.000001
      g-1     :     0.000002
      g+2     :     0.000001
      g-2     :     0.000001
      g+3     :     0.000001
      g-3     :     0.000002
      g+4     :     0.000004
      g-4     :     0.000002
  2 Ags       :     2.472091  s :     2.472091
      pz      :     2.039413  p :     6.637481
      px      :     2.150513
      py      :     2.447555
      dz2     :     1.995236  d :     9.974870
      dxz     :     1.996744
      dyz     :     1.997203
      dx2y2   :     1.993351
      dxy     :     1.992337
      f0      :     0.000277  f :     0.002848
      f+1     :     0.000319
      f-1     :     0.000266
      f+2     :     0.000470
      f-2     :     0.000466
      f+3     :     0.000407
      f-3     :     0.000643
      g0      :     0.000002  g :     0.000032
      g+1     :     0.000003
      g-1     :     0.000002
      g+2     :     0.000003
      g-2     :     0.000003
      g+3     :     0.000003
      g-3     :     0.000006
      g+4     :     0.000005
      g-4     :     0.000004
  3 Ags       :     2.811871  s :     2.811871
      pz      :     2.008891  p :     6.138436
      px      :     2.028699
      py      :     2.100845
      dz2     :     1.997132  d :     9.961311
      dxz     :     1.996107
      dyz     :     1.990000
      dx2y2   :     1.988584
      dxy     :     1.989486
      f0      :     0.000138  f :     0.001390
      f+1     :     0.000078
      f-1     :     0.000189
      f+2     :     0.000162
      f-2     :     0.000155
      f+3     :     0.000281
      f-3     :     0.000387
      g0      :     0.000001  g :     0.000015
      g+1     :     0.000001
      g-1     :     0.000002
      g+2     :     0.000001
      g-2     :     0.000001
      g+3     :     0.000001
      g-3     :     0.000002
      g+4     :     0.000004
      g-4     :     0.000002


                      *****************************
                      * MAYER POPULATION ANALYSIS *
                      *****************************

  NA   - Mulliken gross atomic population
  ZA   - Total nuclear charge
  QA   - Mulliken gross atomic charge
  VA   - Mayer's total valence
  BVA  - Mayer's bonded valence
  FA   - Mayer's free valence

  ATOM       NA         ZA         QA         VA         BVA        FA
  0 Ag    18.8522    19.0000     0.1478     1.4183     1.4183     0.0000
  1 Ag    19.1477    19.0000    -0.1477     1.1383     1.1383    -0.0000
  2 Ag    18.8525    19.0000     0.1475     1.4189     1.4189     0.0000
  3 Ag    19.1476    19.0000    -0.1476     1.1385     1.1385     0.0000

  Mayer bond orders larger than 0.100000
B(  0-Ag,  1-Ag) :   0.5035 B(  0-Ag,  2-Ag) :   0.4109 B(  0-Ag,  3-Ag) :   0.5038 
B(  1-Ag,  2-Ag) :   0.5040 B(  1-Ag,  3-Ag) :   0.1307 B(  2-Ag,  3-Ag) :   0.5040 


-------
TIMINGS
-------

Total SCF time: 0 days 0 hours 0 min 7 sec 

Total time                  ....       7.203 sec
Sum of individual times     ....       7.067 sec  ( 98.1%)

Fock matrix formation       ....       5.201 sec  ( 72.2%)
  XC integration            ....       0.365 sec  (  7.0% of F)
    Basis function eval.    ....       0.070 sec  ( 19.1% of XC)
    Density eval.           ....       0.055 sec  ( 15.2% of XC)
    XC-Functional eval.     ....       0.017 sec  (  4.6% of XC)
    XC-Potential eval.      ....       0.082 sec  ( 22.6% of XC)
Diagonalization             ....       0.091 sec  (  1.3%)
Density matrix formation    ....       0.014 sec  (  0.2%)
Population analysis         ....       0.008 sec  (  0.1%)
Initial guess               ....       1.274 sec  ( 17.7%)
Orbital Transformation      ....       0.000 sec  (  0.0%)
Orbital Orthonormalization  ....       0.000 sec  (  0.0%)
DIIS solution               ....       0.045 sec  (  0.6%)
Grid generation             ....       0.436 sec  (  6.1%)


           ************************************************************
           *        Program running with 24 parallel MPI-processes    *
           *              working on a common directory               *
           ************************************************************

------------------------------------------------------------------------------
                                ORCA  MP2 
------------------------------------------------------------------------------

Freezing NCore=0 chemical core electrons

-------------
RI-MP2 ENERGY
-------------
Dimension of the basis                    ...  224
Memory devoted to MP2                     ... 5000 MB   
Data format for buffers                   ... DOUBLE
Compression type for matrix containers    ... UNCOMPRESSED
Scaling for aa/bb pairs                   ...   4.000e-01
Scaling for ab pairs                      ...   4.700e-01
Overall scaling of the MP2 energy         ...   1.000e+00
Calculating two index integrals           ... done (    0.020 sec)
Cholesky decomposition of V**-1           ... done (    0.024 sec)

-----------------
RI-TRANSFORMATION (AUX index driven)
-----------------

Dimension of the orbital-basis         ... 224
Dimension of the aux-basis             ... 704
Transformation of internal/external MOs...    0-  37 to   38- 223
Number Format for Storage              ... Double (8 Byte)
Integral mode                          ... Direct

First Phase: integral generation and transformation of MO indices
  Aux angular momentum 0               ... done (    0.002 sec)
  Aux angular momentum 1               ... done (    0.004 sec)
  Aux angular momentum 2               ... done (    0.004 sec)
  Aux angular momentum 3               ... done (    0.006 sec)
  Aux angular momentum 4               ... done (    0.008 sec)
  Aux angular momentum 5               ... done (    0.012 sec)
  Aux angular momentum 6               ... done (    0.018 sec)
Closing buffer VIA ( 0.04 GB; CompressionRatio= 1.00)
  Phase 1 completed in     0.127 sec
Second Phase: sorting and transformation of aux index

IA-Transformation
Memory available                       ... 4993 MB 
Max. # MO pairs treated in a batch     ... 2    
# of internal orbitals                 ... 38
# batches for internal orbitals        ... 1
Closing buffer IAV ( 0.00 GB; CompressionRatio= 1.00)
(ia|v) transformation done in     0.024 sec

  Phase 2 completed in     0.059 sec
RI-Integral transformation completed in     0.187 sec
Opening buffers                              ... done

Starting loop over batches of integrals:

Operator 0  - window                       ... (  0- 37)x( 38-223)
Operator 0  - Memory available             ...  5000 MB
Operator 0  - Memory needed per MO         ...   1.0 MB
Operator 0  - Number of orbitals per batch ... 2
Operator 0  - Number of batches            ... 1

OPERATOR  0   PASS   0:  MOs     0 ...    1 +    2 ...    3 +    4 ...    5 +    6 ...    7
                            +    8 ...    9 +   10 ...   11 +   12 ...   13 +   14 ...   15
                            +   16 ...   17 +   18 ...   19 +   20 ...   21 +   22 ...   23
                            +   24 ...   25 +   26 ...   27 +   28 ...   29 +   30 ...   31
                            +   32 ...   33 +   34 ...   35 +   36 ...   37
  Reading integrals       ... ok
Time spent in pair loops =     0.007 sec

-----------------------------------------------
 RI-MP2 CORRELATION ENERGY:     -1.342653767 Eh
-----------------------------------------------


-------
TIMINGS
-------

Total time                :    0.349 sec
Integral trafo            :    0.202 sec ( 57.9%)
I/O of integrals          :    0.002 sec (  0.4%)
K(i,j) Operators          :    0.003 sec (  0.9%)
T(i,j) pair energies      :    0.000 sec (  0.1%)
V-calculation             :    0.020 sec (  5.8%)
V**(-1/2)                 :    0.024 sec (  7.0%)
Gamma(ia|P)               :    0.000 sec (  0.0%)
Gamma-Trafo               :    0.000 sec (  0.0%)
D(virtual)                :    0.000 sec (  0.0%)
D(internal)               :    0.000 sec (  0.0%)
W(virtual)                :    0.000 sec (  0.0%)
W(internal)               :    0.000 sec (  0.0%)
L(virtual)                :    0.000 sec (  0.0%)
L(internal)               :    0.000 sec (  0.0%)
G(D)                      :    0.000 sec (  0.0%)
G(Z)                      :    0.000 sec (  0.0%)
Z-Vector Solution         :    0.000 sec (  0.0%)
Z-Vector Solution         :    0.000 sec (  0.0%)
3-Index Derivative 
+ Separable RIJ part      :    0.000 sec (  0.0%)
2-Index Derivative 
+ Separable RIJ part      :    0.000 sec (  0.0%)
Separable Gradient (X)    :    0.000 sec (  0.0%)


---------------------------------------
MP2 TOTAL ENERGY:     -587.544097535 Eh
---------------------------------------


-------------------------------------------------------------------------------
                          DFT DISPERSION CORRECTION                            
                                                                               
                              DFTD3 V3.1  Rev 1                                
                          USING Becke-Johnson damping                          
-------------------------------------------------------------------------------
The DSD-BLYP/2013 functional is recognized
Active option DFTDOPT                   ...         4   

molecular C6(AA) [au] = 4297.871879 


            DFT-D V3
 parameters
 s6 scaling factor         :     0.5700 
 a1 scaling factor         :     0.0000 
 s8 scaling factor         :     0.0000 
 a2 scaling factor         :     5.4000 
 ad hoc parameters k1-k3   :    16.0000     1.3333    -4.0000 

 Edisp/kcal,au: -11.277313513966  -0.017971541112 
 E6   /kcal   : -11.277313514 
 E8   /kcal   :  -0.000000000 
 % E8         :   0.000000000 

-------------------------   ----------------
Dispersion correction           -0.017971541
-------------------------   ----------------


-------------------------   --------------------
FINAL SINGLE POINT ENERGY      -587.562069076056
-------------------------   --------------------


                            ***************************************
                            *     ORCA property calculations      *
                            ***************************************


  WARNING: The energy has been calculated at the MP2 level but the densities
           used in the property calculations are still SCF densities
           MP2 response densities have not been calculated 
           use %mp2 Density relaxed end
           or  %mp2 Density unrelaxed end

                                    ---------------------
                                    Active property flags
                                    ---------------------
   (+) Dipole Moment


------------------------------------------------------------------------------
                       ORCA ELECTRIC PROPERTIES CALCULATION
------------------------------------------------------------------------------

Dipole Moment Calculation                       ... on
Quadrupole Moment Calculation                   ... off
Polarizability Calculation                      ... off
GBWName                                         ... Ag04N0.gbw
Electron density file                           ... Ag04N0.scfp
The origin for moment calculation is the CENTER OF MASS  = (-0.000000, -0.000000 -0.000000)

-------------
DIPOLE MOMENT
-------------
                                X             Y             Z
Electronic contribution:     -0.00144       0.00025       0.00076
Nuclear contribution   :      0.00000       0.00000       0.00000
                        -----------------------------------------
Total Dipole Moment    :     -0.00144       0.00025       0.00076
                        -----------------------------------------
Magnitude (a.u.)       :      0.00165
Magnitude (Debye)      :      0.00418



--------------------
Rotational spectrum 
--------------------
 
Rotational constants in cm-1:     0.045790     0.013394     0.010363 
Rotational constants in MHz :  1372.764620   401.554164   310.676613 

 Dipole components along the rotational axes: 
x,y,z [a.u.] :    -0.000798    -0.001438     0.000005 
x,y,z [Debye]:    -0.002029    -0.003656     0.000012 

 

Timings for individual modules:

Sum of individual times         ...        9.875 sec (=   0.165 min)
GTO integral calculation        ...        1.488 sec (=   0.025 min)  15.1 %
SCF iterations                  ...        7.575 sec (=   0.126 min)  76.7 %
MP2 module                      ...        0.812 sec (=   0.014 min)   8.2 %
                             ****ORCA TERMINATED NORMALLY****
TOTAL RUN TIME: 0 days 0 hours 0 minutes 10 seconds 386 msec
