
                                 *****************
                                 * O   R   C   A *
                                 *****************

           --- An Ab Initio, DFT and Semiempirical electronic structure package ---

                  #######################################################
                  #                        -***-                        #
                  #          Department of theory and spectroscopy      #
                  #               Directorship: Frank Neese             #
                  #        Max Planck Institute fuer Kohlenforschung    #
                  #                Kaiser Wilhelm Platz 1               #
                  #                 D-45470 Muelheim/Ruhr               #
                  #                      Germany                        #
                  #                                                     #
                  #                  All rights reserved                #
                  #                        -***-                        #
                  #######################################################


                         Program Version 4.2.0 -  RELEASE  -


 With contributions from (in alphabetic order):
   Daniel Aravena         : Magnetic Suceptibility
   Michael Atanasov       : Ab Initio Ligand Field Theory (pilot matlab implementation)
   Alexander A. Auer      : GIAO ZORA, VPT2
   Ute Becker             : Parallelization
   Giovanni Bistoni       : ED, misc. LED, open-shell LED, HFLED
   Martin Brehm           : Molecular dynamics
   Dmytro Bykov           : SCF Hessian
   Vijay G. Chilkuri      : MRCI spin determinant printing, contributions to CSF-ICE
   Dipayan Datta          : RHF DLPNO-CCSD density
   Achintya Kumar Dutta   : EOM-CC, STEOM-CC
   Dmitry Ganyushin       : Spin-Orbit,Spin-Spin,Magnetic field MRCI
   Miquel Garcia          : C-PCM Hessian, Gaussian charge scheme
   Yang Guo               : DLPNO-NEVPT2, CIM, IAO-localization
   Andreas Hansen         : Spin unrestricted coupled pair/coupled cluster methods
   Benjamin Helmich-Paris : CASSCF linear response (MC-RPA)
   Lee Huntington         : MR-EOM, pCC
   Robert Izsak           : Overlap fitted RIJCOSX, COSX-SCS-MP3, EOM
   Christian Kollmar      : KDIIS, OOCD, Brueckner-CCSD(T), CCSD density
   Simone Kossmann        : Meta GGA functionals, TD-DFT gradient, OOMP2, MP2 Hessian
   Martin Krupicka        : AUTO-CI
   Lucas Lang             : DCDCAS
   Dagmar Lenk            : GEPOL surface, SMD
   Dimitrios Liakos       : Extrapolation schemes; Compound Job, initial MDCI parallelization
   Dimitrios Manganas     : Further ROCIS development; embedding schemes
   Dimitrios Pantazis     : SARC Basis sets
   Taras Petrenko         : DFT Hessian,TD-DFT gradient, ASA, ECA, R-Raman, ABS, FL, XAS/XES, NRVS
   Peter Pinski           : DLPNO-MP2, DLPNO-MP2 Gradient
   Christoph Reimann      : Effective Core Potentials
   Marius Retegan         : Local ZFS, SOC
   Christoph Riplinger    : Optimizer, TS searches, QM/MM, DLPNO-CCSD(T), (RO)-DLPNO pert. Triples
   Tobias Risthaus        : Range-separated hybrids, TD-DFT gradient, RPA, STAB
   Michael Roemelt        : Original ROCIS implementation
   Masaaki Saitow         : Open-shell DLPNO-CCSD energy and density
   Barbara Sandhoefer     : DKH picture change effects
   Avijit Sen             : IP-ROCIS
   Kantharuban Sivalingam : CASSCF convergence, NEVPT2, FIC-MRCI
   Bernardo de Souza      : ESD, SOC TD-DFT
   Georgi Stoychev        : AutoAux, RI-MP2 NMR
   Willem Van den Heuvel  : Paramagnetic NMR
   Boris Wezisla          : Elementary symmetry handling
   Frank Wennmohs         : Technical directorship


 We gratefully acknowledge several colleagues who have allowed us to
 interface, adapt or use parts of their codes:
   Stefan Grimme, W. Hujo, H. Kruse,             : VdW corrections, initial TS optimization,
                  C. Bannwarth                     DFT functionals, gCP, sTDA/sTD-DF
   Ed Valeev, F. Pavosevic, A. Kumar             : LibInt (2-el integral package), F12 methods
   Garnet Chan, S. Sharma, J. Yang, R. Olivares  : DMRG
   Ulf Ekstrom                                   : XCFun DFT Library
   Mihaly Kallay                                 : mrcc  (arbitrary order and MRCC methods)
   Andreas Klamt, Michael Diedenhofen            : otool_cosmo (COSMO solvation model)
   Jiri Pittner, Ondrej Demel                    : Mk-CCSD
   Frank Weinhold                                : gennbo (NPA and NBO analysis)
   Christopher J. Cramer and Donald G. Truhlar   : smd solvation model
   Lars Goerigk                                  : TD-DFT with DH, B97 family of functionals
   V. Asgeirsson, H. Jonsson                     : NEB implementation
   FAccTs GmbH                                   : IRC, NEB, NEB-TS, Multilevel, MM, QM/MM, CI optimization
   S Lehtola, MJT Oliveira, MAL Marques          : LibXC Library


 Your calculation uses the libint2 library for the computation of 2-el integrals
 For citations please refer to: http://libint.valeyev.net

 Your ORCA version has been built with support for libXC version: 4.2.3
 For citations please refer to: https://tddft.org/programs/libxc/

 This ORCA versions uses:
   CBLAS   interface :  Fast vector & matrix operations
   LAPACKE interface :  Fast linear algebra routines
   SCALAPACK package :  Parallel linear algebra routines


Your calculation utilizes the atom-pairwise dispersion correction
with the Becke-Johnson damping scheme (D3BJ)
Cite in your paper:
S.Grimme, S.Ehrlich, L.Goerigk, J Comput Chem, (2011), 32, 1456–1465 
S.Grimme, J.Antony, S.Ehrlich and H.Krieg, J.Chem.Phys., 132, (2010), 154104 
   

----- Orbital basis set information -----
Your calculation utilizes the basis: def2-TZVPPD
   F. Weigend and R. Ahlrichs, Phys. Chem. Chem. Phys. 7, 3297 (2005).
   D. Rappoport and F. Furche, J. Chem. Phys. 133 134105 (2010).

----- AuxC basis set information -----
Your calculation utilizes the auxiliary basis: def2-TZVPPD/C
   A. Hellweg, C. Hattig, S. Hofener and W. Klopper, Theor. Chem. Acc. 117, 587 (2007).

----- AuxJK basis set information -----
Your calculation utilizes the auxiliary basis: def2/JK
   H-Ba, Hf-Rn: F. Weigend, J. Comput. Chem. 29, 167 (2008).

cite the ECPs for Au [Def2-ECP] as follows:
Ce-Yb(ecp-28): M. Dolg, H. Stoll, H.Preuss, J. Chem. Phys., 1989, 90, 1730-1734.
Y-Cd(ecp-28), Hf-Hg(ecp-46): D. Andrae,U. Haeussermann, M. Dolg, H. Stoll, H. Preuss, Theor. Chim. Acta, 1990, 77, 123-141.
In-Sb(ecp-28), Tl-Bi(ecp-46): B. Metz, H. Stoll, M. Dolg, J. Chem. Phys., 2000, 113, 2563-2569.
Te-Xe(ecp-28), Po-Rn(ecp-46): K. A. Peterson, D. Figgen, E. Goll, H. Stoll, M. Dolg, J. Chem. Phys., 2003, 119, 11113-11123.
Rb(ecp-28), Cs(ecp-46): T. Leininger, A. Nicklass, W. Kuechle, H. Stoll, M. Dolg, A. Bergner, Chem. Phys. Lett., 1996, 255, 274-280.
Sr(ecp-28), Ba(ecp-46): M. Kaupp, P. V. Schleyer, H. Stoll and H. Preuss, J. Chem. Phys., 1991, 94, 1360-1366.
La(ecp-46): M. Dolg, H. Stoll, A. Savin, H. Preuss, Theor. Chim. Acta, 1989, 75, 173-194.
Lu(ecp-28): X. Cao, M. Dolg, J. Chem. Phys., 2001, 115, 7348-7355.

ECP parameters for Au [Def2-ECP] have been obtained from:
TURBOMOLE (7.0.2)

================================================================================
                                        WARNINGS
                       Please study these warnings very carefully!
================================================================================


WARNING: No MP2 level density has been requested!
         To caclulate MP2 level properties use
         %mp2 Density relaxed end
         or
         %mp2 Density unrelaxed end
         Otherwise for double-hybrid DFT only the energy is correct!

WARNING: There are different parametrizations of Gershom Martin's DSD-DFs
         for use with and without D3(BJ)!
         You are using the D3(BJ) parametrized version,
         consistent with the 2013 article (S. Kozuch and J. M. L. Martin, JCC 2013, 34, 2327)

WARNING: The frozen-core approximation is turned on by default for 
         the MP2 part of double-hybrid DFT.

INFO   : the flag for use of LIBINT has been found!

================================================================================
                                       INPUT FILE
================================================================================
NAME = Au03C1_LIN.in
|  1> #
|  2> # Au03C1_LIN ri-DSD-BLYP/2013-D3BJ/Def2-TZVPPD
|  3> #
|  4> ! rijk ri-dsd-blyp/2013 d3bj def2-tzvppd def2/jk def2-tzvppd/c grid4 nofinalgrid
|  5> 
|  6> *xyz 1 1
|  7> Au       0.000000    0.000000    0.000000 
|  8> Au       0.000000    0.000000    2.576864 
|  9> Au       0.000000    0.000000   -2.576864 
| 10> *
| 11> 
| 12> %maxcore 5000
| 13> 
| 14> %pal
| 15> nprocs = 24
| 16> end
| 17> 
| 18> 
| 19>                          ****END OF INPUT****
================================================================================

                       ****************************
                       * Single Point Calculation *
                       ****************************

---------------------------------
CARTESIAN COORDINATES (ANGSTROEM)
---------------------------------
  Au     0.000000    0.000000    0.000000
  Au     0.000000    0.000000    2.576864
  Au     0.000000    0.000000   -2.576864

----------------------------
CARTESIAN COORDINATES (A.U.)
----------------------------
  NO LB      ZA    FRAG     MASS         X           Y           Z
   0 Au   19.0000*   0   196.966    0.000000    0.000000    0.000000
   1 Au   19.0000*   0   196.966    0.000000    0.000000    4.869567
   2 Au   19.0000*   0   196.966    0.000000    0.000000   -4.869567
* core charge reduced due to ECP

--------------------------------
INTERNAL COORDINATES (ANGSTROEM)
--------------------------------
 Au     0   0   0     0.000000000000     0.00000000     0.00000000
 Au     1   0   0     2.576864000000     0.00000000     0.00000000
 Au     1   2   0     2.576864000000   179.99999915     0.00000000

---------------------------
INTERNAL COORDINATES (A.U.)
---------------------------
 Au     0   0   0     0.000000000000     0.00000000     0.00000000
 Au     1   0   0     4.869567244361     0.00000000     0.00000000
 Au     1   2   0     4.869567244361   179.99999915     0.00000000

---------------------
BASIS SET INFORMATION
---------------------
There are 1 groups of distinct atoms

 Group   1 Type Au  : 8s8p6d2f1g contracted to 6s5p3d2f1g pattern {311111/41111/411/11/1}

Atom   0Au   basis set group =>   1
Atom   1Au   basis set group =>   1
Atom   2Au   basis set group =>   1
---------------------------------
AUXILIARY/C BASIS SET INFORMATION
---------------------------------
There are 1 groups of distinct atoms

 Group   1 Type Au  : 9s9p8d5f4g3h1i contracted to 9s9p8d5f4g3h1i pattern {111111111/111111111/11111111/11111/1111/111/1}

Atom   0Au   basis set group =>   1
Atom   1Au   basis set group =>   1
Atom   2Au   basis set group =>   1
----------------------------------
AUXILIARY/JK BASIS SET INFORMATION
----------------------------------
There are 1 groups of distinct atoms

 Group   1 Type Au  : 13s12p11d9f5g3h2i contracted to 13s11p10d8f4g3h2i pattern {1111111111111/21111111111/2111111111/21111111/2111/111/11}

Atom   0Au   basis set group =>   1
Atom   1Au   basis set group =>   1
Atom   2Au   basis set group =>   1
-------------------------
ECP PARAMETER INFORMATION
-------------------------

 Group 1, Type Au ECP Def2-ECP (replacing 60 core electrons, lmax=3)

Atom   0Au   ECP group =>   1
Atom   1Au   ECP group =>   1
Atom   2Au   ECP group =>   1



           ************************************************************
           *        Program running with 24 parallel MPI-processes    *
           *              working on a common directory               *
           ************************************************************
------------------------------------------------------------------------------
                           ORCA GTO INTEGRAL CALCULATION
                           -- RI-GTO INTEGRALS CHOSEN --
------------------------------------------------------------------------------

                         BASIS SET STATISTICS AND STARTUP INFO

Gaussian basis set:
 # of primitive gaussian shells          ...   75
 # of primitive gaussian functions       ...  255
 # of contracted shells                  ...   51
 # of contracted basis functions         ...  177
 Highest angular momentum                ...    4
 Maximum contraction depth               ...    4
Auxiliary gaussian basis set:
 # of primitive gaussian shells          ...  165
 # of primitive gaussian functions       ...  813
 # of contracted shells                  ...  153
 # of contracted aux-basis functions     ...  741
 Highest angular momentum                ...    6
 Maximum contraction depth               ...    2
Ratio of auxiliary to basis functions    ...  4.19
Integral package used                  ... LIBINT
 One Electron integrals                  
   ECP integrals                         ... done
 Ordering auxiliary basis shells         ... done
 Integral threshhold             Thresh  ...  1.000e-10
 Primitive cut-off               TCut    ...  1.000e-11
 Pre-screening matrix                    ... done
 Shell pair data                         ... 
 Ordering of the shell pairs             ... done (   0.000 sec) 1213 of 1326 pairs
 Determination of significant pairs      ... done (   0.000 sec)
 Creation of shell pair data             ... done (   0.000 sec)
 Storage of shell pair data              ... done (   0.007 sec)
 Shell pair data done in (   0.007 sec)
 Computing two index integrals           ... done
 Cholesky decomposition of the V-matrix  ... done


Timings:
 Total evaluation time                   ...   0.712 sec (  0.012 min)
 One electron matrix time                ...   0.376 sec (  0.006 min) = 52.9%
 Schwartz matrix evaluation time         ...   0.142 sec (  0.002 min) = 19.9%
 Two index repulsion integral time       ...   0.147 sec (  0.002 min) = 20.6%
 Cholesky decomposition of V             ...   0.009 sec (  0.000 min) =  1.3%
 Three index repulsion integral time     ...   0.000 sec (  0.000 min) =  0.0%



           ************************************************************
           *        Program running with 24 parallel MPI-processes    *
           *              working on a common directory               *
           ************************************************************
-------------------------------------------------------------------------------
                                 ORCA SCF
-------------------------------------------------------------------------------

------------
SCF SETTINGS
------------
Hamiltonian:
 Density Functional     Method          .... DFT(GTOs)
 Exchange Functional    Exchange        .... B88
   X-Alpha parameter    XAlpha          ....  0.666667
   Becke's b parameter  XBeta           ....  0.004200
 Correlation Functional Correlation     .... LYP
 LDA part of GGA corr.  LDAOpt          .... VWN-5
 Gradients option       PostSCFGGA      .... off
 Hybrid DFT is turned on
   Fraction HF Exchange ScalHFX         ....  0.710000
   Scaling of DF-GGA-X  ScalDFX         ....  0.290000
   Scaling of DF-GGA-C  ScalDFC         ....  0.540000
   Scaling of DF-LDA-C  ScalLDAC        ....  0.540000
   Perturbative correction              ....  1.000000
   Density functional embedding theory  .... OFF
 RI-approximation to the Coulomb term is turned on
   Number of auxiliary basis functions  .... 741
   RI-JK (J+K treated both via RI)      .... on


General Settings:
 Integral files         IntName         .... Au03C1_LIN
 Hartree-Fock type      HFTyp           .... RHF
 Total Charge           Charge          ....    1
 Multiplicity           Mult            ....    1
 Number of Electrons    NEL             ....   56
 Basis Dimension        Dim             ....  177
 Nuclear Repulsion      ENuc            ....    185.3347442825 Eh

Convergence Acceleration:
 DIIS                   CNVDIIS         .... on
   Start iteration      DIISMaxIt       ....    12
   Startup error        DIISStart       ....  0.200000
   # of expansion vecs  DIISMaxEq       ....     5
   Bias factor          DIISBfac        ....   1.050
   Max. coefficient     DIISMaxC        ....  10.000
 Newton-Raphson         CNVNR           .... off
 SOSCF                  CNVSOSCF        .... off
 Level Shifting         CNVShift        .... on
   Level shift para.    LevelShift      ....    0.2500
   Turn off err/grad.   ShiftErr        ....    0.0010
 Zerner damping         CNVZerner       .... off
 Static damping         CNVDamp         .... on
   Fraction old density DampFac         ....    0.7000
   Max. Damping (<1)    DampMax         ....    0.9800
   Min. Damping (>=0)   DampMin         ....    0.0000
   Turn off err/grad.   DampErr         ....    0.1000
 Fernandez-Rico         CNVRico         .... off

SCF Procedure:
 Maximum # iterations   MaxIter         ....   125
 SCF integral mode      SCFMode         .... Direct
   Integral package                     .... LIBINT
 Reset frequency        DirectResetFreq ....    20
 Integral Threshold     Thresh          ....  1.000e-10 Eh
 Primitive CutOff       TCut            ....  1.000e-11 Eh

Convergence Tolerance:
 Convergence Check Mode ConvCheckMode   .... Total+1el-Energy
 Convergence forced     ConvForced      .... 0
 Energy Change          TolE            ....  1.000e-06 Eh
 1-El. energy change                    ....  1.000e-03 Eh
 DIIS Error             TolErr          ....  1.000e-06


Diagonalization of the overlap matrix:
Smallest eigenvalue                        ... 7.965e-04
Time for diagonalization                   ...    0.008 sec
Threshold for overlap eigenvalues          ... 1.000e-08
Number of eigenvalues below threshold      ... 0
Time for construction of square roots      ...    0.003 sec
Total time needed                          ...    0.011 sec

-------------------
DFT GRID GENERATION
-------------------

General Integration Accuracy     IntAcc      ...  4.670
Radial Grid Type                 RadialGrid  ... Gauss-Chebyshev
Angular Grid (max. acc.)         AngularGrid ... Lebedev-302
Angular grid pruning method      GridPruning ... 3 (G Style)
Weight generation scheme         WeightScheme... Becke
Basis function cutoff            BFCut       ...    1.0000e-10
Integration weight cutoff        WCut        ...    1.0000e-14
Grids for H and He will be reduced by one unit

# of grid points (after initial pruning)     ...  34956 (   0.0 sec)
# of grid points (after weights+screening)   ...  34728 (   0.0 sec)
nearest neighbour list constructed           ...    0.0 sec
Grid point re-assignment to atoms done       ...    0.0 sec
Grid point division into batches done        ...    0.3 sec
Reduced shell lists constructed in    0.4 sec

Total number of grid points                  ...    34728
Total number of batches                      ...      545
Average number of points per batch           ...       63
Average number of grid points per atom       ...    11576
Average number of shells per batch           ...    12.79 (25.08%)
Average number of basis functions per batch  ...    38.21 (21.59%)
Average number of large shells per batch     ...    10.21 (79.80%)
Average number of large basis fcns per batch ...    27.62 (72.30%)
Average number of aux-shells per batch       ...    12.79 ( 8.36%)
Average number of aux functions per batch    ...    38.21 ( 5.16%)
Maximum spatial batch extension              ...  37.74, 37.74,  4.83 au
Average spatial batch extension              ...   0.54,  0.53,  0.19 au

Time for grid setup =    0.416 sec

------------------------------
INITIAL GUESS: MODEL POTENTIAL
------------------------------
Loading Hartree-Fock densities                     ... done
  calling /sw/apps/orca/orca_4_2_0_linux_x86-64_openmpi314/orca Au03C1_LIN_atom79.inp > Au03C1_LIN_atom79.out in order to generate an atomic fitting density for atom 0 (Au with ECP) on-the-fly... 
    atom 0 (Au), assumed electronic state with S=2: 1s2 2s2 2p6 3s2 3p6 4s2 3d10 4p6 5s2 4d10 5p6 6s1 4f14 5d10           ... done
Calculating cut-offs                               ... done
Setting up the integral package                    ... done
Initializing the effective Hamiltonian             ... done
Starting the Coulomb interaction                   ... done (   0.0 sec)
Reading the grid                                   ... done
Mapping shells                                     ... done
Starting the XC term evaluation                    ... done (   0.0 sec)
  promolecular density results
     # of electrons  =    237.007918883
     EX              =  -1102.045317074
     EC              =     -1.447138077
     EX+EC           =  -1103.492455152
Transforming the Hamiltonian                       ... done (   0.0 sec)
Diagonalizing the Hamiltonian                      ... done (   0.0 sec)
Back transforming the eigenvectors                 ... done (   0.0 sec)
Now organizing SCF variables                       ... done
                      ------------------
                      INITIAL GUESS DONE (   1.5 sec)
                      ------------------
--------------
SCF ITERATIONS
--------------
ITER       Energy         Delta-E        Max-DP      RMS-DP      [F,P]     Damp
  0   -405.1301307508   0.000000000000 0.28355755  0.00341257  0.5618061 0.7000
  1   -405.1070920174   0.023038733402 0.22594588  0.00284973  0.4157754 0.7000
  2   -405.2085084405  -0.101416423123 0.14879433  0.00199614  0.2892048 0.7000
                               ***Turning on DIIS***
  3   -405.3183639177  -0.109855477268 0.09508649  0.00139135  0.1997503 0.7000
  4   -405.3870723098  -0.068708392084 0.06780654  0.00104016  0.1379730 0.7000
  5   -405.4259111594  -0.038838849549 0.16442473  0.00278853  0.0960725 0.0000
  6   -405.4267944804  -0.000883321034 0.02509892  0.00037110  0.0251354 0.0000
  7   -405.4292266925  -0.002432212085 0.01336806  0.00015361  0.0055382 0.0000
  8   -405.4293526231  -0.000125930564 0.00430610  0.00007191  0.0017926 0.0000
  9   -405.4293800555  -0.000027432424 0.00613899  0.00008150  0.0007455 0.0000
 10   -405.4293958685  -0.000015812989 0.00137607  0.00002272  0.0003488 0.0000
 11   -405.4293979137  -0.000002045221 0.00050991  0.00000927  0.0001352 0.0000
 12   -405.4293982045  -0.000000290825 0.00017626  0.00000228  0.0000456 0.0000
                 **** Energy Check signals convergence ****

               *****************************************************
               *                     SUCCESS                       *
               *           SCF CONVERGED AFTER  13 CYCLES          *
               *****************************************************


----------------
TOTAL SCF ENERGY
----------------

Total Energy       :         -405.42939823 Eh          -11032.29480 eV

Components:
Nuclear Repulsion  :          185.33474428 Eh            5043.21478 eV
Electronic Energy  :         -590.76414252 Eh          -16075.50958 eV
One Electron Energy:        -1076.16742137 Eh          -29284.00431 eV
Two Electron Energy:          485.40327885 Eh           13208.49472 eV

Virial components:
Potential Energy   :         -543.59381644 Eh          -14791.93975 eV
Kinetic Energy     :          138.16441821 Eh            3759.64496 eV
Virial Ratio       :            3.93439804


DFT components:
N(Alpha)           :       27.999993668299 electrons
N(Beta)            :       27.999993668299 electrons
N(Total)           :       55.999987336598 electrons
E(X)               :      -10.545313999725 Eh       
E(C)               :       -1.102889467175 Eh       
E(XC)              :      -11.648203466900 Eh       
DFET-embed. en.    :        0.000000000000 Eh       

---------------
SCF CONVERGENCE
---------------

  Last Energy change         ...   -3.0381e-08  Tolerance :   1.0000e-06
  Last MAX-Density change    ...    1.0716e-04  Tolerance :   1.0000e-05
  Last RMS-Density change    ...    1.3889e-06  Tolerance :   1.0000e-06
  Last DIIS Error            ...    2.5477e-05  Tolerance :   1.0000e-06

             **** THE GBW FILE WAS UPDATED (Au03C1_LIN.gbw) ****
             **** DENSITY FILE WAS UPDATED (Au03C1_LIN.scfp) ****
             **** ENERGY FILE WAS UPDATED (Au03C1_LIN.en.tmp) ****
             **** THE GBW FILE WAS UPDATED (Au03C1_LIN.gbw) ****
             **** DENSITY FILE WAS UPDATED (Au03C1_LIN.scfp) ****
----------------
ORBITAL ENERGIES
----------------

  NO   OCC          E(Eh)            E(eV) 
   0   2.0000      -4.706718      -128.0763 
   1   2.0000      -4.706715      -128.0762 
   2   2.0000      -4.660944      -126.8307 
   3   2.0000      -2.800898       -76.2163 
   4   2.0000      -2.799605       -76.1811 
   5   2.0000      -2.795304       -76.0641 
   6   2.0000      -2.795304       -76.0641 
   7   2.0000      -2.795264       -76.0630 
   8   2.0000      -2.795264       -76.0630 
   9   2.0000      -2.753675       -74.9313 
  10   2.0000      -2.743197       -74.6462 
  11   2.0000      -2.743197       -74.6462 
  12   2.0000      -0.680343       -18.5131 
  13   2.0000      -0.641627       -17.4596 
  14   2.0000      -0.641627       -17.4596 
  15   2.0000      -0.622104       -16.9283 
  16   2.0000      -0.619776       -16.8650 
  17   2.0000      -0.619776       -16.8650 
  18   2.0000      -0.613206       -16.6862 
  19   2.0000      -0.613201       -16.6861 
  20   2.0000      -0.612218       -16.6593 
  21   2.0000      -0.612214       -16.6592 
  22   2.0000      -0.556891       -15.1538 
  23   2.0000      -0.556885       -15.1536 
  24   2.0000      -0.546822       -14.8798 
  25   2.0000      -0.546822       -14.8798 
  26   2.0000      -0.533791       -14.5252 
  27   2.0000      -0.458039       -12.4639 
  28   0.0000      -0.302165        -8.2223 
  29   0.0000      -0.184660        -5.0248 
  30   0.0000      -0.133678        -3.6376 
  31   0.0000      -0.133678        -3.6376 
  32   0.0000      -0.100104        -2.7240 
  33   0.0000      -0.088850        -2.4177 
  34   0.0000      -0.088850        -2.4177 
  35   0.0000      -0.019727        -0.5368 
  36   0.0000      -0.019727        -0.5368 
  37   0.0000      -0.000976        -0.0266 
  38   0.0000       0.023022         0.6265 
  39   0.0000       0.044103         1.2001 
  40   0.0000       0.083038         2.2596 
  41   0.0000       0.086653         2.3580 
  42   0.0000       0.086653         2.3580 
  43   0.0000       0.124086         3.3766 
  44   0.0000       0.124086         3.3766 
  45   0.0000       0.130445         3.5496 
  46   0.0000       0.178367         4.8536 
  47   0.0000       0.178368         4.8536 
  48   0.0000       0.182443         4.9645 
  49   0.0000       0.182443         4.9645 
  50   0.0000       0.208070         5.6619 
  51   0.0000       0.208070         5.6619 
  52   0.0000       0.215310         5.8589 
  53   0.0000       0.231491         6.2992 
  54   0.0000       0.239926         6.5287 
  55   0.0000       0.239926         6.5287 
  56   0.0000       0.301706         8.2098 
  57   0.0000       0.301706         8.2098 
  58   0.0000       0.329204         8.9581 
  59   0.0000       0.335396         9.1266 
  60   0.0000       0.335396         9.1266 
  61   0.0000       0.433439        11.7945 
  62   0.0000       0.475750        12.9458 
  63   0.0000       0.475750        12.9458 
  64   0.0000       0.520138        14.1537 
  65   0.0000       0.568378        15.4663 
  66   0.0000       0.786098        21.3908 
  67   0.0000       0.892631        24.2897 
  68   0.0000       0.892631        24.2897 
  69   0.0000       0.996683        27.1211 
  70   0.0000       1.004958        27.3463 
  71   0.0000       1.004959        27.3463 
  72   0.0000       1.010858        27.5068 
  73   0.0000       1.010858        27.5068 
  74   0.0000       1.033471        28.1222 
  75   0.0000       1.033471        28.1222 
  76   0.0000       1.069273        29.0964 
  77   0.0000       1.069273        29.0964 
  78   0.0000       1.071217        29.1493 
  79   0.0000       1.071217        29.1493 
  80   0.0000       1.081649        29.4332 
  81   0.0000       1.081650        29.4332 
  82   0.0000       1.091292        29.6956 
  83   0.0000       1.091292        29.6956 
  84   0.0000       1.131691        30.7949 
  85   0.0000       1.131691        30.7949 
  86   0.0000       1.145536        31.1716 
  87   0.0000       1.190969        32.4079 
  88   0.0000       1.190970        32.4079 
  89   0.0000       1.198969        32.6256 
  90   0.0000       1.198969        32.6256 
  91   0.0000       1.233209        33.5573 
  92   0.0000       1.362280        37.0695 
  93   0.0000       1.362280        37.0695 
  94   0.0000       1.416789        38.5528 
  95   0.0000       1.420032        38.6410 
  96   0.0000       1.420032        38.6410 
  97   0.0000       1.427465        38.8433 
  98   0.0000       1.456072        39.6217 
  99   0.0000       1.456076        39.6218 
 100   0.0000       1.466059        39.8935 
 101   0.0000       1.466063        39.8936 
 102   0.0000       1.504798        40.9476 
 103   0.0000       1.546004        42.0689 
 104   0.0000       1.546010        42.0691 
 105   0.0000       1.624399        44.2021 
 106   0.0000       1.624399        44.2021 
 107   0.0000       1.728268        47.0286 
 108   0.0000       1.728268        47.0286 
 109   0.0000       1.892518        51.4980 
 110   0.0000       2.079894        56.5968 
 111   0.0000       2.148238        58.4565 
 112   0.0000       2.433942        66.2309 
 113   0.0000       2.816662        76.6453 
 114   0.0000       3.576194        97.3132 
 115   0.0000       3.576194        97.3132 
 116   0.0000       3.609817        98.2281 
 117   0.0000       3.609873        98.2296 
 118   0.0000       3.658703        99.5584 
 119   0.0000       3.658703        99.5584 
 120   0.0000       3.660192        99.5989 
 121   0.0000       3.660192        99.5989 
 122   0.0000       3.665691        99.7485 
 123   0.0000       3.665741        99.7499 
 124   0.0000       3.716629       101.1346 
 125   0.0000       3.716629       101.1346 
 126   0.0000       3.730202       101.5040 
 127   0.0000       3.730202       101.5040 
 128   0.0000       3.774311       102.7042 
 129   0.0000       3.774383       102.7062 
 130   0.0000       3.801530       103.4449 
 131   0.0000       3.876703       105.4905 
 132   0.0000       3.970165       108.0337 
 133   0.0000       3.970165       108.0337 
 134   0.0000       4.068900       110.7204 
 135   0.0000       4.192194       114.0754 
 136   0.0000       4.192194       114.0754 
 137   0.0000       4.193439       114.1093 
 138   0.0000       4.193468       114.1101 
 139   0.0000       4.196535       114.1935 
 140   0.0000       4.196535       114.1935 
 141   0.0000       4.196603       114.1954 
 142   0.0000       4.196603       114.1954 
 143   0.0000       4.197441       114.2182 
 144   0.0000       4.197468       114.2189 
 145   0.0000       4.198548       114.2483 
 146   0.0000       4.199461       114.2731 
 147   0.0000       4.199461       114.2731 
 148   0.0000       4.199636       114.2779 
 149   0.0000       4.199636       114.2779 
 150   0.0000       4.248788       115.6154 
 151   0.0000       4.248834       115.6167 
 152   0.0000       4.252301       115.7110 
 153   0.0000       4.252301       115.7110 
 154   0.0000       4.261464       115.9603 
 155   0.0000       4.261710       115.9670 
 156   0.0000       4.270226       116.1988 
 157   0.0000       4.270226       116.1988 
 158   0.0000       4.306882       117.1962 
 159   0.0000       4.306882       117.1962 
 160   0.0000       4.501368       122.4884 
 161   0.0000       4.519613       122.9849 
 162   0.0000      27.140431       738.5287 
 163   0.0000      27.140431       738.5287 
 164   0.0000      27.442196       746.7401 
 165   0.0000      27.442196       746.7401 
 166   0.0000      27.683147       753.2967 
 167   0.0000      27.683147       753.2967 
 168   0.0000      28.010265       762.1981 
 169   0.0000      28.269962       769.2648 
 170   0.0000      30.967976       842.6815 
 171   0.0000      43.879813      1194.0304 
 172   0.0000      44.154997      1201.5186 
 173   0.0000      44.575995      1212.9745 
 174   0.0000     203.133536      5527.5445 
 175   0.0000     203.247235      5530.6384 
 176   0.0000     203.442118      5535.9415 

                    ********************************
                    * MULLIKEN POPULATION ANALYSIS *
                    ********************************

-----------------------
MULLIKEN ATOMIC CHARGES
-----------------------
   0 Au:   -0.069412
   1 Au:    0.534707
   2 Au:    0.534705
Sum of atomic charges:    1.0000000

--------------------------------
MULLIKEN REDUCED ORBITAL CHARGES
--------------------------------
  0 Aus       :     3.141006  s :     3.141006
      pz      :     2.017105  p :     6.031998
      px      :     2.007447
      py      :     2.007447
      dz2     :     1.919900  d :     9.886450
      dxz     :     1.984000
      dyz     :     1.984000
      dx2y2   :     1.999275
      dxy     :     1.999275
      f0      :     0.004013  f :     0.009725
      f+1     :     0.002646
      f-1     :     0.002646
      f+2     :     0.000210
      f-2     :     0.000210
      f+3     :     0.000000
      f-3     :     0.000000
      g0      :     0.000096  g :     0.000234
      g+1     :     0.000058
      g-1     :     0.000058
      g+2     :     0.000011
      g-2     :     0.000011
      g+3     :     0.000000
      g-3     :     0.000000
      g+4     :     0.000000
      g-4     :     0.000000
  1 Aus       :     2.438186  s :     2.438186
      pz      :     2.053915  p :     6.066834
      px      :     2.006459
      py      :     2.006459
      dz2     :     1.964477  d :     9.954175
      dxz     :     1.994764
      dyz     :     1.994764
      dx2y2   :     2.000085
      dxy     :     2.000085
      f0      :     0.002322  f :     0.006002
      f+1     :     0.001676
      f-1     :     0.001676
      f+2     :     0.000164
      f-2     :     0.000164
      f+3     :     0.000000
      f-3     :     0.000000
      g0      :     0.000039  g :     0.000097
      g+1     :     0.000026
      g-1     :     0.000026
      g+2     :     0.000003
      g-2     :     0.000003
      g+3     :     0.000000
      g-3     :     0.000000
      g+4     :     0.000000
      g-4     :     0.000000
  2 Aus       :     2.438187  s :     2.438187
      pz      :     2.053916  p :     6.066834
      px      :     2.006459
      py      :     2.006459
      dz2     :     1.964477  d :     9.954175
      dxz     :     1.994764
      dyz     :     1.994764
      dx2y2   :     2.000085
      dxy     :     2.000085
      f0      :     0.002322  f :     0.006002
      f+1     :     0.001676
      f-1     :     0.001676
      f+2     :     0.000164
      f-2     :     0.000164
      f+3     :     0.000000
      f-3     :     0.000000
      g0      :     0.000039  g :     0.000097
      g+1     :     0.000026
      g-1     :     0.000026
      g+2     :     0.000003
      g-2     :     0.000003
      g+3     :     0.000000
      g-3     :     0.000000
      g+4     :     0.000000
      g-4     :     0.000000


                     *******************************
                     * LOEWDIN POPULATION ANALYSIS *
                     *******************************

----------------------
LOEWDIN ATOMIC CHARGES
----------------------
   0 Au:    0.117472
   1 Au:    0.441264
   2 Au:    0.441264

-------------------------------
LOEWDIN REDUCED ORBITAL CHARGES
-------------------------------
  0 Aus       :     2.873810  s :     2.873810
      pz      :     2.033397  p :     6.057293
      px      :     2.011948
      py      :     2.011948
      dz2     :     1.987143  d :     9.932305
      dxz     :     1.973542
      dyz     :     1.973542
      dx2y2   :     1.999039
      dxy     :     1.999039
      f0      :     0.009367  f :     0.018793
      f+1     :     0.004433
      f-1     :     0.004433
      f+2     :     0.000279
      f-2     :     0.000279
      f+3     :     0.000000
      f-3     :     0.000000
      g0      :     0.000146  g :     0.000327
      g+1     :     0.000079
      g-1     :     0.000079
      g+2     :     0.000011
      g-2     :     0.000011
      g+3     :     0.000000
      g-3     :     0.000000
      g+4     :     0.000000
      g-4     :     0.000000
  1 Aus       :     2.424323  s :     2.424323
      pz      :     2.125402  p :     6.146207
      px      :     2.010402
      py      :     2.010402
      dz2     :     1.993562  d :     9.977389
      dxz     :     1.991787
      dyz     :     1.991787
      dx2y2   :     2.000127
      dxy     :     2.000127
      f0      :     0.004713  f :     0.010668
      f+1     :     0.002773
      f-1     :     0.002773
      f+2     :     0.000204
      f-2     :     0.000204
      f+3     :     0.000000
      f-3     :     0.000000
      g0      :     0.000067  g :     0.000148
      g+1     :     0.000037
      g-1     :     0.000037
      g+2     :     0.000004
      g-2     :     0.000004
      g+3     :     0.000000
      g-3     :     0.000000
      g+4     :     0.000000
      g-4     :     0.000000
  2 Aus       :     2.424323  s :     2.424323
      pz      :     2.125402  p :     6.146207
      px      :     2.010402
      py      :     2.010402
      dz2     :     1.993562  d :     9.977389
      dxz     :     1.991787
      dyz     :     1.991787
      dx2y2   :     2.000127
      dxy     :     2.000127
      f0      :     0.004713  f :     0.010668
      f+1     :     0.002773
      f-1     :     0.002773
      f+2     :     0.000204
      f-2     :     0.000204
      f+3     :     0.000000
      f-3     :     0.000000
      g0      :     0.000067  g :     0.000148
      g+1     :     0.000037
      g-1     :     0.000037
      g+2     :     0.000004
      g-2     :     0.000004
      g+3     :     0.000000
      g-3     :     0.000000
      g+4     :     0.000000
      g-4     :     0.000000


                      *****************************
                      * MAYER POPULATION ANALYSIS *
                      *****************************

  NA   - Mulliken gross atomic population
  ZA   - Total nuclear charge
  QA   - Mulliken gross atomic charge
  VA   - Mayer's total valence
  BVA  - Mayer's bonded valence
  FA   - Mayer's free valence

  ATOM       NA         ZA         QA         VA         BVA        FA
  0 Au    19.0694    19.0000    -0.0694     1.1925     1.1925     0.0000
  1 Au    18.4653    19.0000     0.5347     0.8576     0.8576     0.0000
  2 Au    18.4653    19.0000     0.5347     0.8576     0.8576     0.0000

  Mayer bond orders larger than 0.100000
B(  0-Au,  1-Au) :   0.5963 B(  0-Au,  2-Au) :   0.5963 B(  1-Au,  2-Au) :   0.2613 


-------
TIMINGS
-------

Total SCF time: 0 days 0 hours 0 min 5 sec 

Total time                  ....       5.110 sec
Sum of individual times     ....       4.977 sec  ( 97.4%)

Fock matrix formation       ....       3.390 sec  ( 66.3%)
  XC integration            ....       0.468 sec  ( 13.8% of F)
    Basis function eval.    ....       0.056 sec  ( 12.1% of XC)
    Density eval.           ....       0.036 sec  (  7.7% of XC)
    XC-Functional eval.     ....       0.015 sec  (  3.1% of XC)
    XC-Potential eval.      ....       0.059 sec  ( 12.7% of XC)
Diagonalization             ....       0.058 sec  (  1.1%)
Density matrix formation    ....       0.009 sec  (  0.2%)
Population analysis         ....       0.005 sec  (  0.1%)
Initial guess               ....       1.074 sec  ( 21.0%)
Orbital Transformation      ....       0.000 sec  (  0.0%)
Orbital Orthonormalization  ....       0.000 sec  (  0.0%)
DIIS solution               ....       0.025 sec  (  0.5%)
Grid generation             ....       0.416 sec  (  8.1%)


           ************************************************************
           *        Program running with 24 parallel MPI-processes    *
           *              working on a common directory               *
           ************************************************************

------------------------------------------------------------------------------
                                ORCA  MP2 
------------------------------------------------------------------------------

Freezing NCore=0 chemical core electrons

-------------
RI-MP2 ENERGY
-------------
Dimension of the basis                    ...  177
Memory devoted to MP2                     ... 5000 MB   
Data format for buffers                   ... DOUBLE
Compression type for matrix containers    ... UNCOMPRESSED
Scaling for aa/bb pairs                   ...   4.000e-01
Scaling for ab pairs                      ...   4.700e-01
Overall scaling of the MP2 energy         ...   1.000e+00
Calculating two index integrals           ... done (    0.015 sec)
Cholesky decomposition of V**-1           ... done (    0.016 sec)

-----------------
RI-TRANSFORMATION (AUX index driven)
-----------------

Dimension of the orbital-basis         ... 177
Dimension of the aux-basis             ... 579
Transformation of internal/external MOs...    0-  27 to   28- 176
Number Format for Storage              ... Double (8 Byte)
Integral mode                          ... Direct

First Phase: integral generation and transformation of MO indices
  Aux angular momentum 0               ... done (    0.002 sec)
  Aux angular momentum 1               ... done (    0.003 sec)
  Aux angular momentum 2               ... done (    0.002 sec)
  Aux angular momentum 3               ... done (    0.003 sec)
  Aux angular momentum 4               ... done (    0.005 sec)
  Aux angular momentum 5               ... done (    0.007 sec)
  Aux angular momentum 6               ... done (    0.011 sec)
Closing buffer VIA ( 0.02 GB; CompressionRatio= 1.00)
  Phase 1 completed in     0.119 sec
Second Phase: sorting and transformation of aux index

IA-Transformation
Memory available                       ... 4996 MB 
Max. # MO pairs treated in a batch     ... 2    
# of internal orbitals                 ... 28
# batches for internal orbitals        ... 1
Closing buffer IAV ( 0.00 GB; CompressionRatio= 1.00)
(ia|v) transformation done in     0.013 sec

  Phase 2 completed in     0.030 sec
RI-Integral transformation completed in     0.150 sec
Opening buffers                              ... done

Starting loop over batches of integrals:

Operator 0  - window                       ... (  0- 27)x( 28-176)
Operator 0  - Memory available             ...  5000 MB
Operator 0  - Memory needed per MO         ...   0.7 MB
Operator 0  - Number of orbitals per batch ... 2
Operator 0  - Number of batches            ... 1

OPERATOR  0   PASS   0:  MOs     0 ...    1 +    2 ...    3 +    4 ...    5 +    6 ...    7
                            +    8 ...    9 +   10 ...   11 +   12 ...   13 +   14 ...   15
                            +   16 ...   17 +   18 ...   19 +   20 ...   21 +   22 ...   23
                            +   24 ...   25 +   26 ...   27
  Reading integrals       ... ok
Time spent in pair loops =     0.003 sec

-----------------------------------------------
 RI-MP2 CORRELATION ENERGY:     -0.882414136 Eh
-----------------------------------------------


-------
TIMINGS
-------

Total time                :    0.239 sec
Integral trafo            :    0.166 sec ( 69.7%)
I/O of integrals          :    0.001 sec (  0.3%)
K(i,j) Operators          :    0.002 sec (  0.7%)
T(i,j) pair energies      :    0.000 sec (  0.1%)
V-calculation             :    0.015 sec (  6.4%)
V**(-1/2)                 :    0.016 sec (  6.8%)
Gamma(ia|P)               :    0.000 sec (  0.0%)
Gamma-Trafo               :    0.000 sec (  0.0%)
D(virtual)                :    0.000 sec (  0.0%)
D(internal)               :    0.000 sec (  0.0%)
W(virtual)                :    0.000 sec (  0.0%)
W(internal)               :    0.000 sec (  0.0%)
L(virtual)                :    0.000 sec (  0.0%)
L(internal)               :    0.000 sec (  0.0%)
G(D)                      :    0.000 sec (  0.0%)
G(Z)                      :    0.000 sec (  0.0%)
Z-Vector Solution         :    0.000 sec (  0.0%)
Z-Vector Solution         :    0.000 sec (  0.0%)
3-Index Derivative 
+ Separable RIJ part      :    0.000 sec (  0.0%)
2-Index Derivative 
+ Separable RIJ part      :    0.000 sec (  0.0%)
Separable Gradient (X)    :    0.000 sec (  0.0%)


---------------------------------------
MP2 TOTAL ENERGY:     -406.311812371 Eh
---------------------------------------


-------------------------------------------------------------------------------
                          DFT DISPERSION CORRECTION                            
                                                                               
                              DFTD3 V3.1  Rev 1                                
                          USING Becke-Johnson damping                          
-------------------------------------------------------------------------------
The DSD-BLYP/2013 functional is recognized
Active option DFTDOPT                   ...         4   

molecular C6(AA) [au] = 2858.544030 


            DFT-D V3
 parameters
 s6 scaling factor         :     0.5700 
 a1 scaling factor         :     0.0000 
 s8 scaling factor         :     0.0000 
 a2 scaling factor         :     5.4000 
 ad hoc parameters k1-k3   :    16.0000     1.3333    -4.0000 

 Edisp/kcal,au: -6.086387200851  -0.009699274359 
 E6   /kcal   :  -6.086387201 
 E8   /kcal   :  -0.000000000 
 % E8         :   0.000000000 

-------------------------   ----------------
Dispersion correction           -0.009699274
-------------------------   ----------------


-------------------------   --------------------
FINAL SINGLE POINT ENERGY      -406.321511645513
-------------------------   --------------------


                            ***************************************
                            *     ORCA property calculations      *
                            ***************************************


  WARNING: The energy has been calculated at the MP2 level but the densities
           used in the property calculations are still SCF densities
           MP2 response densities have not been calculated 
           use %mp2 Density relaxed end
           or  %mp2 Density unrelaxed end

                                    ---------------------
                                    Active property flags
                                    ---------------------
   (+) Dipole Moment


------------------------------------------------------------------------------
                       ORCA ELECTRIC PROPERTIES CALCULATION
------------------------------------------------------------------------------

Dipole Moment Calculation                       ... on
Quadrupole Moment Calculation                   ... off
Polarizability Calculation                      ... off
GBWName                                         ... Au03C1_LIN.gbw
Electron density file                           ... Au03C1_LIN.scfp
The origin for moment calculation is the CENTER OF MASS  = ( 0.000000,  0.000000  0.000000)

-------------
DIPOLE MOMENT
-------------
                                X             Y             Z
Electronic contribution:     -0.00000       0.00000      -0.00000
Nuclear contribution   :      0.00000       0.00000       0.00000
                        -----------------------------------------
Total Dipole Moment    :     -0.00000       0.00000      -0.00000
                        -----------------------------------------
Magnitude (a.u.)       :      0.00000
Magnitude (Debye)      :      0.00000



--------------------
Rotational spectrum 
--------------------
 
Rotational constants in cm-1:     0.000000     0.006445     0.006445 
Rotational constants in MHz :     0.000000   193.202279   193.202279 

 Dipole components along the rotational axes: 
x,y,z [a.u.] :    -0.000000     0.000000    -0.000000 
x,y,z [Debye]:    -0.000001     0.000000    -0.000000 

 

Timings for individual modules:

Sum of individual times         ...        7.198 sec (=   0.120 min)
GTO integral calculation        ...        1.063 sec (=   0.018 min)  14.8 %
SCF iterations                  ...        5.447 sec (=   0.091 min)  75.7 %
MP2 module                      ...        0.688 sec (=   0.011 min)   9.6 %
                             ****ORCA TERMINATED NORMALLY****
TOTAL RUN TIME: 0 days 0 hours 0 minutes 7 seconds 686 msec
