
                                 *****************
                                 * O   R   C   A *
                                 *****************

           --- An Ab Initio, DFT and Semiempirical electronic structure package ---

                  #######################################################
                  #                        -***-                        #
                  #          Department of theory and spectroscopy      #
                  #               Directorship: Frank Neese             #
                  #        Max Planck Institute fuer Kohlenforschung    #
                  #                Kaiser Wilhelm Platz 1               #
                  #                 D-45470 Muelheim/Ruhr               #
                  #                      Germany                        #
                  #                                                     #
                  #                  All rights reserved                #
                  #                        -***-                        #
                  #######################################################


                         Program Version 4.2.0 -  RELEASE  -


 With contributions from (in alphabetic order):
   Daniel Aravena         : Magnetic Suceptibility
   Michael Atanasov       : Ab Initio Ligand Field Theory (pilot matlab implementation)
   Alexander A. Auer      : GIAO ZORA, VPT2
   Ute Becker             : Parallelization
   Giovanni Bistoni       : ED, misc. LED, open-shell LED, HFLED
   Martin Brehm           : Molecular dynamics
   Dmytro Bykov           : SCF Hessian
   Vijay G. Chilkuri      : MRCI spin determinant printing, contributions to CSF-ICE
   Dipayan Datta          : RHF DLPNO-CCSD density
   Achintya Kumar Dutta   : EOM-CC, STEOM-CC
   Dmitry Ganyushin       : Spin-Orbit,Spin-Spin,Magnetic field MRCI
   Miquel Garcia          : C-PCM Hessian, Gaussian charge scheme
   Yang Guo               : DLPNO-NEVPT2, CIM, IAO-localization
   Andreas Hansen         : Spin unrestricted coupled pair/coupled cluster methods
   Benjamin Helmich-Paris : CASSCF linear response (MC-RPA)
   Lee Huntington         : MR-EOM, pCC
   Robert Izsak           : Overlap fitted RIJCOSX, COSX-SCS-MP3, EOM
   Christian Kollmar      : KDIIS, OOCD, Brueckner-CCSD(T), CCSD density
   Simone Kossmann        : Meta GGA functionals, TD-DFT gradient, OOMP2, MP2 Hessian
   Martin Krupicka        : AUTO-CI
   Lucas Lang             : DCDCAS
   Dagmar Lenk            : GEPOL surface, SMD
   Dimitrios Liakos       : Extrapolation schemes; Compound Job, initial MDCI parallelization
   Dimitrios Manganas     : Further ROCIS development; embedding schemes
   Dimitrios Pantazis     : SARC Basis sets
   Taras Petrenko         : DFT Hessian,TD-DFT gradient, ASA, ECA, R-Raman, ABS, FL, XAS/XES, NRVS
   Peter Pinski           : DLPNO-MP2, DLPNO-MP2 Gradient
   Christoph Reimann      : Effective Core Potentials
   Marius Retegan         : Local ZFS, SOC
   Christoph Riplinger    : Optimizer, TS searches, QM/MM, DLPNO-CCSD(T), (RO)-DLPNO pert. Triples
   Tobias Risthaus        : Range-separated hybrids, TD-DFT gradient, RPA, STAB
   Michael Roemelt        : Original ROCIS implementation
   Masaaki Saitow         : Open-shell DLPNO-CCSD energy and density
   Barbara Sandhoefer     : DKH picture change effects
   Avijit Sen             : IP-ROCIS
   Kantharuban Sivalingam : CASSCF convergence, NEVPT2, FIC-MRCI
   Bernardo de Souza      : ESD, SOC TD-DFT
   Georgi Stoychev        : AutoAux, RI-MP2 NMR
   Willem Van den Heuvel  : Paramagnetic NMR
   Boris Wezisla          : Elementary symmetry handling
   Frank Wennmohs         : Technical directorship


 We gratefully acknowledge several colleagues who have allowed us to
 interface, adapt or use parts of their codes:
   Stefan Grimme, W. Hujo, H. Kruse,             : VdW corrections, initial TS optimization,
                  C. Bannwarth                     DFT functionals, gCP, sTDA/sTD-DF
   Ed Valeev, F. Pavosevic, A. Kumar             : LibInt (2-el integral package), F12 methods
   Garnet Chan, S. Sharma, J. Yang, R. Olivares  : DMRG
   Ulf Ekstrom                                   : XCFun DFT Library
   Mihaly Kallay                                 : mrcc  (arbitrary order and MRCC methods)
   Andreas Klamt, Michael Diedenhofen            : otool_cosmo (COSMO solvation model)
   Jiri Pittner, Ondrej Demel                    : Mk-CCSD
   Frank Weinhold                                : gennbo (NPA and NBO analysis)
   Christopher J. Cramer and Donald G. Truhlar   : smd solvation model
   Lars Goerigk                                  : TD-DFT with DH, B97 family of functionals
   V. Asgeirsson, H. Jonsson                     : NEB implementation
   FAccTs GmbH                                   : IRC, NEB, NEB-TS, Multilevel, MM, QM/MM, CI optimization
   S Lehtola, MJT Oliveira, MAL Marques          : LibXC Library


 Your calculation uses the libint2 library for the computation of 2-el integrals
 For citations please refer to: http://libint.valeyev.net

 Your ORCA version has been built with support for libXC version: 4.2.3
 For citations please refer to: https://tddft.org/programs/libxc/

 This ORCA versions uses:
   CBLAS   interface :  Fast vector & matrix operations
   LAPACKE interface :  Fast linear algebra routines
   SCALAPACK package :  Parallel linear algebra routines


Your calculation utilizes the atom-pairwise dispersion correction
with the Becke-Johnson damping scheme (D3BJ)
Cite in your paper:
S.Grimme, S.Ehrlich, L.Goerigk, J Comput Chem, (2011), 32, 1456–1465 
S.Grimme, J.Antony, S.Ehrlich and H.Krieg, J.Chem.Phys., 132, (2010), 154104 
   

----- Orbital basis set information -----
Your calculation utilizes the basis: def2-TZVPPD
   F. Weigend and R. Ahlrichs, Phys. Chem. Chem. Phys. 7, 3297 (2005).
   D. Rappoport and F. Furche, J. Chem. Phys. 133 134105 (2010).

----- AuxC basis set information -----
Your calculation utilizes the auxiliary basis: def2-TZVPPD/C
   A. Hellweg, C. Hattig, S. Hofener and W. Klopper, Theor. Chem. Acc. 117, 587 (2007).

----- AuxJK basis set information -----
Your calculation utilizes the auxiliary basis: def2/JK
   H-Ba, Hf-Rn: F. Weigend, J. Comput. Chem. 29, 167 (2008).

cite the ECPs for Au [Def2-ECP] as follows:
Ce-Yb(ecp-28): M. Dolg, H. Stoll, H.Preuss, J. Chem. Phys., 1989, 90, 1730-1734.
Y-Cd(ecp-28), Hf-Hg(ecp-46): D. Andrae,U. Haeussermann, M. Dolg, H. Stoll, H. Preuss, Theor. Chim. Acta, 1990, 77, 123-141.
In-Sb(ecp-28), Tl-Bi(ecp-46): B. Metz, H. Stoll, M. Dolg, J. Chem. Phys., 2000, 113, 2563-2569.
Te-Xe(ecp-28), Po-Rn(ecp-46): K. A. Peterson, D. Figgen, E. Goll, H. Stoll, M. Dolg, J. Chem. Phys., 2003, 119, 11113-11123.
Rb(ecp-28), Cs(ecp-46): T. Leininger, A. Nicklass, W. Kuechle, H. Stoll, M. Dolg, A. Bergner, Chem. Phys. Lett., 1996, 255, 274-280.
Sr(ecp-28), Ba(ecp-46): M. Kaupp, P. V. Schleyer, H. Stoll and H. Preuss, J. Chem. Phys., 1991, 94, 1360-1366.
La(ecp-46): M. Dolg, H. Stoll, A. Savin, H. Preuss, Theor. Chim. Acta, 1989, 75, 173-194.
Lu(ecp-28): X. Cao, M. Dolg, J. Chem. Phys., 2001, 115, 7348-7355.

ECP parameters for Au [Def2-ECP] have been obtained from:
TURBOMOLE (7.0.2)

================================================================================
                                        WARNINGS
                       Please study these warnings very carefully!
================================================================================


WARNING: No MP2 level density has been requested!
         To caclulate MP2 level properties use
         %mp2 Density relaxed end
         or
         %mp2 Density unrelaxed end
         Otherwise for double-hybrid DFT only the energy is correct!

WARNING: There are different parametrizations of Gershom Martin's DSD-DFs
         for use with and without D3(BJ)!
         You are using the D3(BJ) parametrized version,
         consistent with the 2013 article (S. Kozuch and J. M. L. Martin, JCC 2013, 34, 2327)

WARNING: The frozen-core approximation is turned on by default for 
         the MP2 part of double-hybrid DFT.

INFO   : the flag for use of LIBINT has been found!

================================================================================
                                       INPUT FILE
================================================================================
NAME = Au03C1_D3H.in
|  1> #
|  2> # Au03C1_D3H ri-DSD-BLYP/2013-D3BJ/Def2-TZVPPD
|  3> #
|  4> ! rijk ri-dsd-blyp/2013 d3bj def2-tzvppd def2/jk def2-tzvppd/c grid4 nofinalgrid
|  5> 
|  6> *xyz 1 1
|  7> Au       0.000000    1.501400   -0.000000 
|  8> Au       1.300251   -0.750700   -0.000000 
|  9> Au      -1.300251   -0.750700   -0.000000 
| 10> *
| 11> 
| 12> %maxcore 5000
| 13> 
| 14> %pal
| 15> nprocs = 24
| 16> end
| 17> 
| 18> 
| 19>                          ****END OF INPUT****
================================================================================

                       ****************************
                       * Single Point Calculation *
                       ****************************

---------------------------------
CARTESIAN COORDINATES (ANGSTROEM)
---------------------------------
  Au     0.000000    1.501400   -0.000000
  Au     1.300251   -0.750700   -0.000000
  Au    -1.300251   -0.750700   -0.000000

----------------------------
CARTESIAN COORDINATES (A.U.)
----------------------------
  NO LB      ZA    FRAG     MASS         X           Y           Z
   0 Au   19.0000*   0   196.966    0.000000    2.837235   -0.000000
   1 Au   19.0000*   0   196.966    2.457118   -1.418617   -0.000000
   2 Au   19.0000*   0   196.966   -2.457118   -1.418617   -0.000000
* core charge reduced due to ECP

--------------------------------
INTERNAL COORDINATES (ANGSTROEM)
--------------------------------
 Au     0   0   0     0.000000000000     0.00000000     0.00000000
 Au     1   0   0     2.600501311863     0.00000000     0.00000000
 Au     1   2   0     2.600501311863    60.00001751     0.00000000

---------------------------
INTERNAL COORDINATES (A.U.)
---------------------------
 Au     0   0   0     0.000000000000     0.00000000     0.00000000
 Au     1   0   0     4.914235290324     0.00000000     0.00000000
 Au     1   2   0     4.914235290324    60.00001751     0.00000000

---------------------
BASIS SET INFORMATION
---------------------
There are 1 groups of distinct atoms

 Group   1 Type Au  : 8s8p6d2f1g contracted to 6s5p3d2f1g pattern {311111/41111/411/11/1}

Atom   0Au   basis set group =>   1
Atom   1Au   basis set group =>   1
Atom   2Au   basis set group =>   1
---------------------------------
AUXILIARY/C BASIS SET INFORMATION
---------------------------------
There are 1 groups of distinct atoms

 Group   1 Type Au  : 9s9p8d5f4g3h1i contracted to 9s9p8d5f4g3h1i pattern {111111111/111111111/11111111/11111/1111/111/1}

Atom   0Au   basis set group =>   1
Atom   1Au   basis set group =>   1
Atom   2Au   basis set group =>   1
----------------------------------
AUXILIARY/JK BASIS SET INFORMATION
----------------------------------
There are 1 groups of distinct atoms

 Group   1 Type Au  : 13s12p11d9f5g3h2i contracted to 13s11p10d8f4g3h2i pattern {1111111111111/21111111111/2111111111/21111111/2111/111/11}

Atom   0Au   basis set group =>   1
Atom   1Au   basis set group =>   1
Atom   2Au   basis set group =>   1
-------------------------
ECP PARAMETER INFORMATION
-------------------------

 Group 1, Type Au ECP Def2-ECP (replacing 60 core electrons, lmax=3)

Atom   0Au   ECP group =>   1
Atom   1Au   ECP group =>   1
Atom   2Au   ECP group =>   1



           ************************************************************
           *        Program running with 24 parallel MPI-processes    *
           *              working on a common directory               *
           ************************************************************
------------------------------------------------------------------------------
                           ORCA GTO INTEGRAL CALCULATION
                           -- RI-GTO INTEGRALS CHOSEN --
------------------------------------------------------------------------------

                         BASIS SET STATISTICS AND STARTUP INFO

Gaussian basis set:
 # of primitive gaussian shells          ...   75
 # of primitive gaussian functions       ...  255
 # of contracted shells                  ...   51
 # of contracted basis functions         ...  177
 Highest angular momentum                ...    4
 Maximum contraction depth               ...    4
Auxiliary gaussian basis set:
 # of primitive gaussian shells          ...  165
 # of primitive gaussian functions       ...  813
 # of contracted shells                  ...  153
 # of contracted aux-basis functions     ...  741
 Highest angular momentum                ...    6
 Maximum contraction depth               ...    2
Ratio of auxiliary to basis functions    ...  4.19
Integral package used                  ... LIBINT
 One Electron integrals                  
   ECP integrals                         ... done
 Ordering auxiliary basis shells         ... done
 Integral threshhold             Thresh  ...  1.000e-10
 Primitive cut-off               TCut    ...  1.000e-11
 Pre-screening matrix                    ... done
 Shell pair data                         ... 
 Ordering of the shell pairs             ... done (   0.000 sec) 1296 of 1326 pairs
 Determination of significant pairs      ... done (   0.000 sec)
 Creation of shell pair data             ... done (   0.000 sec)
 Storage of shell pair data              ... done (   0.025 sec)
 Shell pair data done in (   0.025 sec)
 Computing two index integrals           ... done
 Cholesky decomposition of the V-matrix  ... done


Timings:
 Total evaluation time                   ...   0.842 sec (  0.014 min)
 One electron matrix time                ...   0.474 sec (  0.008 min) = 56.3%
 Schwartz matrix evaluation time         ...   0.137 sec (  0.002 min) = 16.2%
 Two index repulsion integral time       ...   0.166 sec (  0.003 min) = 19.7%
 Cholesky decomposition of V             ...   0.008 sec (  0.000 min) =  1.0%
 Three index repulsion integral time     ...   0.000 sec (  0.000 min) =  0.0%



           ************************************************************
           *        Program running with 24 parallel MPI-processes    *
           *              working on a common directory               *
           ************************************************************
-------------------------------------------------------------------------------
                                 ORCA SCF
-------------------------------------------------------------------------------

------------
SCF SETTINGS
------------
Hamiltonian:
 Density Functional     Method          .... DFT(GTOs)
 Exchange Functional    Exchange        .... B88
   X-Alpha parameter    XAlpha          ....  0.666667
   Becke's b parameter  XBeta           ....  0.004200
 Correlation Functional Correlation     .... LYP
 LDA part of GGA corr.  LDAOpt          .... VWN-5
 Gradients option       PostSCFGGA      .... off
 Hybrid DFT is turned on
   Fraction HF Exchange ScalHFX         ....  0.710000
   Scaling of DF-GGA-X  ScalDFX         ....  0.290000
   Scaling of DF-GGA-C  ScalDFC         ....  0.540000
   Scaling of DF-LDA-C  ScalLDAC        ....  0.540000
   Perturbative correction              ....  1.000000
   Density functional embedding theory  .... OFF
 RI-approximation to the Coulomb term is turned on
   Number of auxiliary basis functions  .... 741
   RI-JK (J+K treated both via RI)      .... on


General Settings:
 Integral files         IntName         .... Au03C1_D3H
 Hartree-Fock type      HFTyp           .... RHF
 Total Charge           Charge          ....    1
 Multiplicity           Mult            ....    1
 Number of Electrons    NEL             ....   56
 Basis Dimension        Dim             ....  177
 Nuclear Repulsion      ENuc            ....    220.3801487905 Eh

Convergence Acceleration:
 DIIS                   CNVDIIS         .... on
   Start iteration      DIISMaxIt       ....    12
   Startup error        DIISStart       ....  0.200000
   # of expansion vecs  DIISMaxEq       ....     5
   Bias factor          DIISBfac        ....   1.050
   Max. coefficient     DIISMaxC        ....  10.000
 Newton-Raphson         CNVNR           .... off
 SOSCF                  CNVSOSCF        .... off
 Level Shifting         CNVShift        .... on
   Level shift para.    LevelShift      ....    0.2500
   Turn off err/grad.   ShiftErr        ....    0.0010
 Zerner damping         CNVZerner       .... off
 Static damping         CNVDamp         .... on
   Fraction old density DampFac         ....    0.7000
   Max. Damping (<1)    DampMax         ....    0.9800
   Min. Damping (>=0)   DampMin         ....    0.0000
   Turn off err/grad.   DampErr         ....    0.1000
 Fernandez-Rico         CNVRico         .... off

SCF Procedure:
 Maximum # iterations   MaxIter         ....   125
 SCF integral mode      SCFMode         .... Direct
   Integral package                     .... LIBINT
 Reset frequency        DirectResetFreq ....    20
 Integral Threshold     Thresh          ....  1.000e-10 Eh
 Primitive CutOff       TCut            ....  1.000e-11 Eh

Convergence Tolerance:
 Convergence Check Mode ConvCheckMode   .... Total+1el-Energy
 Convergence forced     ConvForced      .... 0
 Energy Change          TolE            ....  1.000e-06 Eh
 1-El. energy change                    ....  1.000e-03 Eh
 DIIS Error             TolErr          ....  1.000e-06


Diagonalization of the overlap matrix:
Smallest eigenvalue                        ... 1.610e-03
Time for diagonalization                   ...    0.007 sec
Threshold for overlap eigenvalues          ... 1.000e-08
Number of eigenvalues below threshold      ... 0
Time for construction of square roots      ...    0.003 sec
Total time needed                          ...    0.011 sec

-------------------
DFT GRID GENERATION
-------------------

General Integration Accuracy     IntAcc      ...  4.670
Radial Grid Type                 RadialGrid  ... Gauss-Chebyshev
Angular Grid (max. acc.)         AngularGrid ... Lebedev-302
Angular grid pruning method      GridPruning ... 3 (G Style)
Weight generation scheme         WeightScheme... Becke
Basis function cutoff            BFCut       ...    1.0000e-10
Integration weight cutoff        WCut        ...    1.0000e-14
Grids for H and He will be reduced by one unit

# of grid points (after initial pruning)     ...  34956 (   0.0 sec)
# of grid points (after weights+screening)   ...  34814 (   0.0 sec)
nearest neighbour list constructed           ...    0.0 sec
Grid point re-assignment to atoms done       ...    0.0 sec
Grid point division into batches done        ...    0.4 sec
Reduced shell lists constructed in    0.4 sec

Total number of grid points                  ...    34814
Total number of batches                      ...      545
Average number of points per batch           ...       63
Average number of grid points per atom       ...    11605
Average number of shells per batch           ...     4.42 ( 8.66%)
Average number of basis functions per batch  ...    11.17 ( 6.31%)
Average number of large shells per batch     ...     2.62 (59.43%)
Average number of large basis fcns per batch ...     6.38 (57.09%)
Average number of aux-shells per batch       ...     4.42 ( 2.89%)
Average number of aux functions per batch    ...    11.17 ( 1.51%)
Maximum spatial batch extension              ...  27.50, 22.87, 24.85 au
Average spatial batch extension              ...   0.74,  0.63,  0.66 au

Time for grid setup =    0.506 sec

------------------------------
INITIAL GUESS: MODEL POTENTIAL
------------------------------
Loading Hartree-Fock densities                     ... done
  calling /sw/apps/orca/orca_4_2_0_linux_x86-64_openmpi314/orca Au03C1_D3H_atom79.inp > Au03C1_D3H_atom79.out in order to generate an atomic fitting density for atom 0 (Au with ECP) on-the-fly... 
    atom 0 (Au), assumed electronic state with S=2: 1s2 2s2 2p6 3s2 3p6 4s2 3d10 4p6 5s2 4d10 5p6 6s1 4f14 5d10           ... done
Calculating cut-offs                               ... done
Setting up the integral package                    ... done
Initializing the effective Hamiltonian             ... done
Starting the Coulomb interaction                   ... done (   0.0 sec)
Reading the grid                                   ... done
Mapping shells                                     ... done
Starting the XC term evaluation                    ... done (   0.0 sec)
  promolecular density results
     # of electrons  =    237.007576728
     EX              =  -1102.082810261
     EC              =     -1.454231720
     EX+EC           =  -1103.537041981
Transforming the Hamiltonian                       ... done (   0.0 sec)
Diagonalizing the Hamiltonian                      ... done (   0.0 sec)
Back transforming the eigenvectors                 ... done (   0.0 sec)
Now organizing SCF variables                       ... done
                      ------------------
                      INITIAL GUESS DONE (   1.8 sec)
                      ------------------
--------------
SCF ITERATIONS
--------------
ITER       Energy         Delta-E        Max-DP      RMS-DP      [F,P]     Damp
  0   -405.1871274283   0.000000000000 0.23670053  0.00324536  0.5529242 0.7000
  1   -405.1652311600   0.021896268333 0.19402374  0.00269711  0.4068252 0.7000
  2   -405.2721295910  -0.106898430959 0.13653510  0.00189465  0.2817700 0.7000
                               ***Turning on DIIS***
  3   -405.3863317437  -0.114202152733 0.09479988  0.00132312  0.1945674 0.7000
  4   -405.4554541436  -0.069122399856 0.06663101  0.00096726  0.1348658 0.7000
  5   -405.4901072353  -0.034653091762 0.16206810  0.00244676  0.0942890 0.0000
  6   -405.4902190603  -0.000111824954 0.00625764  0.00027046  0.0203669 0.0000
  7   -405.4925912775  -0.002372217251 0.00373360  0.00009571  0.0030790 0.0000
  8   -405.4927077851  -0.000116507533 0.00168228  0.00004127  0.0010586 0.0000
  9   -405.4927233472  -0.000015562161 0.00095241  0.00002732  0.0004660 0.0000
 10   -405.4927275494  -0.000004202159 0.00045474  0.00001158  0.0002006 0.0000
 11   -405.4927281903  -0.000000640884 0.00019827  0.00000437  0.0000567 0.0000
                 **** Energy Check signals convergence ****

               *****************************************************
               *                     SUCCESS                       *
               *           SCF CONVERGED AFTER  12 CYCLES          *
               *****************************************************


----------------
TOTAL SCF ENERGY
----------------

Total Energy       :         -405.49272829 Eh          -11034.01810 eV

Components:
Nuclear Repulsion  :          220.38014879 Eh            5996.84872 eV
Electronic Energy  :         -625.87287708 Eh          -17030.86682 eV
One Electron Energy:        -1145.72714665 Eh          -31176.82066 eV
Two Electron Energy:          519.85426957 Eh           14145.95384 eV

Virial components:
Potential Energy   :         -543.57157336 Eh          -14791.33449 eV
Kinetic Energy     :          138.07884506 Eh            3757.31639 eV
Virial Ratio       :            3.93667526


DFT components:
N(Alpha)           :       27.999993123437 electrons
N(Beta)            :       27.999993123437 electrons
N(Total)           :       55.999986246874 electrons
E(X)               :      -10.547821495945 Eh       
E(C)               :       -1.108633268581 Eh       
E(XC)              :      -11.656454764525 Eh       
DFET-embed. en.    :        0.000000000000 Eh       

---------------
SCF CONVERGENCE
---------------

  Last Energy change         ...   -1.0315e-07  Tolerance :   1.0000e-06
  Last MAX-Density change    ...    1.0156e-04  Tolerance :   1.0000e-05
  Last RMS-Density change    ...    2.0345e-06  Tolerance :   1.0000e-06
  Last DIIS Error            ...    2.6730e-05  Tolerance :   1.0000e-06

             **** THE GBW FILE WAS UPDATED (Au03C1_D3H.gbw) ****
             **** DENSITY FILE WAS UPDATED (Au03C1_D3H.scfp) ****
             **** ENERGY FILE WAS UPDATED (Au03C1_D3H.en.tmp) ****
             **** THE GBW FILE WAS UPDATED (Au03C1_D3H.gbw) ****
             **** DENSITY FILE WAS UPDATED (Au03C1_D3H.scfp) ****
----------------
ORBITAL ENERGIES
----------------

  NO   OCC          E(Eh)            E(eV) 
   0   2.0000      -4.702580      -127.9637 
   1   2.0000      -4.701846      -127.9437 
   2   2.0000      -4.701846      -127.9437 
   3   2.0000      -2.801648       -76.2367 
   4   2.0000      -2.794191       -76.0338 
   5   2.0000      -2.794189       -76.0337 
   6   2.0000      -2.787183       -75.8431 
   7   2.0000      -2.786887       -75.8350 
   8   2.0000      -2.786881       -75.8349 
   9   2.0000      -2.786444       -75.8230 
  10   2.0000      -2.785958       -75.8098 
  11   2.0000      -2.785957       -75.8097 
  12   2.0000      -0.694456       -18.8971 
  13   2.0000      -0.662140       -18.0177 
  14   2.0000      -0.662139       -18.0177 
  15   2.0000      -0.655942       -17.8491 
  16   2.0000      -0.629395       -17.1267 
  17   2.0000      -0.623702       -16.9718 
  18   2.0000      -0.623700       -16.9717 
  19   2.0000      -0.588908       -16.0250 
  20   2.0000      -0.588907       -16.0250 
  21   2.0000      -0.582490       -15.8503 
  22   2.0000      -0.578523       -15.7424 
  23   2.0000      -0.578522       -15.7424 
  24   2.0000      -0.578420       -15.7396 
  25   2.0000      -0.578416       -15.7395 
  26   2.0000      -0.539190       -14.6721 
  27   2.0000      -0.516516       -14.0551 
  28   0.0000      -0.230775        -6.2797 
  29   0.0000      -0.230775        -6.2797 
  30   0.0000      -0.149182        -4.0595 
  31   0.0000      -0.116246        -3.1632 
  32   0.0000      -0.100070        -2.7230 
  33   0.0000      -0.100070        -2.7230 
  34   0.0000      -0.057892        -1.5753 
  35   0.0000      -0.057891        -1.5753 
  36   0.0000      -0.019759        -0.5377 
  37   0.0000      -0.019758        -0.5376 
  38   0.0000       0.001245         0.0339 
  39   0.0000       0.060847         1.6557 
  40   0.0000       0.073799         2.0082 
  41   0.0000       0.082204         2.2369 
  42   0.0000       0.096006         2.6125 
  43   0.0000       0.096006         2.6125 
  44   0.0000       0.143510         3.9051 
  45   0.0000       0.143514         3.9052 
  46   0.0000       0.143863         3.9147 
  47   0.0000       0.143864         3.9147 
  48   0.0000       0.194224         5.2851 
  49   0.0000       0.218455         5.9445 
  50   0.0000       0.218456         5.9445 
  51   0.0000       0.218571         5.9476 
  52   0.0000       0.244364         6.6495 
  53   0.0000       0.244365         6.6495 
  54   0.0000       0.250280         6.8105 
  55   0.0000       0.292436         7.9576 
  56   0.0000       0.292437         7.9576 
  57   0.0000       0.321565         8.7502 
  58   0.0000       0.362836         9.8733 
  59   0.0000       0.362836         9.8733 
  60   0.0000       0.376672        10.2498 
  61   0.0000       0.376672        10.2498 
  62   0.0000       0.393465        10.7067 
  63   0.0000       0.481124        13.0920 
  64   0.0000       0.481598        13.1049 
  65   0.0000       0.481603        13.1051 
  66   0.0000       0.758161        20.6306 
  67   0.0000       0.861976        23.4556 
  68   0.0000       0.865054        23.5393 
  69   0.0000       0.865055        23.5394 
  70   0.0000       0.871836        23.7239 
  71   0.0000       0.952225        25.9114 
  72   0.0000       0.952226        25.9114 
  73   0.0000       1.017888        27.6981 
  74   0.0000       1.046287        28.4709 
  75   0.0000       1.046296        28.4712 
  76   0.0000       1.047167        28.4949 
  77   0.0000       1.047172        28.4950 
  78   0.0000       1.049641        28.5622 
  79   0.0000       1.071085        29.1457 
  80   0.0000       1.071087        29.1458 
  81   0.0000       1.110700        30.2237 
  82   0.0000       1.125865        30.6363 
  83   0.0000       1.125868        30.6364 
  84   0.0000       1.177825        32.0502 
  85   0.0000       1.204895        32.7869 
  86   0.0000       1.204897        32.7869 
  87   0.0000       1.295379        35.2491 
  88   0.0000       1.311485        35.6873 
  89   0.0000       1.311486        35.6873 
  90   0.0000       1.314709        35.7750 
  91   0.0000       1.327263        36.1167 
  92   0.0000       1.327264        36.1167 
  93   0.0000       1.352770        36.8107 
  94   0.0000       1.352772        36.8108 
  95   0.0000       1.410048        38.3693 
  96   0.0000       1.435767        39.0692 
  97   0.0000       1.438150        39.1341 
  98   0.0000       1.450699        39.4755 
  99   0.0000       1.450702        39.4756 
 100   0.0000       1.485182        40.4138 
 101   0.0000       1.485184        40.4139 
 102   0.0000       1.500581        40.8329 
 103   0.0000       1.581882        43.0452 
 104   0.0000       1.599325        43.5199 
 105   0.0000       1.599329        43.5199 
 106   0.0000       1.656576        45.0777 
 107   0.0000       1.656585        45.0780 
 108   0.0000       1.885705        51.3126 
 109   0.0000       1.885710        51.3128 
 110   0.0000       2.108525        57.3759 
 111   0.0000       2.173260        59.1374 
 112   0.0000       2.708442        73.7005 
 113   0.0000       2.708445        73.7005 
 114   0.0000       3.535337        96.2014 
 115   0.0000       3.565944        97.0343 
 116   0.0000       3.588465        97.6471 
 117   0.0000       3.588488        97.6477 
 118   0.0000       3.628269        98.7302 
 119   0.0000       3.647080        99.2421 
 120   0.0000       3.647127        99.2434 
 121   0.0000       3.709785       100.9484 
 122   0.0000       3.709859       100.9504 
 123   0.0000       3.728510       101.4579 
 124   0.0000       3.748299       101.9964 
 125   0.0000       3.754618       102.1684 
 126   0.0000       3.754639       102.1689 
 127   0.0000       3.863696       105.1365 
 128   0.0000       3.886835       105.7662 
 129   0.0000       3.886890       105.7677 
 130   0.0000       3.890007       105.8525 
 131   0.0000       3.890165       105.8568 
 132   0.0000       3.967937       107.9730 
 133   0.0000       3.968054       107.9762 
 134   0.0000       4.030253       109.6687 
 135   0.0000       4.189551       114.0035 
 136   0.0000       4.189667       114.0066 
 137   0.0000       4.193922       114.1224 
 138   0.0000       4.196975       114.2055 
 139   0.0000       4.197090       114.2086 
 140   0.0000       4.199275       114.2681 
 141   0.0000       4.204334       114.4057 
 142   0.0000       4.204443       114.4087 
 143   0.0000       4.204530       114.4111 
 144   0.0000       4.204826       114.4191 
 145   0.0000       4.208014       114.5059 
 146   0.0000       4.208045       114.5067 
 147   0.0000       4.211030       114.5880 
 148   0.0000       4.211573       114.6027 
 149   0.0000       4.211937       114.6126 
 150   0.0000       4.211985       114.6139 
 151   0.0000       4.212132       114.6180 
 152   0.0000       4.212206       114.6199 
 153   0.0000       4.219294       114.8128 
 154   0.0000       4.259828       115.9158 
 155   0.0000       4.267240       116.1175 
 156   0.0000       4.267241       116.1175 
 157   0.0000       4.278450       116.4225 
 158   0.0000       4.278462       116.4229 
 159   0.0000       4.420097       120.2770 
 160   0.0000       4.420110       120.2773 
 161   0.0000       4.552147       123.8702 
 162   0.0000      27.144745       738.6461 
 163   0.0000      27.335000       743.8232 
 164   0.0000      27.335053       743.8246 
 165   0.0000      27.427930       746.3519 
 166   0.0000      27.546735       749.5848 
 167   0.0000      27.546747       749.5851 
 168   0.0000      29.117620       792.3307 
 169   0.0000      29.835190       811.8568 
 170   0.0000      29.835215       811.8575 
 171   0.0000      43.925750      1195.2804 
 172   0.0000      44.456518      1209.7233 
 173   0.0000      44.456518      1209.7234 
 174   0.0000     203.146278      5527.8913 
 175   0.0000     203.375324      5534.1239 
 176   0.0000     203.375325      5534.1239 

                    ********************************
                    * MULLIKEN POPULATION ANALYSIS *
                    ********************************

-----------------------
MULLIKEN ATOMIC CHARGES
-----------------------
   0 Au:    0.333315
   1 Au:    0.333341
   2 Au:    0.333343
Sum of atomic charges:    1.0000000

--------------------------------
MULLIKEN REDUCED ORBITAL CHARGES
--------------------------------
  0 Aus       :     2.665385  s :     2.665385
      pz      :     2.009295  p :     6.107319
      px      :     2.016092
      py      :     2.081932
      dz2     :     1.979860  d :     9.884181
      dxz     :     1.996181
      dyz     :     1.991620
      dx2y2   :     1.976036
      dxy     :     1.940483
      f0      :     0.000984  f :     0.009635
      f+1     :     0.000548
      f-1     :     0.001419
      f+2     :     0.000589
      f-2     :     0.001279
      f+3     :     0.002542
      f-3     :     0.002273
      g0      :     0.000014  g :     0.000165
      g+1     :     0.000008
      g-1     :     0.000021
      g+2     :     0.000011
      g-2     :     0.000019
      g+3     :     0.000017
      g-3     :     0.000004
      g+4     :     0.000033
      g-4     :     0.000037
  1 Aus       :     2.665368  s :     2.665368
      pz      :     2.009296  p :     6.107314
      px      :     2.065471
      py      :     2.032548
      dz2     :     1.979862  d :     9.884177
      dxz     :     1.992760
      dyz     :     1.995041
      dx2y2   :     1.949366
      dxy     :     1.967147
      f0      :     0.000985  f :     0.009635
      f+1     :     0.001201
      f-1     :     0.000766
      f+2     :     0.001107
      f-2     :     0.000762
      f+3     :     0.002542
      f-3     :     0.002273
      g0      :     0.000014  g :     0.000165
      g+1     :     0.000017
      g-1     :     0.000011
      g+2     :     0.000017
      g-2     :     0.000013
      g+3     :     0.000017
      g-3     :     0.000004
      g+4     :     0.000036
      g-4     :     0.000034
  2 Aus       :     2.665366  s :     2.665366
      pz      :     2.009296  p :     6.107313
      px      :     2.065470
      py      :     2.032548
      dz2     :     1.979862  d :     9.884177
      dxz     :     1.992760
      dyz     :     1.995041
      dx2y2   :     1.949366
      dxy     :     1.967147
      f0      :     0.000985  f :     0.009635
      f+1     :     0.001201
      f-1     :     0.000766
      f+2     :     0.001107
      f-2     :     0.000762
      f+3     :     0.002542
      f-3     :     0.002273
      g0      :     0.000014  g :     0.000165
      g+1     :     0.000017
      g-1     :     0.000011
      g+2     :     0.000017
      g-2     :     0.000013
      g+3     :     0.000017
      g-3     :     0.000004
      g+4     :     0.000036
      g-4     :     0.000034


                     *******************************
                     * LOEWDIN POPULATION ANALYSIS *
                     *******************************

----------------------
LOEWDIN ATOMIC CHARGES
----------------------
   0 Au:    0.333329
   1 Au:    0.333335
   2 Au:    0.333336

-------------------------------
LOEWDIN REDUCED ORBITAL CHARGES
-------------------------------
  0 Aus       :     2.529770  s :     2.529770
      pz      :     2.013864  p :     6.197702
      px      :     2.032621
      py      :     2.151217
      dz2     :     1.997524  d :     9.920806
      dxz     :     1.994514
      dyz     :     1.986924
      dx2y2   :     1.980613
      dxy     :     1.961231
      f0      :     0.001595  f :     0.018139
      f+1     :     0.001157
      f-1     :     0.002668
      f+2     :     0.000842
      f-2     :     0.002191
      f+3     :     0.006047
      f-3     :     0.003638
      g0      :     0.000021  g :     0.000254
      g+1     :     0.000010
      g-1     :     0.000027
      g+2     :     0.000017
      g-2     :     0.000033
      g+3     :     0.000026
      g-3     :     0.000004
      g+4     :     0.000048
      g-4     :     0.000067
  1 Aus       :     2.529769  s :     2.529769
      pz      :     2.013864  p :     6.197700
      px      :     2.121568
      py      :     2.062268
      dz2     :     1.997525  d :     9.920803
      dxz     :     1.988822
      dyz     :     1.992617
      dx2y2   :     1.966072
      dxy     :     1.975767
      f0      :     0.001595  f :     0.018139
      f+1     :     0.002290
      f-1     :     0.001534
      f+2     :     0.001854
      f-2     :     0.001180
      f+3     :     0.006047
      f-3     :     0.003638
      g0      :     0.000021  g :     0.000254
      g+1     :     0.000023
      g-1     :     0.000015
      g+2     :     0.000029
      g-2     :     0.000021
      g+3     :     0.000026
      g-3     :     0.000004
      g+4     :     0.000062
      g-4     :     0.000053
  2 Aus       :     2.529769  s :     2.529769
      pz      :     2.013864  p :     6.197700
      px      :     2.121568
      py      :     2.062268
      dz2     :     1.997525  d :     9.920803
      dxz     :     1.988822
      dyz     :     1.992617
      dx2y2   :     1.966072
      dxy     :     1.975767
      f0      :     0.001595  f :     0.018139
      f+1     :     0.002290
      f-1     :     0.001534
      f+2     :     0.001854
      f-2     :     0.001180
      f+3     :     0.006047
      f-3     :     0.003638
      g0      :     0.000021  g :     0.000254
      g+1     :     0.000023
      g-1     :     0.000015
      g+2     :     0.000029
      g-2     :     0.000021
      g+3     :     0.000026
      g-3     :     0.000004
      g+4     :     0.000062
      g-4     :     0.000053


                      *****************************
                      * MAYER POPULATION ANALYSIS *
                      *****************************

  NA   - Mulliken gross atomic population
  ZA   - Total nuclear charge
  QA   - Mulliken gross atomic charge
  VA   - Mayer's total valence
  BVA  - Mayer's bonded valence
  FA   - Mayer's free valence

  ATOM       NA         ZA         QA         VA         BVA        FA
  0 Au    18.6667    19.0000     0.3333     1.1609     1.1609    -0.0000
  1 Au    18.6667    19.0000     0.3333     1.1609     1.1609    -0.0000
  2 Au    18.6667    19.0000     0.3333     1.1609     1.1609     0.0000

  Mayer bond orders larger than 0.100000
B(  0-Au,  1-Au) :   0.5805 B(  0-Au,  2-Au) :   0.5805 B(  1-Au,  2-Au) :   0.5805 


-------
TIMINGS
-------

Total SCF time: 0 days 0 hours 0 min 5 sec 

Total time                  ....       5.456 sec
Sum of individual times     ....       5.321 sec  ( 97.5%)

Fock matrix formation       ....       3.383 sec  ( 62.0%)
  XC integration            ....       0.439 sec  ( 13.0% of F)
    Basis function eval.    ....       0.060 sec  ( 13.8% of XC)
    Density eval.           ....       0.046 sec  ( 10.5% of XC)
    XC-Functional eval.     ....       0.015 sec  (  3.4% of XC)
    XC-Potential eval.      ....       0.069 sec  ( 15.8% of XC)
Diagonalization             ....       0.057 sec  (  1.0%)
Density matrix formation    ....       0.009 sec  (  0.2%)
Population analysis         ....       0.005 sec  (  0.1%)
Initial guess               ....       1.339 sec  ( 24.5%)
Orbital Transformation      ....       0.000 sec  (  0.0%)
Orbital Orthonormalization  ....       0.000 sec  (  0.0%)
DIIS solution               ....       0.023 sec  (  0.4%)
Grid generation             ....       0.506 sec  (  9.3%)


           ************************************************************
           *        Program running with 24 parallel MPI-processes    *
           *              working on a common directory               *
           ************************************************************

------------------------------------------------------------------------------
                                ORCA  MP2 
------------------------------------------------------------------------------

Freezing NCore=0 chemical core electrons

-------------
RI-MP2 ENERGY
-------------
Dimension of the basis                    ...  177
Memory devoted to MP2                     ... 5000 MB   
Data format for buffers                   ... DOUBLE
Compression type for matrix containers    ... UNCOMPRESSED
Scaling for aa/bb pairs                   ...   4.000e-01
Scaling for ab pairs                      ...   4.700e-01
Overall scaling of the MP2 energy         ...   1.000e+00
Calculating two index integrals           ... done (    0.013 sec)
Cholesky decomposition of V**-1           ... done (    0.021 sec)

-----------------
RI-TRANSFORMATION (AUX index driven)
-----------------

Dimension of the orbital-basis         ... 177
Dimension of the aux-basis             ... 579
Transformation of internal/external MOs...    0-  27 to   28- 176
Number Format for Storage              ... Double (8 Byte)
Integral mode                          ... Direct

First Phase: integral generation and transformation of MO indices
  Aux angular momentum 0               ... done (    0.002 sec)
  Aux angular momentum 1               ... done (    0.003 sec)
  Aux angular momentum 2               ... done (    0.003 sec)
  Aux angular momentum 3               ... done (    0.004 sec)
  Aux angular momentum 4               ... done (    0.006 sec)
  Aux angular momentum 5               ... done (    0.009 sec)
  Aux angular momentum 6               ... done (    0.014 sec)
Closing buffer VIA ( 0.02 GB; CompressionRatio= 1.00)
  Phase 1 completed in     0.148 sec
Second Phase: sorting and transformation of aux index

IA-Transformation
Memory available                       ... 4996 MB 
Max. # MO pairs treated in a batch     ... 2    
# of internal orbitals                 ... 28
# batches for internal orbitals        ... 1
Closing buffer IAV ( 0.00 GB; CompressionRatio= 1.00)
(ia|v) transformation done in     0.013 sec

  Phase 2 completed in     0.034 sec
RI-Integral transformation completed in     0.183 sec
Opening buffers                              ... done

Starting loop over batches of integrals:

Operator 0  - window                       ... (  0- 27)x( 28-176)
Operator 0  - Memory available             ...  5000 MB
Operator 0  - Memory needed per MO         ...   0.7 MB
Operator 0  - Number of orbitals per batch ... 2
Operator 0  - Number of batches            ... 1

OPERATOR  0   PASS   0:  MOs     0 ...    1 +    2 ...    3 +    4 ...    5 +    6 ...    7
                            +    8 ...    9 +   10 ...   11 +   12 ...   13 +   14 ...   15
                            +   16 ...   17 +   18 ...   19 +   20 ...   21 +   22 ...   23
                            +   24 ...   25 +   26 ...   27
  Reading integrals       ... ok
Time spent in pair loops =     0.004 sec

-----------------------------------------------
 RI-MP2 CORRELATION ENERGY:     -0.886891845 Eh
-----------------------------------------------


-------
TIMINGS
-------

Total time                :    0.277 sec
Integral trafo            :    0.201 sec ( 72.7%)
I/O of integrals          :    0.001 sec (  0.4%)
K(i,j) Operators          :    0.002 sec (  0.6%)
T(i,j) pair energies      :    0.000 sec (  0.1%)
V-calculation             :    0.013 sec (  4.8%)
V**(-1/2)                 :    0.021 sec (  7.6%)
Gamma(ia|P)               :    0.000 sec (  0.0%)
Gamma-Trafo               :    0.000 sec (  0.0%)
D(virtual)                :    0.000 sec (  0.0%)
D(internal)               :    0.000 sec (  0.0%)
W(virtual)                :    0.000 sec (  0.0%)
W(internal)               :    0.000 sec (  0.0%)
L(virtual)                :    0.000 sec (  0.0%)
L(internal)               :    0.000 sec (  0.0%)
G(D)                      :    0.000 sec (  0.0%)
G(Z)                      :    0.000 sec (  0.0%)
Z-Vector Solution         :    0.000 sec (  0.0%)
Z-Vector Solution         :    0.000 sec (  0.0%)
3-Index Derivative 
+ Separable RIJ part      :    0.000 sec (  0.0%)
2-Index Derivative 
+ Separable RIJ part      :    0.000 sec (  0.0%)
Separable Gradient (X)    :    0.000 sec (  0.0%)


---------------------------------------
MP2 TOTAL ENERGY:     -406.379620139 Eh
---------------------------------------


-------------------------------------------------------------------------------
                          DFT DISPERSION CORRECTION                            
                                                                               
                              DFTD3 V3.1  Rev 1                                
                          USING Becke-Johnson damping                          
-------------------------------------------------------------------------------
The DSD-BLYP/2013 functional is recognized
Active option DFTDOPT                   ...         4   

molecular C6(AA) [au] = 2854.409636 


            DFT-D V3
 parameters
 s6 scaling factor         :     0.5700 
 a1 scaling factor         :     0.0000 
 s8 scaling factor         :     0.0000 
 a2 scaling factor         :     5.4000 
 ad hoc parameters k1-k3   :    16.0000     1.3333    -4.0000 

 Edisp/kcal,au: -8.753314946844  -0.013949293795 
 E6   /kcal   :  -8.753314947 
 E8   /kcal   :  -0.000000000 
 % E8         :   0.000000000 

-------------------------   ----------------
Dispersion correction           -0.013949294
-------------------------   ----------------


-------------------------   --------------------
FINAL SINGLE POINT ENERGY      -406.393569432428
-------------------------   --------------------


                            ***************************************
                            *     ORCA property calculations      *
                            ***************************************


  WARNING: The energy has been calculated at the MP2 level but the densities
           used in the property calculations are still SCF densities
           MP2 response densities have not been calculated 
           use %mp2 Density relaxed end
           or  %mp2 Density unrelaxed end

                                    ---------------------
                                    Active property flags
                                    ---------------------
   (+) Dipole Moment


------------------------------------------------------------------------------
                       ORCA ELECTRIC PROPERTIES CALCULATION
------------------------------------------------------------------------------

Dipole Moment Calculation                       ... on
Quadrupole Moment Calculation                   ... off
Polarizability Calculation                      ... off
GBWName                                         ... Au03C1_D3H.gbw
Electron density file                           ... Au03C1_D3H.scfp
The origin for moment calculation is the CENTER OF MASS  = ( 0.000000,  0.000000  0.000000)

-------------
DIPOLE MOMENT
-------------
                                X             Y             Z
Electronic contribution:      0.00000      -0.00001       0.00000
Nuclear contribution   :      0.00000       0.00000      -0.00000
                        -----------------------------------------
Total Dipole Moment    :      0.00000      -0.00001       0.00000
                        -----------------------------------------
Magnitude (a.u.)       :      0.00001
Magnitude (Debye)      :      0.00004



--------------------
Rotational spectrum 
--------------------
 
Rotational constants in cm-1:     0.025312     0.025312     0.012656 
Rotational constants in MHz :   758.824167   758.823632   379.411950 

 Dipole components along the rotational axes: 
x,y,z [a.u.] :     0.000000    -0.000015     0.000000 
x,y,z [Debye]:     0.000000    -0.000038     0.000000 

 

Timings for individual modules:

Sum of individual times         ...        8.016 sec (=   0.134 min)
GTO integral calculation        ...        1.310 sec (=   0.022 min)  16.3 %
SCF iterations                  ...        5.859 sec (=   0.098 min)  73.1 %
MP2 module                      ...        0.846 sec (=   0.014 min)  10.6 %
                             ****ORCA TERMINATED NORMALLY****
TOTAL RUN TIME: 0 days 0 hours 0 minutes 8 seconds 641 msec
