
                                 *****************
                                 * O   R   C   A *
                                 *****************

           --- An Ab Initio, DFT and Semiempirical electronic structure package ---

                  #######################################################
                  #                        -***-                        #
                  #          Department of theory and spectroscopy      #
                  #               Directorship: Frank Neese             #
                  #        Max Planck Institute fuer Kohlenforschung    #
                  #                Kaiser Wilhelm Platz 1               #
                  #                 D-45470 Muelheim/Ruhr               #
                  #                      Germany                        #
                  #                                                     #
                  #                  All rights reserved                #
                  #                        -***-                        #
                  #######################################################


                         Program Version 4.2.0 -  RELEASE  -


 With contributions from (in alphabetic order):
   Daniel Aravena         : Magnetic Suceptibility
   Michael Atanasov       : Ab Initio Ligand Field Theory (pilot matlab implementation)
   Alexander A. Auer      : GIAO ZORA, VPT2
   Ute Becker             : Parallelization
   Giovanni Bistoni       : ED, misc. LED, open-shell LED, HFLED
   Martin Brehm           : Molecular dynamics
   Dmytro Bykov           : SCF Hessian
   Vijay G. Chilkuri      : MRCI spin determinant printing, contributions to CSF-ICE
   Dipayan Datta          : RHF DLPNO-CCSD density
   Achintya Kumar Dutta   : EOM-CC, STEOM-CC
   Dmitry Ganyushin       : Spin-Orbit,Spin-Spin,Magnetic field MRCI
   Miquel Garcia          : C-PCM Hessian, Gaussian charge scheme
   Yang Guo               : DLPNO-NEVPT2, CIM, IAO-localization
   Andreas Hansen         : Spin unrestricted coupled pair/coupled cluster methods
   Benjamin Helmich-Paris : CASSCF linear response (MC-RPA)
   Lee Huntington         : MR-EOM, pCC
   Robert Izsak           : Overlap fitted RIJCOSX, COSX-SCS-MP3, EOM
   Christian Kollmar      : KDIIS, OOCD, Brueckner-CCSD(T), CCSD density
   Simone Kossmann        : Meta GGA functionals, TD-DFT gradient, OOMP2, MP2 Hessian
   Martin Krupicka        : AUTO-CI
   Lucas Lang             : DCDCAS
   Dagmar Lenk            : GEPOL surface, SMD
   Dimitrios Liakos       : Extrapolation schemes; Compound Job, initial MDCI parallelization
   Dimitrios Manganas     : Further ROCIS development; embedding schemes
   Dimitrios Pantazis     : SARC Basis sets
   Taras Petrenko         : DFT Hessian,TD-DFT gradient, ASA, ECA, R-Raman, ABS, FL, XAS/XES, NRVS
   Peter Pinski           : DLPNO-MP2, DLPNO-MP2 Gradient
   Christoph Reimann      : Effective Core Potentials
   Marius Retegan         : Local ZFS, SOC
   Christoph Riplinger    : Optimizer, TS searches, QM/MM, DLPNO-CCSD(T), (RO)-DLPNO pert. Triples
   Tobias Risthaus        : Range-separated hybrids, TD-DFT gradient, RPA, STAB
   Michael Roemelt        : Original ROCIS implementation
   Masaaki Saitow         : Open-shell DLPNO-CCSD energy and density
   Barbara Sandhoefer     : DKH picture change effects
   Avijit Sen             : IP-ROCIS
   Kantharuban Sivalingam : CASSCF convergence, NEVPT2, FIC-MRCI
   Bernardo de Souza      : ESD, SOC TD-DFT
   Georgi Stoychev        : AutoAux, RI-MP2 NMR
   Willem Van den Heuvel  : Paramagnetic NMR
   Boris Wezisla          : Elementary symmetry handling
   Frank Wennmohs         : Technical directorship


 We gratefully acknowledge several colleagues who have allowed us to
 interface, adapt or use parts of their codes:
   Stefan Grimme, W. Hujo, H. Kruse,             : VdW corrections, initial TS optimization,
                  C. Bannwarth                     DFT functionals, gCP, sTDA/sTD-DF
   Ed Valeev, F. Pavosevic, A. Kumar             : LibInt (2-el integral package), F12 methods
   Garnet Chan, S. Sharma, J. Yang, R. Olivares  : DMRG
   Ulf Ekstrom                                   : XCFun DFT Library
   Mihaly Kallay                                 : mrcc  (arbitrary order and MRCC methods)
   Andreas Klamt, Michael Diedenhofen            : otool_cosmo (COSMO solvation model)
   Jiri Pittner, Ondrej Demel                    : Mk-CCSD
   Frank Weinhold                                : gennbo (NPA and NBO analysis)
   Christopher J. Cramer and Donald G. Truhlar   : smd solvation model
   Lars Goerigk                                  : TD-DFT with DH, B97 family of functionals
   V. Asgeirsson, H. Jonsson                     : NEB implementation
   FAccTs GmbH                                   : IRC, NEB, NEB-TS, Multilevel, MM, QM/MM, CI optimization
   S Lehtola, MJT Oliveira, MAL Marques          : LibXC Library


 Your calculation uses the libint2 library for the computation of 2-el integrals
 For citations please refer to: http://libint.valeyev.net

 Your ORCA version has been built with support for libXC version: 4.2.3
 For citations please refer to: https://tddft.org/programs/libxc/

 This ORCA versions uses:
   CBLAS   interface :  Fast vector & matrix operations
   LAPACKE interface :  Fast linear algebra routines
   SCALAPACK package :  Parallel linear algebra routines


Your calculation utilizes the atom-pairwise dispersion correction
with the Becke-Johnson damping scheme (D3BJ)
Cite in your paper:
S.Grimme, S.Ehrlich, L.Goerigk, J Comput Chem, (2011), 32, 1456–1465 
S.Grimme, J.Antony, S.Ehrlich and H.Krieg, J.Chem.Phys., 132, (2010), 154104 
   

----- Orbital basis set information -----
Your calculation utilizes the basis: def2-TZVPPD
   F. Weigend and R. Ahlrichs, Phys. Chem. Chem. Phys. 7, 3297 (2005).
   D. Rappoport and F. Furche, J. Chem. Phys. 133 134105 (2010).

----- AuxC basis set information -----
Your calculation utilizes the auxiliary basis: def2-TZVPPD/C
   A. Hellweg, C. Hattig, S. Hofener and W. Klopper, Theor. Chem. Acc. 117, 587 (2007).

----- AuxJK basis set information -----
Your calculation utilizes the auxiliary basis: def2/JK
   H-Ba, Hf-Rn: F. Weigend, J. Comput. Chem. 29, 167 (2008).

cite the ECPs for Au [Def2-ECP] as follows:
Ce-Yb(ecp-28): M. Dolg, H. Stoll, H.Preuss, J. Chem. Phys., 1989, 90, 1730-1734.
Y-Cd(ecp-28), Hf-Hg(ecp-46): D. Andrae,U. Haeussermann, M. Dolg, H. Stoll, H. Preuss, Theor. Chim. Acta, 1990, 77, 123-141.
In-Sb(ecp-28), Tl-Bi(ecp-46): B. Metz, H. Stoll, M. Dolg, J. Chem. Phys., 2000, 113, 2563-2569.
Te-Xe(ecp-28), Po-Rn(ecp-46): K. A. Peterson, D. Figgen, E. Goll, H. Stoll, M. Dolg, J. Chem. Phys., 2003, 119, 11113-11123.
Rb(ecp-28), Cs(ecp-46): T. Leininger, A. Nicklass, W. Kuechle, H. Stoll, M. Dolg, A. Bergner, Chem. Phys. Lett., 1996, 255, 274-280.
Sr(ecp-28), Ba(ecp-46): M. Kaupp, P. V. Schleyer, H. Stoll and H. Preuss, J. Chem. Phys., 1991, 94, 1360-1366.
La(ecp-46): M. Dolg, H. Stoll, A. Savin, H. Preuss, Theor. Chim. Acta, 1989, 75, 173-194.
Lu(ecp-28): X. Cao, M. Dolg, J. Chem. Phys., 2001, 115, 7348-7355.

ECP parameters for Au [Def2-ECP] have been obtained from:
TURBOMOLE (7.0.2)

================================================================================
                                        WARNINGS
                       Please study these warnings very carefully!
================================================================================


WARNING: your system is open-shell and RHF/RKS was chosen
  ===> : WILL SWITCH to UHF/UKS


WARNING: No MP2 level density has been requested!
         To caclulate MP2 level properties use
         %mp2 Density relaxed end
         or
         %mp2 Density unrelaxed end
         Otherwise for double-hybrid DFT only the energy is correct!

WARNING: There are different parametrizations of Gershom Martin's DSD-DFs
         for use with and without D3(BJ)!
         You are using the D3(BJ) parametrized version,
         consistent with the 2013 article (S. Kozuch and J. M. L. Martin, JCC 2013, 34, 2327)

WARNING: The frozen-core approximation is turned on by default for 
         the MP2 part of double-hybrid DFT.

INFO   : the flag for use of LIBINT has been found!

================================================================================
                                       INPUT FILE
================================================================================
NAME = Au03N0_LIN.in
|  1> #
|  2> # Au03N0_LIN ri-DSD-BLYP/2013-D3BJ/Def2-TZVPPD
|  3> #
|  4> ! rijk ri-dsd-blyp/2013 d3bj def2-tzvppd def2/jk def2-tzvppd/c grid4 nofinalgrid
|  5> 
|  6> *xyz 0 2
|  7> Au       0.000000    0.000000    0.000000 
|  8> Au       0.000000    0.000000    2.547414 
|  9> Au       0.000000    0.000000   -2.547414 
| 10> *
| 11> 
| 12> %maxcore 5000
| 13> 
| 14> %pal
| 15> nprocs = 24
| 16> end
| 17> 
| 18> 
| 19>                          ****END OF INPUT****
================================================================================

                       ****************************
                       * Single Point Calculation *
                       ****************************

---------------------------------
CARTESIAN COORDINATES (ANGSTROEM)
---------------------------------
  Au     0.000000    0.000000    0.000000
  Au     0.000000    0.000000    2.547414
  Au     0.000000    0.000000   -2.547414

----------------------------
CARTESIAN COORDINATES (A.U.)
----------------------------
  NO LB      ZA    FRAG     MASS         X           Y           Z
   0 Au   19.0000*   0   196.966    0.000000    0.000000    0.000000
   1 Au   19.0000*   0   196.966    0.000000    0.000000    4.813915
   2 Au   19.0000*   0   196.966    0.000000    0.000000   -4.813915
* core charge reduced due to ECP

--------------------------------
INTERNAL COORDINATES (ANGSTROEM)
--------------------------------
 Au     0   0   0     0.000000000000     0.00000000     0.00000000
 Au     1   0   0     2.547414000000     0.00000000     0.00000000
 Au     1   2   0     2.547414000000   179.99999915     0.00000000

---------------------------
INTERNAL COORDINATES (A.U.)
---------------------------
 Au     0   0   0     0.000000000000     0.00000000     0.00000000
 Au     1   0   0     4.813914809717     0.00000000     0.00000000
 Au     1   2   0     4.813914809717   179.99999915     0.00000000

---------------------
BASIS SET INFORMATION
---------------------
There are 1 groups of distinct atoms

 Group   1 Type Au  : 8s8p6d2f1g contracted to 6s5p3d2f1g pattern {311111/41111/411/11/1}

Atom   0Au   basis set group =>   1
Atom   1Au   basis set group =>   1
Atom   2Au   basis set group =>   1
---------------------------------
AUXILIARY/C BASIS SET INFORMATION
---------------------------------
There are 1 groups of distinct atoms

 Group   1 Type Au  : 9s9p8d5f4g3h1i contracted to 9s9p8d5f4g3h1i pattern {111111111/111111111/11111111/11111/1111/111/1}

Atom   0Au   basis set group =>   1
Atom   1Au   basis set group =>   1
Atom   2Au   basis set group =>   1
----------------------------------
AUXILIARY/JK BASIS SET INFORMATION
----------------------------------
There are 1 groups of distinct atoms

 Group   1 Type Au  : 13s12p11d9f5g3h2i contracted to 13s11p10d8f4g3h2i pattern {1111111111111/21111111111/2111111111/21111111/2111/111/11}

Atom   0Au   basis set group =>   1
Atom   1Au   basis set group =>   1
Atom   2Au   basis set group =>   1
-------------------------
ECP PARAMETER INFORMATION
-------------------------

 Group 1, Type Au ECP Def2-ECP (replacing 60 core electrons, lmax=3)

Atom   0Au   ECP group =>   1
Atom   1Au   ECP group =>   1
Atom   2Au   ECP group =>   1



           ************************************************************
           *        Program running with 24 parallel MPI-processes    *
           *              working on a common directory               *
           ************************************************************
------------------------------------------------------------------------------
                           ORCA GTO INTEGRAL CALCULATION
                           -- RI-GTO INTEGRALS CHOSEN --
------------------------------------------------------------------------------

                         BASIS SET STATISTICS AND STARTUP INFO

Gaussian basis set:
 # of primitive gaussian shells          ...   75
 # of primitive gaussian functions       ...  255
 # of contracted shells                  ...   51
 # of contracted basis functions         ...  177
 Highest angular momentum                ...    4
 Maximum contraction depth               ...    4
Auxiliary gaussian basis set:
 # of primitive gaussian shells          ...  165
 # of primitive gaussian functions       ...  813
 # of contracted shells                  ...  153
 # of contracted aux-basis functions     ...  741
 Highest angular momentum                ...    6
 Maximum contraction depth               ...    2
Ratio of auxiliary to basis functions    ...  4.19
Integral package used                  ... LIBINT
 One Electron integrals                  
   ECP integrals                         ... done
 Ordering auxiliary basis shells         ... done
 Integral threshhold             Thresh  ...  1.000e-10
 Primitive cut-off               TCut    ...  1.000e-11
 Pre-screening matrix                    ... done
 Shell pair data                         ... 
 Ordering of the shell pairs             ... done (   0.000 sec) 1221 of 1326 pairs
 Determination of significant pairs      ... done (   0.000 sec)
 Creation of shell pair data             ... done (   0.000 sec)
 Storage of shell pair data              ... done (   0.009 sec)
 Shell pair data done in (   0.010 sec)
 Computing two index integrals           ... done
 Cholesky decomposition of the V-matrix  ... done


Timings:
 Total evaluation time                   ...   0.648 sec (  0.011 min)
 One electron matrix time                ...   0.333 sec (  0.006 min) = 51.4%
 Schwartz matrix evaluation time         ...   0.135 sec (  0.002 min) = 20.8%
 Two index repulsion integral time       ...   0.132 sec (  0.002 min) = 20.4%
 Cholesky decomposition of V             ...   0.008 sec (  0.000 min) =  1.3%
 Three index repulsion integral time     ...   0.000 sec (  0.000 min) =  0.0%



           ************************************************************
           *        Program running with 24 parallel MPI-processes    *
           *              working on a common directory               *
           ************************************************************
-------------------------------------------------------------------------------
                                 ORCA SCF
-------------------------------------------------------------------------------

------------
SCF SETTINGS
------------
Hamiltonian:
 Density Functional     Method          .... DFT(GTOs)
 Exchange Functional    Exchange        .... B88
   X-Alpha parameter    XAlpha          ....  0.666667
   Becke's b parameter  XBeta           ....  0.004200
 Correlation Functional Correlation     .... LYP
 LDA part of GGA corr.  LDAOpt          .... VWN-5
 Gradients option       PostSCFGGA      .... off
 Hybrid DFT is turned on
   Fraction HF Exchange ScalHFX         ....  0.710000
   Scaling of DF-GGA-X  ScalDFX         ....  0.290000
   Scaling of DF-GGA-C  ScalDFC         ....  0.540000
   Scaling of DF-LDA-C  ScalLDAC        ....  0.540000
   Perturbative correction              ....  1.000000
   Density functional embedding theory  .... OFF
 RI-approximation to the Coulomb term is turned on
   Number of auxiliary basis functions  .... 741
   RI-JK (J+K treated both via RI)      .... on


General Settings:
 Integral files         IntName         .... Au03N0_LIN
 Hartree-Fock type      HFTyp           .... UHF
 Total Charge           Charge          ....    0
 Multiplicity           Mult            ....    2
 Number of Electrons    NEL             ....   57
 Basis Dimension        Dim             ....  177
 Nuclear Repulsion      ENuc            ....    187.4773517342 Eh

Convergence Acceleration:
 DIIS                   CNVDIIS         .... on
   Start iteration      DIISMaxIt       ....    12
   Startup error        DIISStart       ....  0.200000
   # of expansion vecs  DIISMaxEq       ....     5
   Bias factor          DIISBfac        ....   1.050
   Max. coefficient     DIISMaxC        ....  10.000
 Newton-Raphson         CNVNR           .... off
 SOSCF                  CNVSOSCF        .... off
 Level Shifting         CNVShift        .... on
   Level shift para.    LevelShift      ....    0.2500
   Turn off err/grad.   ShiftErr        ....    0.0010
 Zerner damping         CNVZerner       .... off
 Static damping         CNVDamp         .... on
   Fraction old density DampFac         ....    0.7000
   Max. Damping (<1)    DampMax         ....    0.9800
   Min. Damping (>=0)   DampMin         ....    0.0000
   Turn off err/grad.   DampErr         ....    0.1000
 Fernandez-Rico         CNVRico         .... off

SCF Procedure:
 Maximum # iterations   MaxIter         ....   125
 SCF integral mode      SCFMode         .... Direct
   Integral package                     .... LIBINT
 Reset frequency        DirectResetFreq ....    20
 Integral Threshold     Thresh          ....  1.000e-10 Eh
 Primitive CutOff       TCut            ....  1.000e-11 Eh

Convergence Tolerance:
 Convergence Check Mode ConvCheckMode   .... Total+1el-Energy
 Convergence forced     ConvForced      .... 0
 Energy Change          TolE            ....  1.000e-06 Eh
 1-El. energy change                    ....  1.000e-03 Eh
 DIIS Error             TolErr          ....  1.000e-06


Diagonalization of the overlap matrix:
Smallest eigenvalue                        ... 7.322e-04
Time for diagonalization                   ...    0.007 sec
Threshold for overlap eigenvalues          ... 1.000e-08
Number of eigenvalues below threshold      ... 0
Time for construction of square roots      ...    0.003 sec
Total time needed                          ...    0.010 sec

-------------------
DFT GRID GENERATION
-------------------

General Integration Accuracy     IntAcc      ...  4.670
Radial Grid Type                 RadialGrid  ... Gauss-Chebyshev
Angular Grid (max. acc.)         AngularGrid ... Lebedev-302
Angular grid pruning method      GridPruning ... 3 (G Style)
Weight generation scheme         WeightScheme... Becke
Basis function cutoff            BFCut       ...    1.0000e-10
Integration weight cutoff        WCut        ...    1.0000e-14
Grids for H and He will be reduced by one unit

# of grid points (after initial pruning)     ...  34956 (   0.0 sec)
# of grid points (after weights+screening)   ...  34728 (   0.0 sec)
nearest neighbour list constructed           ...    0.0 sec
Grid point re-assignment to atoms done       ...    0.0 sec
Grid point division into batches done        ...    0.3 sec
Reduced shell lists constructed in    0.3 sec

Total number of grid points                  ...    34728
Total number of batches                      ...      544
Average number of points per batch           ...       63
Average number of grid points per atom       ...    11576
Average number of shells per batch           ...    13.33 (26.14%)
Average number of basis functions per batch  ...    40.33 (22.79%)
Average number of large shells per batch     ...    10.04 (75.31%)
Average number of large basis fcns per batch ...    27.29 (67.67%)
Average number of aux-shells per batch       ...    13.33 ( 8.71%)
Average number of aux functions per batch    ...    40.33 ( 5.44%)
Maximum spatial batch extension              ...  37.74, 37.74,  4.80 au
Average spatial batch extension              ...   0.53,  0.53,  0.19 au

Time for grid setup =    0.384 sec

------------------------------
INITIAL GUESS: MODEL POTENTIAL
------------------------------
Loading Hartree-Fock densities                     ... done
  calling /sw/apps/orca/orca_4_2_0_linux_x86-64_openmpi314/orca Au03N0_LIN_atom79.inp > Au03N0_LIN_atom79.out in order to generate an atomic fitting density for atom 0 (Au with ECP) on-the-fly... 
    atom 0 (Au), assumed electronic state with S=2: 1s2 2s2 2p6 3s2 3p6 4s2 3d10 4p6 5s2 4d10 5p6 6s1 4f14 5d10           ... done
Calculating cut-offs                               ... done
Setting up the integral package                    ... done
Initializing the effective Hamiltonian             ... done
Starting the Coulomb interaction                   ... done (   0.0 sec)
Reading the grid                                   ... done
Mapping shells                                     ... done
Starting the XC term evaluation                    ... done (   0.0 sec)
  promolecular density results
     # of electrons  =    237.007935912
     EX              =  -1102.052351144
     EC              =     -1.448032122
     EX+EC           =  -1103.500383266
Transforming the Hamiltonian                       ... done (   0.0 sec)
Diagonalizing the Hamiltonian                      ... done (   0.0 sec)
Back transforming the eigenvectors                 ... done (   0.0 sec)
Now organizing SCF variables                       ... done
                      ------------------
                      INITIAL GUESS DONE (   1.4 sec)
                      ------------------
--------------
SCF ITERATIONS
--------------
ITER       Energy         Delta-E        Max-DP      RMS-DP      [F,P]     Damp
  0   -405.4067416316   0.000000000000 0.14411405  0.00184374  0.5509313 0.7000
  1   -405.2960709840   0.110670647670 0.11547451  0.00154494  0.4038506 0.7000
  2   -405.4044465832  -0.108375599215 0.07727009  0.00106266  0.2783633 0.7000
                               ***Turning on DIIS***
  3   -405.5562368629  -0.151790279768 0.05104171  0.00072031  0.1913465 0.7000
  4   -405.6602307922  -0.103993929263 0.03523017  0.00052994  0.1322870 0.7000
  5   -405.7238122443  -0.063581452137 0.09506161  0.00145728  0.0928336 0.0000
  6   -405.7100969385   0.013715305835 0.00910346  0.00018062  0.0268872 0.0000
  7   -405.7139064559  -0.003809517437 0.00533862  0.00010240  0.0101183 0.0000
  8   -405.7145920152  -0.000685559237 0.00247512  0.00005600  0.0047289 0.0000
  9   -405.7147482914  -0.000156276234 0.00263446  0.00003270  0.0013412 0.0000
 10   -405.7147816005  -0.000033309034 0.00311468  0.00003739  0.0007579 0.0000
 11   -405.7148015599  -0.000019959439 0.00169900  0.00001753  0.0003381 0.0000
 12   -405.7148066220  -0.000005062089 0.00087980  0.00001112  0.0001876 0.0000
 13   -405.7148085615  -0.000001939536 0.00061632  0.00000727  0.0000971 0.0000
                 **** Energy Check signals convergence ****

               *****************************************************
               *                     SUCCESS                       *
               *           SCF CONVERGED AFTER  14 CYCLES          *
               *****************************************************


----------------
TOTAL SCF ENERGY
----------------

Total Energy       :         -405.71480919 Eh          -11040.06122 eV

Components:
Nuclear Repulsion  :          187.47735173 Eh            5101.51810 eV
Electronic Energy  :         -593.19216092 Eh          -16141.57932 eV
One Electron Energy:        -1091.57854514 Eh          -29703.36230 eV
Two Electron Energy:          498.38638422 Eh           13561.78298 eV

Virial components:
Potential Energy   :         -543.79164937 Eh          -14797.32306 eV
Kinetic Energy     :          138.07684018 Eh            3757.26184 eV
Virial Ratio       :            3.93832629


DFT components:
N(Alpha)           :       28.999996480565 electrons
N(Beta)            :       27.999996890771 electrons
N(Total)           :       56.999993371336 electrons
E(X)               :      -10.594461797717 Eh       
E(C)               :       -1.118001304859 Eh       
E(XC)              :      -11.712463102576 Eh       
DFET-embed. en.    :        0.000000000000 Eh       

---------------
SCF CONVERGENCE
---------------

  Last Energy change         ...   -6.2667e-07  Tolerance :   1.0000e-06
  Last MAX-Density change    ...    2.7772e-04  Tolerance :   1.0000e-05
  Last RMS-Density change    ...    3.2180e-06  Tolerance :   1.0000e-06
  Last DIIS Error            ...    3.7484e-05  Tolerance :   1.0000e-06

             **** THE GBW FILE WAS UPDATED (Au03N0_LIN.gbw) ****
             **** DENSITY FILE WAS UPDATED (Au03N0_LIN.scfp) ****
             **** ENERGY FILE WAS UPDATED (Au03N0_LIN.en.tmp) ****
----------------------
UHF SPIN CONTAMINATION
----------------------

Warning: in a DFT calculation there is little theoretical justification to 
         calculate <S**2> as in Hartree-Fock theory. We will do it anyways
         but you should keep in mind that the values have only limited relevance

Expectation value of <S**2>     :     0.800444
Ideal value S*(S+1) for S=0.5   :     0.750000
Deviation                       :     0.050444

             **** THE GBW FILE WAS UPDATED (Au03N0_LIN.gbw) ****
             **** DENSITY FILE WAS UPDATED (Au03N0_LIN.scfp) ****
----------------
ORBITAL ENERGIES
----------------
                 SPIN UP ORBITALS
  NO   OCC          E(Eh)            E(eV) 
   0   1.0000      -4.503604      -122.5493 
   1   1.0000      -4.503593      -122.5490 
   2   1.0000      -4.485943      -122.0687 
   3   1.0000      -2.597052       -70.6694 
   4   1.0000      -2.592836       -70.5546 
   5   1.0000      -2.588067       -70.4249 
   6   1.0000      -2.588067       -70.4249 
   7   1.0000      -2.588048       -70.4244 
   8   1.0000      -2.588048       -70.4244 
   9   1.0000      -2.573769       -70.0358 
  10   1.0000      -2.568671       -69.8971 
  11   1.0000      -2.568671       -69.8971 
  12   1.0000      -0.490945       -13.3593 
  13   1.0000      -0.450982       -12.2718 
  14   1.0000      -0.450982       -12.2718 
  15   1.0000      -0.417945       -11.3729 
  16   1.0000      -0.417945       -11.3729 
  17   1.0000      -0.417215       -11.3530 
  18   1.0000      -0.411861       -11.2073 
  19   1.0000      -0.411857       -11.2072 
  20   1.0000      -0.409211       -11.1352 
  21   1.0000      -0.409207       -11.1351 
  22   1.0000      -0.381623       -10.3845 
  23   1.0000      -0.381618       -10.3843 
  24   1.0000      -0.356864        -9.7108 
  25   1.0000      -0.356864        -9.7108 
  26   1.0000      -0.348513        -9.4835 
  27   1.0000      -0.312718        -8.5095 
  28   1.0000      -0.272285        -7.4092 
  29   0.0000      -0.037315        -1.0154 
  30   0.0000       0.012189         0.3317 
  31   0.0000       0.012189         0.3317 
  32   0.0000       0.036581         0.9954 
  33   0.0000       0.048947         1.3319 
  34   0.0000       0.048947         1.3319 
  35   0.0000       0.120241         3.2719 
  36   0.0000       0.120241         3.2719 
  37   0.0000       0.126201         3.4341 
  38   0.0000       0.152148         4.1402 
  39   0.0000       0.190332         5.1792 
  40   0.0000       0.224614         6.1121 
  41   0.0000       0.230536         6.2732 
  42   0.0000       0.230536         6.2732 
  43   0.0000       0.267886         7.2896 
  44   0.0000       0.267886         7.2896 
  45   0.0000       0.272573         7.4171 
  46   0.0000       0.336368         9.1530 
  47   0.0000       0.336368         9.1530 
  48   0.0000       0.341770         9.3000 
  49   0.0000       0.341770         9.3000 
  50   0.0000       0.372125        10.1260 
  51   0.0000       0.372125        10.1260 
  52   0.0000       0.376392        10.2421 
  53   0.0000       0.378883        10.3099 
  54   0.0000       0.405806        11.0425 
  55   0.0000       0.405806        11.0425 
  56   0.0000       0.463483        12.6120 
  57   0.0000       0.463483        12.6120 
  58   0.0000       0.491872        13.3845 
  59   0.0000       0.501403        13.6439 
  60   0.0000       0.501403        13.6439 
  61   0.0000       0.602397        16.3921 
  62   0.0000       0.647706        17.6250 
  63   0.0000       0.647706        17.6250 
  64   0.0000       0.690693        18.7947 
  65   0.0000       0.724858        19.7244 
  66   0.0000       0.968876        26.3644 
  67   0.0000       1.071691        29.1622 
  68   0.0000       1.071691        29.1622 
  69   0.0000       1.184606        32.2348 
  70   0.0000       1.189962        32.3805 
  71   0.0000       1.189963        32.3805 
  72   0.0000       1.191076        32.4108 
  73   0.0000       1.191076        32.4108 
  74   0.0000       1.218379        33.1538 
  75   0.0000       1.218379        33.1538 
  76   0.0000       1.264116        34.3983 
  77   0.0000       1.264116        34.3983 
  78   0.0000       1.266689        34.4684 
  79   0.0000       1.266689        34.4684 
  80   0.0000       1.270833        34.5811 
  81   0.0000       1.270833        34.5811 
  82   0.0000       1.281282        34.8654 
  83   0.0000       1.281282        34.8655 
  84   0.0000       1.306243        35.5447 
  85   0.0000       1.306243        35.5447 
  86   0.0000       1.324919        36.0529 
  87   0.0000       1.384487        37.6738 
  88   0.0000       1.384488        37.6738 
  89   0.0000       1.394960        37.9588 
  90   0.0000       1.394960        37.9588 
  91   0.0000       1.433679        39.0124 
  92   0.0000       1.558626        42.4124 
  93   0.0000       1.558626        42.4124 
  94   0.0000       1.606062        43.7032 
  95   0.0000       1.606062        43.7032 
  96   0.0000       1.608861        43.7793 
  97   0.0000       1.617177        44.0056 
  98   0.0000       1.640014        44.6270 
  99   0.0000       1.640020        44.6272 
 100   0.0000       1.657838        45.1121 
 101   0.0000       1.657844        45.1122 
 102   0.0000       1.697942        46.2033 
 103   0.0000       1.724077        46.9145 
 104   0.0000       1.724083        46.9147 
 105   0.0000       1.829134        49.7733 
 106   0.0000       1.829134        49.7733 
 107   0.0000       1.922144        52.3042 
 108   0.0000       1.922144        52.3042 
 109   0.0000       2.115590        57.5681 
 110   0.0000       2.280914        62.0668 
 111   0.0000       2.348078        63.8944 
 112   0.0000       2.644730        71.9668 
 113   0.0000       3.021955        82.2316 
 114   0.0000       3.773600       102.6849 
 115   0.0000       3.773600       102.6849 
 116   0.0000       3.799823       103.3984 
 117   0.0000       3.799881       103.4000 
 118   0.0000       3.861965       105.0894 
 119   0.0000       3.861965       105.0894 
 120   0.0000       3.866144       105.2031 
 121   0.0000       3.866144       105.2031 
 122   0.0000       3.870716       105.3275 
 123   0.0000       3.870766       105.3289 
 124   0.0000       3.892039       105.9078 
 125   0.0000       3.892039       105.9078 
 126   0.0000       3.934568       107.0650 
 127   0.0000       3.934568       107.0650 
 128   0.0000       3.967421       107.9590 
 129   0.0000       3.967491       107.9609 
 130   0.0000       4.021316       109.4256 
 131   0.0000       4.078142       110.9719 
 132   0.0000       4.169387       113.4548 
 133   0.0000       4.169387       113.4548 
 134   0.0000       4.260215       115.9264 
 135   0.0000       4.393220       119.5456 
 136   0.0000       4.394758       119.5874 
 137   0.0000       4.394758       119.5874 
 138   0.0000       4.399509       119.7167 
 139   0.0000       4.399538       119.7175 
 140   0.0000       4.404567       119.8544 
 141   0.0000       4.404567       119.8544 
 142   0.0000       4.404678       119.8574 
 143   0.0000       4.404678       119.8574 
 144   0.0000       4.405926       119.8913 
 145   0.0000       4.405951       119.8920 
 146   0.0000       4.408214       119.9536 
 147   0.0000       4.408214       119.9536 
 148   0.0000       4.408375       119.9580 
 149   0.0000       4.408375       119.9580 
 150   0.0000       4.427560       120.4800 
 151   0.0000       4.427560       120.4800 
 152   0.0000       4.428832       120.5146 
 153   0.0000       4.428872       120.5157 
 154   0.0000       4.433775       120.6492 
 155   0.0000       4.434004       120.6554 
 156   0.0000       4.490076       122.1812 
 157   0.0000       4.490076       122.1812 
 158   0.0000       4.503892       122.5571 
 159   0.0000       4.503892       122.5571 
 160   0.0000       4.729168       128.6872 
 161   0.0000       4.742933       129.0618 
 162   0.0000      27.323521       743.5108 
 163   0.0000      27.323521       743.5108 
 164   0.0000      27.648360       752.3501 
 165   0.0000      27.648360       752.3501 
 166   0.0000      27.888673       758.8894 
 167   0.0000      27.888673       758.8894 
 168   0.0000      28.222830       767.9823 
 169   0.0000      28.608748       778.4836 
 170   0.0000      31.491041       856.9148 
 171   0.0000      44.080845      1199.5008 
 172   0.0000      44.375429      1207.5168 
 173   0.0000      44.778582      1218.4872 
 174   0.0000     203.327934      5532.8344 
 175   0.0000     203.452994      5536.2374 
 176   0.0000     203.630286      5541.0618 

                 SPIN DOWN ORBITALS
  NO   OCC          E(Eh)            E(eV) 
   0   1.0000      -4.502122      -122.5090 
   1   1.0000      -4.502108      -122.5086 
   2   1.0000      -4.487536      -122.1121 
   3   1.0000      -2.598561       -70.7104 
   4   1.0000      -2.594630       -70.6035 
   5   1.0000      -2.588724       -70.4428 
   6   1.0000      -2.588724       -70.4428 
   7   1.0000      -2.588668       -70.4412 
   8   1.0000      -2.588668       -70.4412 
   9   1.0000      -2.575610       -70.0859 
  10   1.0000      -2.570289       -69.9411 
  11   1.0000      -2.570289       -69.9411 
  12   1.0000      -0.487374       -13.2621 
  13   1.0000      -0.447022       -12.1641 
  14   1.0000      -0.447022       -12.1641 
  15   1.0000      -0.415677       -11.3111 
  16   1.0000      -0.412434       -11.2229 
  17   1.0000      -0.412434       -11.2229 
  18   1.0000      -0.406398       -11.0587 
  19   1.0000      -0.406394       -11.0585 
  20   1.0000      -0.403015       -10.9666 
  21   1.0000      -0.403011       -10.9665 
  22   1.0000      -0.382319       -10.4034 
  23   1.0000      -0.382314       -10.4033 
  24   1.0000      -0.357379        -9.7248 
  25   1.0000      -0.357379        -9.7248 
  26   1.0000      -0.342688        -9.3250 
  27   1.0000      -0.276810        -7.5324 
  28   0.0000      -0.108422        -2.9503 
  29   0.0000      -0.015691        -0.4270 
  30   0.0000       0.020963         0.5704 
  31   0.0000       0.020963         0.5704 
  32   0.0000       0.049206         1.3390 
  33   0.0000       0.062262         1.6942 
  34   0.0000       0.062262         1.6942 
  35   0.0000       0.120195         3.2707 
  36   0.0000       0.120195         3.2707 
  37   0.0000       0.130915         3.5624 
  38   0.0000       0.163354         4.4451 
  39   0.0000       0.194852         5.3022 
  40   0.0000       0.232983         6.3398 
  41   0.0000       0.240874         6.5545 
  42   0.0000       0.240874         6.5545 
  43   0.0000       0.279432         7.6037 
  44   0.0000       0.284803         7.7499 
  45   0.0000       0.284803         7.7499 
  46   0.0000       0.340726         9.2716 
  47   0.0000       0.340726         9.2716 
  48   0.0000       0.344485         9.3739 
  49   0.0000       0.344486         9.3739 
  50   0.0000       0.377802        10.2805 
  51   0.0000       0.377802        10.2805 
  52   0.0000       0.384472        10.4620 
  53   0.0000       0.385404        10.4874 
  54   0.0000       0.410689        11.1754 
  55   0.0000       0.410689        11.1754 
  56   0.0000       0.464941        12.6517 
  57   0.0000       0.464941        12.6517 
  58   0.0000       0.496596        13.5131 
  59   0.0000       0.506017        13.7694 
  60   0.0000       0.506017        13.7694 
  61   0.0000       0.609374        16.5819 
  62   0.0000       0.651341        17.7239 
  63   0.0000       0.651341        17.7239 
  64   0.0000       0.697878        18.9902 
  65   0.0000       0.725816        19.7505 
  66   0.0000       0.975188        26.5362 
  67   0.0000       1.077314        29.3152 
  68   0.0000       1.077314        29.3152 
  69   0.0000       1.192625        32.4530 
  70   0.0000       1.196206        32.5504 
  71   0.0000       1.196206        32.5504 
  72   0.0000       1.202191        32.7133 
  73   0.0000       1.202191        32.7133 
  74   0.0000       1.229463        33.4554 
  75   0.0000       1.229463        33.4554 
  76   0.0000       1.263320        34.3767 
  77   0.0000       1.263320        34.3767 
  78   0.0000       1.276075        34.7238 
  79   0.0000       1.276075        34.7238 
  80   0.0000       1.282065        34.8868 
  81   0.0000       1.282065        34.8868 
  82   0.0000       1.291466        35.1426 
  83   0.0000       1.291467        35.1426 
  84   0.0000       1.306364        35.5480 
  85   0.0000       1.306364        35.5480 
  86   0.0000       1.330013        36.1915 
  87   0.0000       1.387204        37.7477 
  88   0.0000       1.387205        37.7478 
  89   0.0000       1.402974        38.1769 
  90   0.0000       1.402974        38.1769 
  91   0.0000       1.441753        39.2321 
  92   0.0000       1.560924        42.4749 
  93   0.0000       1.560924        42.4749 
  94   0.0000       1.610446        43.8225 
  95   0.0000       1.610835        43.8331 
  96   0.0000       1.610835        43.8331 
  97   0.0000       1.621255        44.1166 
  98   0.0000       1.644124        44.7389 
  99   0.0000       1.644129        44.7390 
 100   0.0000       1.665446        45.3191 
 101   0.0000       1.665449        45.3192 
 102   0.0000       1.701601        46.3029 
 103   0.0000       1.725463        46.9522 
 104   0.0000       1.725468        46.9524 
 105   0.0000       1.834750        49.9261 
 106   0.0000       1.834750        49.9261 
 107   0.0000       1.924326        52.3636 
 108   0.0000       1.924326        52.3636 
 109   0.0000       2.120484        57.7013 
 110   0.0000       2.288299        62.2678 
 111   0.0000       2.350288        63.9546 
 112   0.0000       2.651696        72.1563 
 113   0.0000       3.022160        82.2371 
 114   0.0000       3.773048       102.6698 
 115   0.0000       3.773048       102.6698 
 116   0.0000       3.799795       103.3977 
 117   0.0000       3.799854       103.3993 
 118   0.0000       3.861879       105.0871 
 119   0.0000       3.861879       105.0871 
 120   0.0000       3.866186       105.2043 
 121   0.0000       3.866186       105.2043 
 122   0.0000       3.870986       105.3349 
 123   0.0000       3.871036       105.3363 
 124   0.0000       3.891332       105.8885 
 125   0.0000       3.891332       105.8885 
 126   0.0000       3.933871       107.0461 
 127   0.0000       3.933871       107.0461 
 128   0.0000       3.967229       107.9538 
 129   0.0000       3.967300       107.9557 
 130   0.0000       4.020551       109.4048 
 131   0.0000       4.077100       110.9435 
 132   0.0000       4.169440       113.4562 
 133   0.0000       4.169440       113.4562 
 134   0.0000       4.260881       115.9445 
 135   0.0000       4.393680       119.5581 
 136   0.0000       4.395721       119.6137 
 137   0.0000       4.395721       119.6137 
 138   0.0000       4.401232       119.7636 
 139   0.0000       4.401261       119.7644 
 140   0.0000       4.407176       119.9254 
 141   0.0000       4.407176       119.9254 
 142   0.0000       4.407291       119.9285 
 143   0.0000       4.407291       119.9285 
 144   0.0000       4.407929       119.9459 
 145   0.0000       4.407954       119.9465 
 146   0.0000       4.410996       120.0293 
 147   0.0000       4.410996       120.0293 
 148   0.0000       4.411159       120.0337 
 149   0.0000       4.411159       120.0337 
 150   0.0000       4.426518       120.4517 
 151   0.0000       4.426518       120.4517 
 152   0.0000       4.427491       120.4781 
 153   0.0000       4.427530       120.4792 
 154   0.0000       4.433442       120.6401 
 155   0.0000       4.433671       120.6463 
 156   0.0000       4.491100       122.2090 
 157   0.0000       4.491100       122.2090 
 158   0.0000       4.502609       122.5222 
 159   0.0000       4.502609       122.5222 
 160   0.0000       4.728446       128.6675 
 161   0.0000       4.743412       129.0748 
 162   0.0000      27.324730       743.5437 
 163   0.0000      27.324730       743.5437 
 164   0.0000      27.650178       752.3996 
 165   0.0000      27.650178       752.3996 
 166   0.0000      27.889329       758.9072 
 167   0.0000      27.889329       758.9072 
 168   0.0000      28.223299       767.9950 
 169   0.0000      28.609686       778.5091 
 170   0.0000      31.491180       856.9186 
 171   0.0000      44.081043      1199.5061 
 172   0.0000      44.375586      1207.5211 
 173   0.0000      44.778726      1218.4911 
 174   0.0000     203.329651      5532.8811 
 175   0.0000     203.454367      5536.2748 
 176   0.0000     203.632659      5541.1264 

                    ********************************
                    * MULLIKEN POPULATION ANALYSIS *
                    ********************************

--------------------------------------------
MULLIKEN ATOMIC CHARGES AND SPIN POPULATIONS
--------------------------------------------
   0 Au:   -0.104077   -0.154054
   1 Au:    0.052036    0.577030
   2 Au:    0.052041    0.577024
Sum of atomic charges         :   -0.0000000
Sum of atomic spin populations:    1.0000000

-----------------------------------------------------
MULLIKEN REDUCED ORBITAL CHARGES AND SPIN POPULATIONS
-----------------------------------------------------
CHARGE
  0 Aus       :     3.101375  s :     3.101375
      pz      :     2.107234  p :     6.127810
      px      :     2.010288
      py      :     2.010288
      dz2     :     1.902378  d :     9.863238
      dxz     :     1.981068
      dyz     :     1.981068
      dx2y2   :     1.999363
      dxy     :     1.999363
      f0      :     0.004925  f :     0.011423
      f+1     :     0.002989
      f-1     :     0.002989
      f+2     :     0.000261
      f-2     :     0.000261
      f+3     :     0.000000
      f-3     :     0.000000
      g0      :     0.000098  g :     0.000230
      g+1     :     0.000057
      g-1     :     0.000057
      g+2     :     0.000009
      g-2     :     0.000009
      g+3     :     0.000000
      g-3     :     0.000000
      g+4     :     0.000000
      g-4     :     0.000000
  1 Aus       :     2.958907  s :     2.958907
      pz      :     2.030914  p :     6.046386
      px      :     2.007736
      py      :     2.007736
      dz2     :     1.949793  d :     9.936475
      dxz     :     1.993340
      dyz     :     1.993340
      dx2y2   :     2.000001
      dxy     :     2.000000
      f0      :     0.002339  f :     0.006087
      f+1     :     0.001694
      f-1     :     0.001694
      f+2     :     0.000179
      f-2     :     0.000179
      f+3     :     0.000000
      f-3     :     0.000000
      g0      :     0.000045  g :     0.000110
      g+1     :     0.000029
      g-1     :     0.000029
      g+2     :     0.000004
      g-2     :     0.000004
      g+3     :     0.000000
      g-3     :     0.000000
      g+4     :     0.000000
      g-4     :     0.000000
  2 Aus       :     2.958902  s :     2.958902
      pz      :     2.030914  p :     6.046385
      px      :     2.007736
      py      :     2.007736
      dz2     :     1.949792  d :     9.936474
      dxz     :     1.993340
      dyz     :     1.993340
      dx2y2   :     2.000001
      dxy     :     2.000000
      f0      :     0.002339  f :     0.006087
      f+1     :     0.001694
      f-1     :     0.001694
      f+2     :     0.000179
      f-2     :     0.000179
      f+3     :     0.000000
      f-3     :     0.000000
      g0      :     0.000045  g :     0.000110
      g+1     :     0.000029
      g-1     :     0.000029
      g+2     :     0.000004
      g-2     :     0.000004
      g+3     :     0.000000
      g-3     :     0.000000
      g+4     :     0.000000
      g-4     :     0.000000

SPIN
  0 Aus       :    -0.220160  s :    -0.220160
      pz      :     0.089489  p :     0.088667
      px      :    -0.000411
      py      :    -0.000411
      dz2     :    -0.015193  d :    -0.023160
      dxz     :    -0.003881
      dyz     :    -0.003881
      dx2y2   :    -0.000103
      dxy     :    -0.000103
      f0      :     0.000458  f :     0.000600
      f+1     :     0.000064
      f-1     :     0.000064
      f+2     :     0.000007
      f-2     :     0.000007
      f+3     :    -0.000000
      f-3     :    -0.000000
      g0      :     0.000001  g :     0.000001
      g+1     :     0.000000
      g-1     :     0.000000
      g+2     :    -0.000000
      g-2     :    -0.000000
      g+3     :    -0.000000
      g-3     :    -0.000000
      g+4     :     0.000000
      g-4     :    -0.000000
  1 Aus       :     0.588594  s :     0.588594
      pz      :    -0.006309  p :    -0.002837
      px      :     0.001736
      py      :     0.001736
      dz2     :    -0.009619  d :    -0.008903
      dxz     :     0.000315
      dyz     :     0.000315
      dx2y2   :     0.000043
      dxy     :     0.000043
      f0      :     0.000039  f :     0.000176
      f+1     :     0.000063
      f-1     :     0.000063
      f+2     :     0.000006
      f-2     :     0.000006
      f+3     :    -0.000000
      f-3     :    -0.000000
      g0      :    -0.000000  g :     0.000000
      g+1     :     0.000000
      g-1     :     0.000000
      g+2     :    -0.000000
      g-2     :    -0.000000
      g+3     :    -0.000000
      g-3     :    -0.000000
      g+4     :     0.000000
      g-4     :    -0.000000
  2 Aus       :     0.588589  s :     0.588589
      pz      :    -0.006309  p :    -0.002838
      px      :     0.001736
      py      :     0.001736
      dz2     :    -0.009619  d :    -0.008903
      dxz     :     0.000315
      dyz     :     0.000315
      dx2y2   :     0.000043
      dxy     :     0.000043
      f0      :     0.000039  f :     0.000176
      f+1     :     0.000063
      f-1     :     0.000063
      f+2     :     0.000006
      f-2     :     0.000006
      f+3     :    -0.000000
      f-3     :    -0.000000
      g0      :    -0.000000  g :     0.000000
      g+1     :     0.000000
      g-1     :     0.000000
      g+2     :    -0.000000
      g-2     :    -0.000000
      g+3     :    -0.000000
      g-3     :    -0.000000
      g+4     :     0.000000
      g-4     :     0.000000


                     *******************************
                     * LOEWDIN POPULATION ANALYSIS *
                     *******************************

-------------------------------------------
LOEWDIN ATOMIC CHARGES AND SPIN POPULATIONS
-------------------------------------------
   0 Au:   -0.200346    0.274468
   1 Au:    0.100173    0.362766
   2 Au:    0.100173    0.362766

----------------------------------------------------
LOEWDIN REDUCED ORBITAL CHARGES AND SPIN POPULATIONS
----------------------------------------------------
CHARGE
  0 Aus       :     2.831403  s :     2.831403
      pz      :     2.390386  p :     6.421051
      px      :     2.015332
      py      :     2.015332
      dz2     :     1.982849  d :     9.924202
      dxz     :     1.971393
      dyz     :     1.971393
      dx2y2   :     1.999283
      dxy     :     1.999283
      f0      :     0.012282  f :     0.023346
      f+1     :     0.005156
      f-1     :     0.005156
      f+2     :     0.000376
      f-2     :     0.000376
      f+3     :     0.000000
      f-3     :     0.000000
      g0      :     0.000154  g :     0.000344
      g+1     :     0.000085
      g-1     :     0.000085
      g+2     :     0.000010
      g-2     :     0.000010
      g+3     :     0.000000
      g-3     :     0.000000
      g+4     :     0.000000
      g-4     :     0.000000
  1 Aus       :     2.796431  s :     2.796431
      pz      :     2.108226  p :     6.133494
      px      :     2.012634
      py      :     2.012634
      dz2     :     1.981982  d :     9.958421
      dxz     :     1.988300
      dyz     :     1.988300
      dx2y2   :     1.999919
      dxy     :     1.999919
      f0      :     0.004751  f :     0.011313
      f+1     :     0.003039
      f-1     :     0.003039
      f+2     :     0.000242
      f-2     :     0.000242
      f+3     :     0.000000
      f-3     :     0.000000
      g0      :     0.000073  g :     0.000168
      g+1     :     0.000042
      g-1     :     0.000042
      g+2     :     0.000005
      g-2     :     0.000005
      g+3     :     0.000000
      g-3     :     0.000000
      g+4     :     0.000000
      g-4     :     0.000000
  2 Aus       :     2.796431  s :     2.796431
      pz      :     2.108226  p :     6.133494
      px      :     2.012634
      py      :     2.012634
      dz2     :     1.981982  d :     9.958421
      dxz     :     1.988300
      dyz     :     1.988300
      dx2y2   :     1.999919
      dxy     :     1.999919
      f0      :     0.004751  f :     0.011313
      f+1     :     0.003039
      f-1     :     0.003039
      f+2     :     0.000242
      f-2     :     0.000242
      f+3     :     0.000000
      f-3     :     0.000000
      g0      :     0.000073  g :     0.000168
      g+1     :     0.000042
      g-1     :     0.000042
      g+2     :     0.000005
      g-2     :     0.000005
      g+3     :     0.000000
      g-3     :     0.000000
      g+4     :     0.000000
      g-4     :     0.000000

SPIN
  0 Aus       :    -0.083810  s :    -0.083810
      pz      :     0.354874  p :     0.355112
      px      :     0.000119
      py      :     0.000119
      dz2     :     0.006310  d :     0.000838
      dxz     :    -0.002765
      dyz     :    -0.002765
      dx2y2   :     0.000029
      dxy     :     0.000029
      f0      :     0.001995  f :     0.002319
      f+1     :     0.000149
      f-1     :     0.000149
      f+2     :     0.000014
      f-2     :     0.000014
      f+3     :    -0.000000
      f-3     :    -0.000000
      g0      :     0.000005  g :     0.000008
      g+1     :     0.000002
      g-1     :     0.000002
      g+2     :    -0.000000
      g-2     :    -0.000000
      g+3     :    -0.000000
      g-3     :    -0.000000
      g+4     :     0.000000
      g-4     :    -0.000000
  1 Aus       :     0.399238  s :     0.399238
      pz      :    -0.027508  p :    -0.024425
      px      :     0.001542
      py      :     0.001542
      dz2     :    -0.011047  d :    -0.011749
      dxz     :    -0.000327
      dyz     :    -0.000327
      dx2y2   :    -0.000024
      dxy     :    -0.000024
      f0      :    -0.000366  f :    -0.000294
      f+1     :     0.000033
      f-1     :     0.000033
      f+2     :     0.000003
      f-2     :     0.000003
      f+3     :    -0.000000
      f-3     :    -0.000000
      g0      :    -0.000004  g :    -0.000004
      g+1     :    -0.000000
      g-1     :    -0.000000
      g+2     :    -0.000000
      g-2     :    -0.000000
      g+3     :    -0.000000
      g-3     :    -0.000000
      g+4     :     0.000000
      g-4     :    -0.000000
  2 Aus       :     0.399238  s :     0.399238
      pz      :    -0.027508  p :    -0.024425
      px      :     0.001542
      py      :     0.001542
      dz2     :    -0.011047  d :    -0.011749
      dxz     :    -0.000327
      dyz     :    -0.000327
      dx2y2   :    -0.000024
      dxy     :    -0.000024
      f0      :    -0.000366  f :    -0.000294
      f+1     :     0.000033
      f-1     :     0.000033
      f+2     :     0.000003
      f-2     :     0.000003
      f+3     :    -0.000000
      f-3     :    -0.000000
      g0      :    -0.000004  g :    -0.000004
      g+1     :    -0.000000
      g-1     :    -0.000000
      g+2     :    -0.000000
      g-2     :    -0.000000
      g+3     :    -0.000000
      g-3     :    -0.000000
      g+4     :     0.000000
      g-4     :     0.000000


                      *****************************
                      * MAYER POPULATION ANALYSIS *
                      *****************************

  NA   - Mulliken gross atomic population
  ZA   - Total nuclear charge
  QA   - Mulliken gross atomic charge
  VA   - Mayer's total valence
  BVA  - Mayer's bonded valence
  FA   - Mayer's free valence

  ATOM       NA         ZA         QA         VA         BVA        FA
  0 Au    19.1041    19.0000    -0.1041     1.3491     1.2885     0.0606
  1 Au    18.9480    19.0000     0.0520     1.1370     0.7855     0.3515
  2 Au    18.9480    19.0000     0.0520     1.1370     0.7855     0.3515

  Mayer bond orders larger than 0.100000
B(  0-Au,  1-Au) :   0.6443 B(  0-Au,  2-Au) :   0.6443 B(  1-Au,  2-Au) :   0.1412 


-------
TIMINGS
-------

Total SCF time: 0 days 0 hours 0 min 6 sec 

Total time                  ....       6.849 sec
Sum of individual times     ....       6.693 sec  ( 97.7%)

Fock matrix formation       ....       5.081 sec  ( 74.2%)
  XC integration            ....       0.683 sec  ( 13.4% of F)
    Basis function eval.    ....       0.056 sec  (  8.2% of XC)
    Density eval.           ....       0.065 sec  (  9.5% of XC)
    XC-Functional eval.     ....       0.025 sec  (  3.7% of XC)
    XC-Potential eval.      ....       0.123 sec  ( 18.0% of XC)
Diagonalization             ....       0.119 sec  (  1.7%)
Density matrix formation    ....       0.019 sec  (  0.3%)
Population analysis         ....       0.010 sec  (  0.1%)
Initial guess               ....       1.040 sec  ( 15.2%)
Orbital Transformation      ....       0.000 sec  (  0.0%)
Orbital Orthonormalization  ....       0.000 sec  (  0.0%)
DIIS solution               ....       0.039 sec  (  0.6%)
Grid generation             ....       0.384 sec  (  5.6%)


           ************************************************************
           *        Program running with 24 parallel MPI-processes    *
           *              working on a common directory               *
           ************************************************************

------------------------------------------------------------------------------
                                ORCA  MP2 
------------------------------------------------------------------------------

Freezing NCore=0 chemical core electrons

-------------
RI-MP2 ENERGY
-------------
Dimension of the basis                    ...  177
Memory devoted to MP2                     ... 5000 MB   
Data format for buffers                   ... DOUBLE
Compression type for matrix containers    ... UNCOMPRESSED
Scaling for aa/bb pairs                   ...   4.000e-01
Scaling for ab pairs                      ...   4.700e-01
Overall scaling of the MP2 energy         ...   1.000e+00
Calculating two index integrals           ... done (    0.008 sec)
Cholesky decomposition of V**-1           ... done (    0.016 sec)

-----------------
RI-TRANSFORMATION (AUX index driven)
-----------------

Dimension of the orbital-basis         ... 177
Dimension of the aux-basis             ... 579
Transformation of internal/external MOs...    0-  28 to   29- 176
Number Format for Storage              ... Double (8 Byte)
Integral mode                          ... Direct

First Phase: integral generation and transformation of MO indices
  Aux angular momentum 0               ... done (    0.002 sec)
  Aux angular momentum 1               ... done (    0.003 sec)
  Aux angular momentum 2               ... done (    0.002 sec)
  Aux angular momentum 3               ... done (    0.003 sec)
  Aux angular momentum 4               ... done (    0.005 sec)
  Aux angular momentum 5               ... done (    0.007 sec)
  Aux angular momentum 6               ... done (    0.010 sec)
Closing buffer VIA ( 0.02 GB; CompressionRatio= 1.00)
  Phase 1 completed in     0.102 sec
Second Phase: sorting and transformation of aux index

IA-Transformation
Memory available                       ... 4995 MB 
Max. # MO pairs treated in a batch     ... 2    
# of internal orbitals                 ... 29
# batches for internal orbitals        ... 1
Closing buffer IAV ( 0.00 GB; CompressionRatio= 1.00)
(ia|v) transformation done in     0.013 sec

  Phase 2 completed in     0.031 sec
RI-Integral transformation completed in     0.133 sec

-----------------
RI-TRANSFORMATION (AUX index driven)
-----------------

Dimension of the orbital-basis         ... 177
Dimension of the aux-basis             ... 579
Transformation of internal/external MOs...    0-  27 to   28- 176
Number Format for Storage              ... Double (8 Byte)
Integral mode                          ... Direct

First Phase: integral generation and transformation of MO indices
  Aux angular momentum 0               ... done (    0.002 sec)
  Aux angular momentum 1               ... done (    0.003 sec)
  Aux angular momentum 2               ... done (    0.002 sec)
  Aux angular momentum 3               ... done (    0.003 sec)
  Aux angular momentum 4               ... done (    0.004 sec)
  Aux angular momentum 5               ... done (    0.007 sec)
  Aux angular momentum 6               ... done (    0.010 sec)
Closing buffer VIA ( 0.02 GB; CompressionRatio= 1.00)
  Phase 1 completed in     0.100 sec
Second Phase: sorting and transformation of aux index

IA-Transformation
Memory available                       ... 4995 MB 
Max. # MO pairs treated in a batch     ... 2    
# of internal orbitals                 ... 28
# batches for internal orbitals        ... 1
Closing buffer IAV ( 0.00 GB; CompressionRatio= 1.00)
(ia|v) transformation done in     0.012 sec

  Phase 2 completed in     0.030 sec
RI-Integral transformation completed in     0.131 sec
Opening buffers                              ... done

Starting loop over batches of integrals:

Operator 0  - window                       ... (  0- 28)x( 29-176)
Operator 0  - Memory available             ...  5000 MB
Operator 0  - Memory needed per MO         ...   0.7 MB
Operator 0  - Number of orbitals per batch ... 2
Operator 0  - Number of batches            ... 1

OPERATOR  0   PASS   0:  MOs     0 ...    1 +    2 ...    3 +    4 ...    5 +    6 ...    7
                            +    8 ...    9 +   10 ...   11 +   12 ...   13 +   14 ...   15
                            +   16 ...   17 +   18 ...   19 +   20 ...   21 +   22 ...   23
                            +   24 ...   25 +   26 ...   27 +   28 ...   28
  Reading integrals       ... ok

Operator 1  - window                       ... (  0- 27)x( 28-176)
Operator 1  - Memory available             ...  5000 MB
Operator 1  - Memory needed per MO         ...   0.7 MB
Operator 1  - Number of orbitals per batch ... 2
Operator 1  - Number of batches            ... 1

OPERATOR  1   PASS   0:  MOs     0 ...    1 +    2 ...    3 +    4 ...    5 +    6 ...    7
                            +    8 ...    9 +   10 ...   11 +   12 ...   13 +   14 ...   15
                            +   16 ...   17 +   18 ...   19 +   20 ...   21 +   22 ...   23
                            +   24 ...   25 +   26 ...   27
  Reading integrals       ... ok
Time spent in pair loops =     0.106 sec

Spin-scaled correlation energy components}
 E2 and T2 for alpha/alpha pairs :     -0.144537648 Eh      0.000000000
 E2 and T2 for beta/beta   pairs :     -0.133854419 Eh      0.000000000
 E2 and T2 for alpha/beta  pairs :     -0.631789343 Eh      0.000000000


-----------------------------------------------
 RI-MP2 CORRELATION ENERGY:     -0.910181410 Eh
-----------------------------------------------


-------
TIMINGS
-------

Total time                :    0.459 sec
Integral trafo            :    0.295 sec ( 64.4%)
I/O of integrals          :    0.001 sec (  0.3%)
K(i,j) Operators          :    0.054 sec ( 11.7%)
T(i,j) pair energies      :    0.004 sec (  0.9%)
V-calculation             :    0.008 sec (  1.8%)
V**(-1/2)                 :    0.016 sec (  3.4%)
Gamma(ia|P)               :    0.000 sec (  0.0%)
Gamma-Trafo               :    0.000 sec (  0.0%)
D(virtual)                :    0.000 sec (  0.0%)
D(internal)               :    0.000 sec (  0.0%)
W(virtual)                :    0.000 sec (  0.0%)
W(internal)               :    0.000 sec (  0.0%)
L(virtual)                :    0.000 sec (  0.0%)
L(internal)               :    0.000 sec (  0.0%)
G(D)                      :    0.000 sec (  0.0%)
G(Z)                      :    0.000 sec (  0.0%)
Z-Vector Solution         :    0.000 sec (  0.0%)
Z-Vector Solution         :    0.000 sec (  0.0%)
3-Index Derivative 
+ Separable RIJ part      :    0.000 sec (  0.0%)
2-Index Derivative 
+ Separable RIJ part      :    0.000 sec (  0.0%)
Separable Gradient (X)    :    0.000 sec (  0.0%)


---------------------------------------
MP2 TOTAL ENERGY:     -406.624990598 Eh
---------------------------------------


-------------------------------------------------------------------------------
                          DFT DISPERSION CORRECTION                            
                                                                               
                              DFTD3 V3.1  Rev 1                                
                          USING Becke-Johnson damping                          
-------------------------------------------------------------------------------
The DSD-BLYP/2013 functional is recognized
Active option DFTDOPT                   ...         4   

molecular C6(AA) [au] = 2858.189807 


            DFT-D V3
 parameters
 s6 scaling factor         :     0.5700 
 a1 scaling factor         :     0.0000 
 s8 scaling factor         :     0.0000 
 a2 scaling factor         :     5.4000 
 ad hoc parameters k1-k3   :    16.0000     1.3333    -4.0000 

 Edisp/kcal,au: -6.236896508520  -0.009939126182 
 E6   /kcal   :  -6.236896509 
 E8   /kcal   :  -0.000000000 
 % E8         :   0.000000000 

-------------------------   ----------------
Dispersion correction           -0.009939126
-------------------------   ----------------


-------------------------   --------------------
FINAL SINGLE POINT ENERGY      -406.634929724374
-------------------------   --------------------


                            ***************************************
                            *     ORCA property calculations      *
                            ***************************************


  WARNING: The energy has been calculated at the MP2 level but the densities
           used in the property calculations are still SCF densities
           MP2 response densities have not been calculated 
           use %mp2 Density relaxed end
           or  %mp2 Density unrelaxed end

                                    ---------------------
                                    Active property flags
                                    ---------------------
   (+) Dipole Moment


------------------------------------------------------------------------------
                       ORCA ELECTRIC PROPERTIES CALCULATION
------------------------------------------------------------------------------

Dipole Moment Calculation                       ... on
Quadrupole Moment Calculation                   ... off
Polarizability Calculation                      ... off
GBWName                                         ... Au03N0_LIN.gbw
Electron density file                           ... Au03N0_LIN.scfp
The origin for moment calculation is the CENTER OF MASS  = ( 0.000000,  0.000000  0.000000)

-------------
DIPOLE MOMENT
-------------
                                X             Y             Z
Electronic contribution:     -0.00000      -0.00000       0.00000
Nuclear contribution   :      0.00000       0.00000       0.00000
                        -----------------------------------------
Total Dipole Moment    :     -0.00000      -0.00000       0.00000
                        -----------------------------------------
Magnitude (a.u.)       :      0.00000
Magnitude (Debye)      :      0.00000



--------------------
Rotational spectrum 
--------------------
 
Rotational constants in cm-1:     0.000000     0.006594     0.006594 
Rotational constants in MHz :     0.000000   197.695224   197.695224 

 Dipole components along the rotational axes: 
x,y,z [a.u.] :     0.000000    -0.000000    -0.000000 
x,y,z [Debye]:     0.000000    -0.000000    -0.000000 

 

Timings for individual modules:

Sum of individual times         ...        9.171 sec (=   0.153 min)
GTO integral calculation        ...        1.011 sec (=   0.017 min)  11.0 %
SCF iterations                  ...        7.190 sec (=   0.120 min)  78.4 %
MP2 module                      ...        0.971 sec (=   0.016 min)  10.6 %
                             ****ORCA TERMINATED NORMALLY****
TOTAL RUN TIME: 0 days 0 hours 0 minutes 9 seconds 668 msec
