
                                 *****************
                                 * O   R   C   A *
                                 *****************

           --- An Ab Initio, DFT and Semiempirical electronic structure package ---

                  #######################################################
                  #                        -***-                        #
                  #          Department of theory and spectroscopy      #
                  #               Directorship: Frank Neese             #
                  #        Max Planck Institute fuer Kohlenforschung    #
                  #                Kaiser Wilhelm Platz 1               #
                  #                 D-45470 Muelheim/Ruhr               #
                  #                      Germany                        #
                  #                                                     #
                  #                  All rights reserved                #
                  #                        -***-                        #
                  #######################################################


                         Program Version 4.2.0 -  RELEASE  -


 With contributions from (in alphabetic order):
   Daniel Aravena         : Magnetic Suceptibility
   Michael Atanasov       : Ab Initio Ligand Field Theory (pilot matlab implementation)
   Alexander A. Auer      : GIAO ZORA, VPT2
   Ute Becker             : Parallelization
   Giovanni Bistoni       : ED, misc. LED, open-shell LED, HFLED
   Martin Brehm           : Molecular dynamics
   Dmytro Bykov           : SCF Hessian
   Vijay G. Chilkuri      : MRCI spin determinant printing, contributions to CSF-ICE
   Dipayan Datta          : RHF DLPNO-CCSD density
   Achintya Kumar Dutta   : EOM-CC, STEOM-CC
   Dmitry Ganyushin       : Spin-Orbit,Spin-Spin,Magnetic field MRCI
   Miquel Garcia          : C-PCM Hessian, Gaussian charge scheme
   Yang Guo               : DLPNO-NEVPT2, CIM, IAO-localization
   Andreas Hansen         : Spin unrestricted coupled pair/coupled cluster methods
   Benjamin Helmich-Paris : CASSCF linear response (MC-RPA)
   Lee Huntington         : MR-EOM, pCC
   Robert Izsak           : Overlap fitted RIJCOSX, COSX-SCS-MP3, EOM
   Christian Kollmar      : KDIIS, OOCD, Brueckner-CCSD(T), CCSD density
   Simone Kossmann        : Meta GGA functionals, TD-DFT gradient, OOMP2, MP2 Hessian
   Martin Krupicka        : AUTO-CI
   Lucas Lang             : DCDCAS
   Dagmar Lenk            : GEPOL surface, SMD
   Dimitrios Liakos       : Extrapolation schemes; Compound Job, initial MDCI parallelization
   Dimitrios Manganas     : Further ROCIS development; embedding schemes
   Dimitrios Pantazis     : SARC Basis sets
   Taras Petrenko         : DFT Hessian,TD-DFT gradient, ASA, ECA, R-Raman, ABS, FL, XAS/XES, NRVS
   Peter Pinski           : DLPNO-MP2, DLPNO-MP2 Gradient
   Christoph Reimann      : Effective Core Potentials
   Marius Retegan         : Local ZFS, SOC
   Christoph Riplinger    : Optimizer, TS searches, QM/MM, DLPNO-CCSD(T), (RO)-DLPNO pert. Triples
   Tobias Risthaus        : Range-separated hybrids, TD-DFT gradient, RPA, STAB
   Michael Roemelt        : Original ROCIS implementation
   Masaaki Saitow         : Open-shell DLPNO-CCSD energy and density
   Barbara Sandhoefer     : DKH picture change effects
   Avijit Sen             : IP-ROCIS
   Kantharuban Sivalingam : CASSCF convergence, NEVPT2, FIC-MRCI
   Bernardo de Souza      : ESD, SOC TD-DFT
   Georgi Stoychev        : AutoAux, RI-MP2 NMR
   Willem Van den Heuvel  : Paramagnetic NMR
   Boris Wezisla          : Elementary symmetry handling
   Frank Wennmohs         : Technical directorship


 We gratefully acknowledge several colleagues who have allowed us to
 interface, adapt or use parts of their codes:
   Stefan Grimme, W. Hujo, H. Kruse,             : VdW corrections, initial TS optimization,
                  C. Bannwarth                     DFT functionals, gCP, sTDA/sTD-DF
   Ed Valeev, F. Pavosevic, A. Kumar             : LibInt (2-el integral package), F12 methods
   Garnet Chan, S. Sharma, J. Yang, R. Olivares  : DMRG
   Ulf Ekstrom                                   : XCFun DFT Library
   Mihaly Kallay                                 : mrcc  (arbitrary order and MRCC methods)
   Andreas Klamt, Michael Diedenhofen            : otool_cosmo (COSMO solvation model)
   Jiri Pittner, Ondrej Demel                    : Mk-CCSD
   Frank Weinhold                                : gennbo (NPA and NBO analysis)
   Christopher J. Cramer and Donald G. Truhlar   : smd solvation model
   Lars Goerigk                                  : TD-DFT with DH, B97 family of functionals
   V. Asgeirsson, H. Jonsson                     : NEB implementation
   FAccTs GmbH                                   : IRC, NEB, NEB-TS, Multilevel, MM, QM/MM, CI optimization
   S Lehtola, MJT Oliveira, MAL Marques          : LibXC Library


 Your calculation uses the libint2 library for the computation of 2-el integrals
 For citations please refer to: http://libint.valeyev.net

 Your ORCA version has been built with support for libXC version: 4.2.3
 For citations please refer to: https://tddft.org/programs/libxc/

 This ORCA versions uses:
   CBLAS   interface :  Fast vector & matrix operations
   LAPACKE interface :  Fast linear algebra routines
   SCALAPACK package :  Parallel linear algebra routines


Your calculation utilizes the atom-pairwise dispersion correction
with the Becke-Johnson damping scheme (D3BJ)
Cite in your paper:
S.Grimme, S.Ehrlich, L.Goerigk, J Comput Chem, (2011), 32, 1456–1465 
S.Grimme, J.Antony, S.Ehrlich and H.Krieg, J.Chem.Phys., 132, (2010), 154104 
   

----- Orbital basis set information -----
Your calculation utilizes the basis: def2-TZVPPD
   F. Weigend and R. Ahlrichs, Phys. Chem. Chem. Phys. 7, 3297 (2005).
   D. Rappoport and F. Furche, J. Chem. Phys. 133 134105 (2010).

----- AuxC basis set information -----
Your calculation utilizes the auxiliary basis: def2-TZVPPD/C
   A. Hellweg, C. Hattig, S. Hofener and W. Klopper, Theor. Chem. Acc. 117, 587 (2007).

----- AuxJK basis set information -----
Your calculation utilizes the auxiliary basis: def2/JK
   H-Ba, Hf-Rn: F. Weigend, J. Comput. Chem. 29, 167 (2008).

cite the ECPs for Au [Def2-ECP] as follows:
Ce-Yb(ecp-28): M. Dolg, H. Stoll, H.Preuss, J. Chem. Phys., 1989, 90, 1730-1734.
Y-Cd(ecp-28), Hf-Hg(ecp-46): D. Andrae,U. Haeussermann, M. Dolg, H. Stoll, H. Preuss, Theor. Chim. Acta, 1990, 77, 123-141.
In-Sb(ecp-28), Tl-Bi(ecp-46): B. Metz, H. Stoll, M. Dolg, J. Chem. Phys., 2000, 113, 2563-2569.
Te-Xe(ecp-28), Po-Rn(ecp-46): K. A. Peterson, D. Figgen, E. Goll, H. Stoll, M. Dolg, J. Chem. Phys., 2003, 119, 11113-11123.
Rb(ecp-28), Cs(ecp-46): T. Leininger, A. Nicklass, W. Kuechle, H. Stoll, M. Dolg, A. Bergner, Chem. Phys. Lett., 1996, 255, 274-280.
Sr(ecp-28), Ba(ecp-46): M. Kaupp, P. V. Schleyer, H. Stoll and H. Preuss, J. Chem. Phys., 1991, 94, 1360-1366.
La(ecp-46): M. Dolg, H. Stoll, A. Savin, H. Preuss, Theor. Chim. Acta, 1989, 75, 173-194.
Lu(ecp-28): X. Cao, M. Dolg, J. Chem. Phys., 2001, 115, 7348-7355.

ECP parameters for Au [Def2-ECP] have been obtained from:
TURBOMOLE (7.0.2)

================================================================================
                                        WARNINGS
                       Please study these warnings very carefully!
================================================================================


WARNING: your system is open-shell and RHF/RKS was chosen
  ===> : WILL SWITCH to UHF/UKS


WARNING: No MP2 level density has been requested!
         To caclulate MP2 level properties use
         %mp2 Density relaxed end
         or
         %mp2 Density unrelaxed end
         Otherwise for double-hybrid DFT only the energy is correct!

WARNING: There are different parametrizations of Gershom Martin's DSD-DFs
         for use with and without D3(BJ)!
         You are using the D3(BJ) parametrized version,
         consistent with the 2013 article (S. Kozuch and J. M. L. Martin, JCC 2013, 34, 2327)

WARNING: The frozen-core approximation is turned on by default for 
         the MP2 part of double-hybrid DFT.

INFO   : the flag for use of LIBINT has been found!

================================================================================
                                       INPUT FILE
================================================================================
NAME = Au03N0_D3H.in
|  1> #
|  2> # Au03N0_D3H ri-DSD-BLYP/2013-D3BJ/Def2-TZVPPD
|  3> #
|  4> ! rijk ri-dsd-blyp/2013 d3bj def2-tzvppd def2/jk def2-tzvppd/c grid4 nofinalgrid
|  5> 
|  6> *xyz 0 2
|  7> Au       0.000000    1.515176   -0.000000 
|  8> Au       1.312181   -0.757588    0.000000 
|  9> Au      -1.312181   -0.757588   -0.000000 
| 10> *
| 11> 
| 12> %maxcore 5000
| 13> 
| 14> %pal
| 15> nprocs = 24
| 16> end
| 17> 
| 18> 
| 19>                          ****END OF INPUT****
================================================================================

                       ****************************
                       * Single Point Calculation *
                       ****************************

---------------------------------
CARTESIAN COORDINATES (ANGSTROEM)
---------------------------------
  Au     0.000000    1.515176   -0.000000
  Au     1.312181   -0.757588    0.000000
  Au    -1.312181   -0.757588   -0.000000

----------------------------
CARTESIAN COORDINATES (A.U.)
----------------------------
  NO LB      ZA    FRAG     MASS         X           Y           Z
   0 Au   19.0000*   0   196.966    0.000000    2.863268   -0.000000
   1 Au   19.0000*   0   196.966    2.479663   -1.431634    0.000000
   2 Au   19.0000*   0   196.966   -2.479663   -1.431634   -0.000000
* core charge reduced due to ECP

--------------------------------
INTERNAL COORDINATES (ANGSTROEM)
--------------------------------
 Au     0   0   0     0.000000000000     0.00000000     0.00000000
 Au     1   0   0     2.624361860807     0.00000000     0.00000000
 Au     1   2   0     2.624361860807    60.00000351     0.00000000

---------------------------
INTERNAL COORDINATES (A.U.)
---------------------------
 Au     0   0   0     0.000000000000     0.00000000     0.00000000
 Au     1   0   0     4.959325193233     0.00000000     0.00000000
 Au     1   2   0     4.959325193233    60.00000351     0.00000000

---------------------
BASIS SET INFORMATION
---------------------
There are 1 groups of distinct atoms

 Group   1 Type Au  : 8s8p6d2f1g contracted to 6s5p3d2f1g pattern {311111/41111/411/11/1}

Atom   0Au   basis set group =>   1
Atom   1Au   basis set group =>   1
Atom   2Au   basis set group =>   1
---------------------------------
AUXILIARY/C BASIS SET INFORMATION
---------------------------------
There are 1 groups of distinct atoms

 Group   1 Type Au  : 9s9p8d5f4g3h1i contracted to 9s9p8d5f4g3h1i pattern {111111111/111111111/11111111/11111/1111/111/1}

Atom   0Au   basis set group =>   1
Atom   1Au   basis set group =>   1
Atom   2Au   basis set group =>   1
----------------------------------
AUXILIARY/JK BASIS SET INFORMATION
----------------------------------
There are 1 groups of distinct atoms

 Group   1 Type Au  : 13s12p11d9f5g3h2i contracted to 13s11p10d8f4g3h2i pattern {1111111111111/21111111111/2111111111/21111111/2111/111/11}

Atom   0Au   basis set group =>   1
Atom   1Au   basis set group =>   1
Atom   2Au   basis set group =>   1
-------------------------
ECP PARAMETER INFORMATION
-------------------------

 Group 1, Type Au ECP Def2-ECP (replacing 60 core electrons, lmax=3)

Atom   0Au   ECP group =>   1
Atom   1Au   ECP group =>   1
Atom   2Au   ECP group =>   1



           ************************************************************
           *        Program running with 24 parallel MPI-processes    *
           *              working on a common directory               *
           ************************************************************
------------------------------------------------------------------------------
                           ORCA GTO INTEGRAL CALCULATION
                           -- RI-GTO INTEGRALS CHOSEN --
------------------------------------------------------------------------------

                         BASIS SET STATISTICS AND STARTUP INFO

Gaussian basis set:
 # of primitive gaussian shells          ...   75
 # of primitive gaussian functions       ...  255
 # of contracted shells                  ...   51
 # of contracted basis functions         ...  177
 Highest angular momentum                ...    4
 Maximum contraction depth               ...    4
Auxiliary gaussian basis set:
 # of primitive gaussian shells          ...  165
 # of primitive gaussian functions       ...  813
 # of contracted shells                  ...  153
 # of contracted aux-basis functions     ...  741
 Highest angular momentum                ...    6
 Maximum contraction depth               ...    2
Ratio of auxiliary to basis functions    ...  4.19
Integral package used                  ... LIBINT
 One Electron integrals                  
   ECP integrals                         ... done
 Ordering auxiliary basis shells         ... done
 Integral threshhold             Thresh  ...  1.000e-10
 Primitive cut-off               TCut    ...  1.000e-11
 Pre-screening matrix                    ... done
 Shell pair data                         ... 
 Ordering of the shell pairs             ... done (   0.000 sec) 1296 of 1326 pairs
 Determination of significant pairs      ... done (   0.000 sec)
 Creation of shell pair data             ... done (   0.000 sec)
 Storage of shell pair data              ... done (   0.004 sec)
 Shell pair data done in (   0.005 sec)
 Computing two index integrals           ... done
 Cholesky decomposition of the V-matrix  ... done


Timings:
 Total evaluation time                   ...   0.716 sec (  0.012 min)
 One electron matrix time                ...   0.404 sec (  0.007 min) = 56.3%
 Schwartz matrix evaluation time         ...   0.135 sec (  0.002 min) = 18.9%
 Two index repulsion integral time       ...   0.135 sec (  0.002 min) = 18.9%
 Cholesky decomposition of V             ...   0.008 sec (  0.000 min) =  1.2%
 Three index repulsion integral time     ...   0.000 sec (  0.000 min) =  0.0%



           ************************************************************
           *        Program running with 24 parallel MPI-processes    *
           *              working on a common directory               *
           ************************************************************
-------------------------------------------------------------------------------
                                 ORCA SCF
-------------------------------------------------------------------------------

------------
SCF SETTINGS
------------
Hamiltonian:
 Density Functional     Method          .... DFT(GTOs)
 Exchange Functional    Exchange        .... B88
   X-Alpha parameter    XAlpha          ....  0.666667
   Becke's b parameter  XBeta           ....  0.004200
 Correlation Functional Correlation     .... LYP
 LDA part of GGA corr.  LDAOpt          .... VWN-5
 Gradients option       PostSCFGGA      .... off
 Hybrid DFT is turned on
   Fraction HF Exchange ScalHFX         ....  0.710000
   Scaling of DF-GGA-X  ScalDFX         ....  0.290000
   Scaling of DF-GGA-C  ScalDFC         ....  0.540000
   Scaling of DF-LDA-C  ScalLDAC        ....  0.540000
   Perturbative correction              ....  1.000000
   Density functional embedding theory  .... OFF
 RI-approximation to the Coulomb term is turned on
   Number of auxiliary basis functions  .... 741
   RI-JK (J+K treated both via RI)      .... on


General Settings:
 Integral files         IntName         .... Au03N0_D3H
 Hartree-Fock type      HFTyp           .... UHF
 Total Charge           Charge          ....    0
 Multiplicity           Mult            ....    2
 Number of Electrons    NEL             ....   57
 Basis Dimension        Dim             ....  177
 Nuclear Repulsion      ENuc            ....    218.3764803991 Eh

Convergence Acceleration:
 DIIS                   CNVDIIS         .... on
   Start iteration      DIISMaxIt       ....    12
   Startup error        DIISStart       ....  0.200000
   # of expansion vecs  DIISMaxEq       ....     5
   Bias factor          DIISBfac        ....   1.050
   Max. coefficient     DIISMaxC        ....  10.000
 Newton-Raphson         CNVNR           .... off
 SOSCF                  CNVSOSCF        .... off
 Level Shifting         CNVShift        .... on
   Level shift para.    LevelShift      ....    0.2500
   Turn off err/grad.   ShiftErr        ....    0.0010
 Zerner damping         CNVZerner       .... off
 Static damping         CNVDamp         .... on
   Fraction old density DampFac         ....    0.7000
   Max. Damping (<1)    DampMax         ....    0.9800
   Min. Damping (>=0)   DampMin         ....    0.0000
   Turn off err/grad.   DampErr         ....    0.1000
 Fernandez-Rico         CNVRico         .... off

SCF Procedure:
 Maximum # iterations   MaxIter         ....   125
 SCF integral mode      SCFMode         .... Direct
   Integral package                     .... LIBINT
 Reset frequency        DirectResetFreq ....    20
 Integral Threshold     Thresh          ....  1.000e-10 Eh
 Primitive CutOff       TCut            ....  1.000e-11 Eh

Convergence Tolerance:
 Convergence Check Mode ConvCheckMode   .... Total+1el-Energy
 Convergence forced     ConvForced      .... 0
 Energy Change          TolE            ....  1.000e-06 Eh
 1-El. energy change                    ....  1.000e-03 Eh
 DIIS Error             TolErr          ....  1.000e-06


Diagonalization of the overlap matrix:
Smallest eigenvalue                        ... 1.685e-03
Time for diagonalization                   ...    0.007 sec
Threshold for overlap eigenvalues          ... 1.000e-08
Number of eigenvalues below threshold      ... 0
Time for construction of square roots      ...    0.003 sec
Total time needed                          ...    0.010 sec

-------------------
DFT GRID GENERATION
-------------------

General Integration Accuracy     IntAcc      ...  4.670
Radial Grid Type                 RadialGrid  ... Gauss-Chebyshev
Angular Grid (max. acc.)         AngularGrid ... Lebedev-302
Angular grid pruning method      GridPruning ... 3 (G Style)
Weight generation scheme         WeightScheme... Becke
Basis function cutoff            BFCut       ...    1.0000e-10
Integration weight cutoff        WCut        ...    1.0000e-14
Grids for H and He will be reduced by one unit

# of grid points (after initial pruning)     ...  34956 (   0.0 sec)
# of grid points (after weights+screening)   ...  34814 (   0.0 sec)
nearest neighbour list constructed           ...    0.0 sec
Grid point re-assignment to atoms done       ...    0.0 sec
Grid point division into batches done        ...    0.3 sec
Reduced shell lists constructed in    0.3 sec

Total number of grid points                  ...    34814
Total number of batches                      ...      545
Average number of points per batch           ...       63
Average number of grid points per atom       ...    11605
Average number of shells per batch           ...     4.38 ( 8.58%)
Average number of basis functions per batch  ...    11.12 ( 6.29%)
Average number of large shells per batch     ...     2.54 (58.10%)
Average number of large basis fcns per batch ...     6.04 (54.31%)
Average number of aux-shells per batch       ...     4.38 ( 2.86%)
Average number of aux functions per batch    ...    11.12 ( 1.50%)
Maximum spatial batch extension              ...  27.54, 22.91, 24.85 au
Average spatial batch extension              ...   0.73,  0.63,  0.66 au

Time for grid setup =    0.391 sec

------------------------------
INITIAL GUESS: MODEL POTENTIAL
------------------------------
Loading Hartree-Fock densities                     ... done
  calling /sw/apps/orca/orca_4_2_0_linux_x86-64_openmpi314/orca Au03N0_D3H_atom79.inp > Au03N0_D3H_atom79.out in order to generate an atomic fitting density for atom 0 (Au with ECP) on-the-fly... 
    atom 0 (Au), assumed electronic state with S=2: 1s2 2s2 2p6 3s2 3p6 4s2 3d10 4p6 5s2 4d10 5p6 6s1 4f14 5d10           ... done
Calculating cut-offs                               ... done
Setting up the integral package                    ... done
Initializing the effective Hamiltonian             ... done
Starting the Coulomb interaction                   ... done (   0.0 sec)
Reading the grid                                   ... done
Mapping shells                                     ... done
Starting the XC term evaluation                    ... done (   0.0 sec)
  promolecular density results
     # of electrons  =    237.007571856
     EX              =  -1102.075473749
     EC              =     -1.453342288
     EX+EC           =  -1103.528816037
Transforming the Hamiltonian                       ... done (   0.0 sec)
Diagonalizing the Hamiltonian                      ... done (   0.0 sec)
Back transforming the eigenvectors                 ... done (   0.0 sec)
Now organizing SCF variables                       ... done
                      ------------------
                      INITIAL GUESS DONE (   1.5 sec)
                      ------------------
--------------
SCF ITERATIONS
--------------
ITER       Energy         Delta-E        Max-DP      RMS-DP      [F,P]     Damp
  0   -405.3672787056   0.000000000000 0.14813671  0.00182990  0.5515977 0.7000
  1   -405.2653264658   0.101952239828 0.11920281  0.00153628  0.4037412 0.7000
  2   -405.3841941691  -0.118867703327 0.07895536  0.00104845  0.2780711 0.7000
                               ***Turning on DIIS***
  3   -405.5473515601  -0.163157390976 0.05115243  0.00070538  0.1914779 0.7000
  4   -405.6563266362  -0.108975076114 0.03447799  0.00051277  0.1328653 0.7000
  5   -405.7171596540  -0.060833017815 0.09325229  0.00137483  0.0933940 0.0000
  6   -405.7054492676   0.011710386446 0.01229589  0.00017764  0.0217114 0.0000
  7   -405.7092037804  -0.003754512834 0.00481680  0.00009281  0.0079724 0.0000
  8   -405.7098031994  -0.000599418967 0.00408976  0.00005336  0.0030662 0.0000
  9   -405.7099419469  -0.000138747532 0.00208962  0.00002564  0.0015322 0.0000
 10   -405.7099664929  -0.000024546002 0.00142945  0.00002430  0.0004275 0.0000
 11   -405.7099779523  -0.000011459397 0.00047852  0.00001249  0.0002593 0.0000
 12   -405.7099821738  -0.000004221500 0.00027573  0.00000688  0.0001011 0.0000
 13   -405.7099839354  -0.000001761600 0.00027562  0.00000625  0.0000405 0.0000
 14   -405.7099851960  -0.000001260544 0.00043770  0.00000932  0.0000346 0.0000
 15   -405.7099864220  -0.000001226034 0.00025189  0.00000514  0.0000182 0.0000
                 **** Energy Check signals convergence ****

               *****************************************************
               *                     SUCCESS                       *
               *           SCF CONVERGED AFTER  16 CYCLES          *
               *****************************************************


----------------
TOTAL SCF ENERGY
----------------

Total Energy       :         -405.70998676 Eh          -11039.93000 eV

Components:
Nuclear Repulsion  :          218.37648040 Eh            5942.32613 eV
Electronic Energy  :         -624.08646716 Eh          -16982.25613 eV
One Electron Energy:        -1152.94185790 Eh          -31373.14293 eV
Two Electron Energy:          528.85539074 Eh           14390.88680 eV

Virial components:
Potential Energy   :         -543.75062764 Eh          -14796.20680 eV
Kinetic Energy     :          138.04064088 Eh            3756.27680 eV
Virial Ratio       :            3.93906189


DFT components:
N(Alpha)           :       28.999993352469 electrons
N(Beta)            :       27.999992909627 electrons
N(Total)           :       56.999986262096 electrons
E(X)               :      -10.592178661653 Eh       
E(C)               :       -1.120216268847 Eh       
E(XC)              :      -11.712394930500 Eh       
DFET-embed. en.    :        0.000000000000 Eh       

---------------
SCF CONVERGENCE
---------------

  Last Energy change         ...   -3.4097e-07  Tolerance :   1.0000e-06
  Last MAX-Density change    ...    1.8697e-04  Tolerance :   1.0000e-05
  Last RMS-Density change    ...    3.6965e-06  Tolerance :   1.0000e-06
  Last DIIS Error            ...    1.0153e-05  Tolerance :   1.0000e-06

             **** THE GBW FILE WAS UPDATED (Au03N0_D3H.gbw) ****
             **** DENSITY FILE WAS UPDATED (Au03N0_D3H.scfp) ****
             **** ENERGY FILE WAS UPDATED (Au03N0_D3H.en.tmp) ****
----------------------
UHF SPIN CONTAMINATION
----------------------

Warning: in a DFT calculation there is little theoretical justification to 
         calculate <S**2> as in Hartree-Fock theory. We will do it anyways
         but you should keep in mind that the values have only limited relevance

Expectation value of <S**2>     :     0.789172
Ideal value S*(S+1) for S=0.5   :     0.750000
Deviation                       :     0.039172

             **** THE GBW FILE WAS UPDATED (Au03N0_D3H.gbw) ****
             **** DENSITY FILE WAS UPDATED (Au03N0_D3H.scfp) ****
----------------
ORBITAL ENERGIES
----------------
                 SPIN UP ORBITALS
  NO   OCC          E(Eh)            E(eV) 
   0   1.0000      -4.514042      -122.8333 
   1   1.0000      -4.513598      -122.8212 
   2   1.0000      -4.492033      -122.2344 
   3   1.0000      -2.609271       -71.0019 
   4   1.0000      -2.602089       -70.8065 
   5   1.0000      -2.601333       -70.7859 
   6   1.0000      -2.598285       -70.7029 
   7   1.0000      -2.597520       -70.6821 
   8   1.0000      -2.597453       -70.6803 
   9   1.0000      -2.579578       -70.1939 
  10   1.0000      -2.576248       -70.1033 
  11   1.0000      -2.572674       -70.0060 
  12   1.0000      -0.498365       -13.5612 
  13   1.0000      -0.469089       -12.7646 
  14   1.0000      -0.461135       -12.5481 
  15   1.0000      -0.459519       -12.5041 
  16   1.0000      -0.435678       -11.8554 
  17   1.0000      -0.432338       -11.7645 
  18   1.0000      -0.425317       -11.5735 
  19   1.0000      -0.400253       -10.8914 
  20   1.0000      -0.393184       -10.6991 
  21   1.0000      -0.390983       -10.6392 
  22   1.0000      -0.384191       -10.4544 
  23   1.0000      -0.380120       -10.3436 
  24   1.0000      -0.378299       -10.2940 
  25   1.0000      -0.376864       -10.2550 
  26   1.0000      -0.348332        -9.4786 
  27   1.0000      -0.340923        -9.2770 
  28   1.0000      -0.200957        -5.4683 
  29   0.0000      -0.073983        -2.0132 
  30   0.0000       0.005651         0.1538 
  31   0.0000       0.022704         0.6178 
  32   0.0000       0.043133         1.1737 
  33   0.0000       0.044781         1.2185 
  34   0.0000       0.081112         2.2072 
  35   0.0000       0.083150         2.2626 
  36   0.0000       0.103079         2.8049 
  37   0.0000       0.105112         2.8602 
  38   0.0000       0.133366         3.6291 
  39   0.0000       0.213527         5.8104 
  40   0.0000       0.225187         6.1277 
  41   0.0000       0.230989         6.2855 
  42   0.0000       0.242372         6.5953 
  43   0.0000       0.245234         6.6732 
  44   0.0000       0.288354         7.8465 
  45   0.0000       0.292287         7.9535 
  46   0.0000       0.294197         8.0055 
  47   0.0000       0.299274         8.1437 
  48   0.0000       0.363533         9.8922 
  49   0.0000       0.373842        10.1728 
  50   0.0000       0.382113        10.3978 
  51   0.0000       0.389172        10.5899 
  52   0.0000       0.400982        10.9113 
  53   0.0000       0.405860        11.0440 
  54   0.0000       0.418207        11.3800 
  55   0.0000       0.456797        12.4301 
  56   0.0000       0.460951        12.5431 
  57   0.0000       0.486032        13.2256 
  58   0.0000       0.523659        14.2495 
  59   0.0000       0.533174        14.5084 
  60   0.0000       0.541519        14.7355 
  61   0.0000       0.545394        14.8409 
  62   0.0000       0.560626        15.2554 
  63   0.0000       0.644088        17.5265 
  64   0.0000       0.651329        17.7236 
  65   0.0000       0.652476        17.7548 
  66   0.0000       0.954237        25.9661 
  67   0.0000       1.049814        28.5669 
  68   0.0000       1.053162        28.6580 
  69   0.0000       1.059976        28.8434 
  70   0.0000       1.071607        29.1599 
  71   0.0000       1.146258        31.1913 
  72   0.0000       1.152711        31.3669 
  73   0.0000       1.212034        32.9811 
  74   0.0000       1.220213        33.2037 
  75   0.0000       1.225894        33.3583 
  76   0.0000       1.230171        33.4746 
  77   0.0000       1.231871        33.5209 
  78   0.0000       1.238948        33.7135 
  79   0.0000       1.260498        34.2999 
  80   0.0000       1.262851        34.3639 
  81   0.0000       1.296803        35.2878 
  82   0.0000       1.310642        35.6644 
  83   0.0000       1.325731        36.0750 
  84   0.0000       1.364392        37.1270 
  85   0.0000       1.388449        37.7816 
  86   0.0000       1.391814        37.8732 
  87   0.0000       1.480637        40.2902 
  88   0.0000       1.492602        40.6158 
  89   0.0000       1.498582        40.7785 
  90   0.0000       1.504003        40.9260 
  91   0.0000       1.510004        41.0893 
  92   0.0000       1.518689        41.3256 
  93   0.0000       1.537583        41.8398 
  94   0.0000       1.542671        41.9782 
  95   0.0000       1.598528        43.4982 
  96   0.0000       1.622447        44.1490 
  97   0.0000       1.627990        44.2999 
  98   0.0000       1.636905        44.5424 
  99   0.0000       1.643599        44.7246 
 100   0.0000       1.667771        45.3824 
 101   0.0000       1.673150        45.5287 
 102   0.0000       1.688639        45.9502 
 103   0.0000       1.765045        48.0293 
 104   0.0000       1.778352        48.3914 
 105   0.0000       1.785112        48.5754 
 106   0.0000       1.831678        49.8425 
 107   0.0000       1.841983        50.1229 
 108   0.0000       2.054555        55.9073 
 109   0.0000       2.062528        56.1242 
 110   0.0000       2.275708        61.9252 
 111   0.0000       2.352322        64.0099 
 112   0.0000       2.878584        78.3303 
 113   0.0000       2.889067        78.6155 
 114   0.0000       3.730938       101.5240 
 115   0.0000       3.762348       102.3787 
 116   0.0000       3.780736       102.8790 
 117   0.0000       3.788838       103.0995 
 118   0.0000       3.825125       104.0870 
 119   0.0000       3.837126       104.4135 
 120   0.0000       3.849044       104.7378 
 121   0.0000       3.896045       106.0168 
 122   0.0000       3.912320       106.4597 
 123   0.0000       3.922700       106.7421 
 124   0.0000       3.929000       106.9135 
 125   0.0000       3.940667       107.2310 
 126   0.0000       3.944446       107.3338 
 127   0.0000       4.053070       110.2897 
 128   0.0000       4.074843       110.8821 
 129   0.0000       4.077837       110.9636 
 130   0.0000       4.084203       111.1368 
 131   0.0000       4.085296       111.1666 
 132   0.0000       4.163941       113.3066 
 133   0.0000       4.167995       113.4169 
 134   0.0000       4.230538       115.1188 
 135   0.0000       4.385767       119.3428 
 136   0.0000       4.387612       119.3930 
 137   0.0000       4.388734       119.4235 
 138   0.0000       4.390778       119.4791 
 139   0.0000       4.392853       119.5356 
 140   0.0000       4.393498       119.5532 
 141   0.0000       4.398895       119.7000 
 142   0.0000       4.400016       119.7305 
 143   0.0000       4.400759       119.7507 
 144   0.0000       4.401411       119.7685 
 145   0.0000       4.401547       119.7722 
 146   0.0000       4.402090       119.7870 
 147   0.0000       4.403502       119.8254 
 148   0.0000       4.404821       119.8613 
 149   0.0000       4.408684       119.9664 
 150   0.0000       4.420900       120.2988 
 151   0.0000       4.421017       120.3020 
 152   0.0000       4.426011       120.4379 
 153   0.0000       4.426475       120.4505 
 154   0.0000       4.443598       120.9165 
 155   0.0000       4.461391       121.4006 
 156   0.0000       4.462806       121.4391 
 157   0.0000       4.464577       121.4873 
 158   0.0000       4.471285       121.6699 
 159   0.0000       4.593604       124.9983 
 160   0.0000       4.601474       125.2125 
 161   0.0000       4.717447       128.3683 
 162   0.0000      27.347749       744.1701 
 163   0.0000      27.520762       748.8780 
 164   0.0000      27.532616       749.2006 
 165   0.0000      27.633224       751.9383 
 166   0.0000      27.718700       754.2642 
 167   0.0000      27.735361       754.7175 
 168   0.0000      29.204035       794.6822 
 169   0.0000      29.844289       812.1044 
 170   0.0000      29.857407       812.4614 
 171   0.0000      44.113151      1200.3799 
 172   0.0000      44.625106      1214.3109 
 173   0.0000      44.640799      1214.7379 
 174   0.0000     203.337377      5533.0913 
 175   0.0000     203.554659      5539.0039 
 176   0.0000     203.570452      5539.4336 

                 SPIN DOWN ORBITALS
  NO   OCC          E(Eh)            E(eV) 
   0   1.0000      -4.513301      -122.8132 
   1   1.0000      -4.512869      -122.8014 
   2   1.0000      -4.487438      -122.1094 
   3   1.0000      -2.609076       -70.9966 
   4   1.0000      -2.600627       -70.7667 
   5   1.0000      -2.600210       -70.7553 
   6   1.0000      -2.598194       -70.7004 
   7   1.0000      -2.598034       -70.6961 
   8   1.0000      -2.597456       -70.6804 
   9   1.0000      -2.574314       -70.0506 
  10   1.0000      -2.573104       -70.0177 
  11   1.0000      -2.571050       -69.9618 
  12   1.0000      -0.493434       -13.4270 
  13   1.0000      -0.468148       -12.7389 
  14   1.0000      -0.458888       -12.4870 
  15   1.0000      -0.452203       -12.3051 
  16   1.0000      -0.431962       -11.7543 
  17   1.0000      -0.431051       -11.7295 
  18   1.0000      -0.422998       -11.5104 
  19   1.0000      -0.400014       -10.8849 
  20   1.0000      -0.394475       -10.7342 
  21   1.0000      -0.390376       -10.6227 
  22   1.0000      -0.379844       -10.3361 
  23   1.0000      -0.375952       -10.2302 
  24   1.0000      -0.369592       -10.0571 
  25   1.0000      -0.368288       -10.0216 
  26   1.0000      -0.337219        -9.1762 
  27   1.0000      -0.325461        -8.8562 
  28   0.0000      -0.064560        -1.7568 
  29   0.0000      -0.037395        -1.0176 
  30   0.0000       0.011603         0.3157 
  31   0.0000       0.035809         0.9744 
  32   0.0000       0.060925         1.6579 
  33   0.0000       0.061191         1.6651 
  34   0.0000       0.081679         2.2226 
  35   0.0000       0.093420         2.5421 
  36   0.0000       0.103387         2.8133 
  37   0.0000       0.114851         3.1253 
  38   0.0000       0.136463         3.7133 
  39   0.0000       0.214199         5.8287 
  40   0.0000       0.227588         6.1930 
  41   0.0000       0.238441         6.4883 
  42   0.0000       0.255587         6.9549 
  43   0.0000       0.255756         6.9595 
  44   0.0000       0.290195         7.8966 
  45   0.0000       0.296181         8.0595 
  46   0.0000       0.303071         8.2470 
  47   0.0000       0.311898         8.4872 
  48   0.0000       0.368961        10.0399 
  49   0.0000       0.382300        10.4029 
  50   0.0000       0.386089        10.5060 
  51   0.0000       0.393072        10.6960 
  52   0.0000       0.405179        11.0255 
  53   0.0000       0.419238        11.4080 
  54   0.0000       0.422199        11.4886 
  55   0.0000       0.461418        12.5558 
  56   0.0000       0.468100        12.7376 
  57   0.0000       0.490102        13.3363 
  58   0.0000       0.525806        14.3079 
  59   0.0000       0.539907        14.6916 
  60   0.0000       0.545470        14.8430 
  61   0.0000       0.551421        15.0049 
  62   0.0000       0.566931        15.4270 
  63   0.0000       0.645218        17.5573 
  64   0.0000       0.656607        17.8672 
  65   0.0000       0.657768        17.8988 
  66   0.0000       0.957755        26.0618 
  67   0.0000       1.051522        28.6134 
  68   0.0000       1.060005        28.8442 
  69   0.0000       1.066214        29.0132 
  70   0.0000       1.074055        29.2265 
  71   0.0000       1.148795        31.2603 
  72   0.0000       1.156913        31.4812 
  73   0.0000       1.214240        33.0412 
  74   0.0000       1.221485        33.2383 
  75   0.0000       1.229026        33.4435 
  76   0.0000       1.234622        33.5958 
  77   0.0000       1.236377        33.6435 
  78   0.0000       1.247229        33.9388 
  79   0.0000       1.266922        34.4747 
  80   0.0000       1.267249        34.4836 
  81   0.0000       1.302237        35.4357 
  82   0.0000       1.312198        35.7067 
  83   0.0000       1.331773        36.2394 
  84   0.0000       1.369537        37.2670 
  85   0.0000       1.390262        37.8310 
  86   0.0000       1.397471        38.0271 
  87   0.0000       1.483373        40.3646 
  88   0.0000       1.495328        40.6899 
  89   0.0000       1.505058        40.9547 
  90   0.0000       1.514144        41.2019 
  91   0.0000       1.514374        41.2082 
  92   0.0000       1.526302        41.5328 
  93   0.0000       1.538890        41.8753 
  94   0.0000       1.548767        42.1441 
  95   0.0000       1.606218        43.7074 
  96   0.0000       1.624536        44.2059 
  97   0.0000       1.632763        44.4297 
  98   0.0000       1.642640        44.6985 
  99   0.0000       1.649491        44.8849 
 100   0.0000       1.669545        45.4306 
 101   0.0000       1.681340        45.7516 
 102   0.0000       1.696774        46.1716 
 103   0.0000       1.767934        48.1079 
 104   0.0000       1.782640        48.5081 
 105   0.0000       1.788232        48.6603 
 106   0.0000       1.833099        49.8812 
 107   0.0000       1.844906        50.2025 
 108   0.0000       2.055602        55.9358 
 109   0.0000       2.064384        56.1747 
 110   0.0000       2.277647        61.9779 
 111   0.0000       2.356591        64.1261 
 112   0.0000       2.879843        78.3645 
 113   0.0000       2.895345        78.7863 
 114   0.0000       3.732036       101.5539 
 115   0.0000       3.762433       102.3810 
 116   0.0000       3.781352       102.8958 
 117   0.0000       3.789951       103.1298 
 118   0.0000       3.825733       104.1035 
 119   0.0000       3.837604       104.4265 
 120   0.0000       3.849782       104.7579 
 121   0.0000       3.896332       106.0246 
 122   0.0000       3.913360       106.4879 
 123   0.0000       3.923572       106.7658 
 124   0.0000       3.928367       106.8963 
 125   0.0000       3.942705       107.2865 
 126   0.0000       3.946285       107.3839 
 127   0.0000       4.053824       110.3101 
 128   0.0000       4.075732       110.9063 
 129   0.0000       4.079254       111.0022 
 130   0.0000       4.087801       111.2347 
 131   0.0000       4.087927       111.2382 
 132   0.0000       4.164731       113.3281 
 133   0.0000       4.171373       113.5088 
 134   0.0000       4.234003       115.2131 
 135   0.0000       4.385761       119.3426 
 136   0.0000       4.388360       119.4134 
 137   0.0000       4.390146       119.4619 
 138   0.0000       4.390946       119.4837 
 139   0.0000       4.392518       119.5265 
 140   0.0000       4.395162       119.5984 
 141   0.0000       4.399313       119.7114 
 142   0.0000       4.399787       119.7243 
 143   0.0000       4.400784       119.7514 
 144   0.0000       4.401133       119.7609 
 145   0.0000       4.403638       119.8291 
 146   0.0000       4.404073       119.8409 
 147   0.0000       4.405541       119.8809 
 148   0.0000       4.407943       119.9462 
 149   0.0000       4.411971       120.0558 
 150   0.0000       4.422855       120.3520 
 151   0.0000       4.424470       120.3959 
 152   0.0000       4.426967       120.4639 
 153   0.0000       4.427526       120.4791 
 154   0.0000       4.442875       120.8968 
 155   0.0000       4.464220       121.4776 
 156   0.0000       4.465136       121.5025 
 157   0.0000       4.466454       121.5384 
 158   0.0000       4.473999       121.7437 
 159   0.0000       4.594159       125.0134 
 160   0.0000       4.603087       125.2564 
 161   0.0000       4.718708       128.4026 
 162   0.0000      27.347900       744.1742 
 163   0.0000      27.520686       748.8759 
 164   0.0000      27.533655       749.2288 
 165   0.0000      27.634740       751.9795 
 166   0.0000      27.718711       754.2645 
 167   0.0000      27.735698       754.7267 
 168   0.0000      29.204327       794.6901 
 169   0.0000      29.844592       812.1126 
 170   0.0000      29.859592       812.5208 
 171   0.0000      44.113140      1200.3796 
 172   0.0000      44.625106      1214.3109 
 173   0.0000      44.640670      1214.7344 
 174   0.0000     203.335559      5533.0419 
 175   0.0000     203.554169      5538.9905 
 176   0.0000     203.566796      5539.3341 

                    ********************************
                    * MULLIKEN POPULATION ANALYSIS *
                    ********************************

--------------------------------------------
MULLIKEN ATOMIC CHARGES AND SPIN POPULATIONS
--------------------------------------------
   0 Au:   -0.149648    0.646925
   1 Au:    0.074819    0.176551
   2 Au:    0.074829    0.176524
Sum of atomic charges         :   -0.0000000
Sum of atomic spin populations:    1.0000000

-----------------------------------------------------
MULLIKEN REDUCED ORBITAL CHARGES AND SPIN POPULATIONS
-----------------------------------------------------
CHARGE
  0 Aus       :     3.120314  s :     3.120314
      pz      :     2.008585  p :     6.176257
      px      :     2.011355
      py      :     2.156317
      dz2     :     1.976550  d :     9.844766
      dxz     :     1.994551
      dyz     :     1.987291
      dx2y2   :     1.972618
      dxy     :     1.913756
      f0      :     0.000805  f :     0.008170
      f+1     :     0.000464
      f-1     :     0.001271
      f+2     :     0.000467
      f-2     :     0.001042
      f+3     :     0.002218
      f-3     :     0.001901
      g0      :     0.000012  g :     0.000141
      g+1     :     0.000007
      g-1     :     0.000017
      g+2     :     0.000010
      g-2     :     0.000017
      g+3     :     0.000015
      g-3     :     0.000003
      g+4     :     0.000029
      g-4     :     0.000032
  1 Aus       :     2.828453  s :     2.828453
      pz      :     2.011718  p :     6.188288
      px      :     2.053422
      py      :     2.123149
      dz2     :     1.978899  d :     9.899058
      dxz     :     1.993069
      dyz     :     1.996124
      dx2y2   :     1.958777
      dxy     :     1.972190
      f0      :     0.000904  f :     0.009235
      f+1     :     0.001113
      f-1     :     0.000764
      f+2     :     0.000995
      f-2     :     0.000754
      f+3     :     0.002594
      f-3     :     0.002111
      g0      :     0.000011  g :     0.000147
      g+1     :     0.000014
      g-1     :     0.000009
      g+2     :     0.000015
      g-2     :     0.000011
      g+3     :     0.000016
      g-3     :     0.000004
      g+4     :     0.000034
      g-4     :     0.000031
  2 Aus       :     2.828437  s :     2.828437
      pz      :     2.011718  p :     6.188291
      px      :     2.053423
      py      :     2.123149
      dz2     :     1.978899  d :     9.899061
      dxz     :     1.993069
      dyz     :     1.996124
      dx2y2   :     1.958779
      dxy     :     1.972191
      f0      :     0.000904  f :     0.009235
      f+1     :     0.001113
      f-1     :     0.000764
      f+2     :     0.000995
      f-2     :     0.000754
      f+3     :     0.002594
      f-3     :     0.002111
      g0      :     0.000011  g :     0.000147
      g+1     :     0.000014
      g-1     :     0.000009
      g+2     :     0.000015
      g-2     :     0.000011
      g+3     :     0.000016
      g-3     :     0.000004
      g+4     :     0.000034
      g-4     :     0.000031

SPIN
  0 Aus       :     0.535968  s :     0.535968
      pz      :     0.000240  p :     0.067310
      px      :     0.000619
      py      :     0.066451
      dz2     :     0.008167  d :     0.044061
      dxz     :     0.000675
      dyz     :     0.001342
      dx2y2   :     0.009187
      dxy     :     0.024689
      f0      :    -0.000036  f :    -0.000415
      f+1     :    -0.000022
      f-1     :    -0.000064
      f+2     :    -0.000025
      f-2     :    -0.000053
      f+3     :    -0.000142
      f-3     :    -0.000073
      g0      :     0.000000  g :     0.000002
      g+1     :     0.000000
      g-1     :     0.000001
      g+2     :     0.000000
      g-2     :     0.000000
      g+3     :    -0.000000
      g-3     :     0.000000
      g+4     :    -0.000000
      g-4     :    -0.000000
  1 Aus       :     0.090672  s :     0.090672
      pz      :    -0.000255  p :     0.081304
      px      :     0.000339
      py      :     0.081221
      dz2     :     0.002488  d :     0.004707
      dxz     :    -0.000235
      dyz     :    -0.000520
      dx2y2   :    -0.005481
      dxy     :     0.008455
      f0      :    -0.000017  f :    -0.000130
      f+1     :    -0.000013
      f-1     :    -0.000006
      f+2     :    -0.000011
      f-2     :    -0.000033
      f+3     :     0.000039
      f-3     :    -0.000089
      g0      :    -0.000000  g :    -0.000002
      g+1     :    -0.000000
      g-1     :     0.000000
      g+2     :    -0.000000
      g-2     :    -0.000000
      g+3     :    -0.000000
      g-3     :    -0.000000
      g+4     :    -0.000001
      g-4     :    -0.000001
  2 Aus       :     0.090643  s :     0.090643
      pz      :    -0.000256  p :     0.081306
      px      :     0.000340
      py      :     0.081222
      dz2     :     0.002488  d :     0.004706
      dxz     :    -0.000235
      dyz     :    -0.000520
      dx2y2   :    -0.005481
      dxy     :     0.008454
      f0      :    -0.000017  f :    -0.000130
      f+1     :    -0.000013
      f-1     :    -0.000006
      f+2     :    -0.000011
      f-2     :    -0.000033
      f+3     :     0.000039
      f-3     :    -0.000089
      g0      :    -0.000000  g :    -0.000002
      g+1     :    -0.000000
      g-1     :     0.000000
      g+2     :    -0.000000
      g-2     :    -0.000000
      g+3     :    -0.000000
      g-3     :    -0.000000
      g+4     :    -0.000001
      g-4     :    -0.000001


                     *******************************
                     * LOEWDIN POPULATION ANALYSIS *
                     *******************************

-------------------------------------------
LOEWDIN ATOMIC CHARGES AND SPIN POPULATIONS
-------------------------------------------
   0 Au:   -0.103351    0.528722
   1 Au:    0.051672    0.235646
   2 Au:    0.051679    0.235631

----------------------------------------------------
LOEWDIN REDUCED ORBITAL CHARGES AND SPIN POPULATIONS
----------------------------------------------------
CHARGE
  0 Aus       :     2.810092  s :     2.810092
      pz      :     2.013664  p :     6.385804
      px      :     2.030940
      py      :     2.341200
      dz2     :     1.998623  d :     9.891100
      dxz     :     1.992875
      dyz     :     1.981929
      dx2y2   :     1.979591
      dxy     :     1.938082
      f0      :     0.001361  f :     0.016134
      f+1     :     0.001006
      f-1     :     0.002730
      f+2     :     0.000695
      f-2     :     0.001891
      f+3     :     0.005334
      f-3     :     0.003118
      g0      :     0.000019  g :     0.000221
      g+1     :     0.000009
      g-1     :     0.000023
      g+2     :     0.000015
      g-2     :     0.000028
      g+3     :     0.000023
      g-3     :     0.000004
      g+4     :     0.000043
      g-4     :     0.000057
  1 Aus       :     2.634449  s :     2.634449
      pz      :     2.016980  p :     6.352717
      px      :     2.112099
      py      :     2.223637
      dz2     :     1.995933  d :     9.943193
      dxz     :     1.988992
      dyz     :     1.993384
      dx2y2   :     1.980447
      dxy     :     1.984437
      f0      :     0.001476  f :     0.017742
      f+1     :     0.002094
      f-1     :     0.001584
      f+2     :     0.001703
      f-2     :     0.001166
      f+3     :     0.006350
      f-3     :     0.003367
      g0      :     0.000017  g :     0.000228
      g+1     :     0.000019
      g-1     :     0.000012
      g+2     :     0.000026
      g-2     :     0.000019
      g+3     :     0.000024
      g-3     :     0.000004
      g+4     :     0.000057
      g-4     :     0.000048
  2 Aus       :     2.634439  s :     2.634439
      pz      :     2.016980  p :     6.352716
      px      :     2.112099
      py      :     2.223637
      dz2     :     1.995932  d :     9.943196
      dxz     :     1.988993
      dyz     :     1.993385
      dx2y2   :     1.980450
      dxy     :     1.984437
      f0      :     0.001476  f :     0.017742
      f+1     :     0.002094
      f-1     :     0.001584
      f+2     :     0.001703
      f-2     :     0.001166
      f+3     :     0.006350
      f-3     :     0.003367
      g0      :     0.000017  g :     0.000228
      g+1     :     0.000019
      g-1     :     0.000012
      g+2     :     0.000026
      g-2     :     0.000019
      g+3     :     0.000024
      g-3     :     0.000004
      g+4     :     0.000057
      g-4     :     0.000048

SPIN
  0 Aus       :     0.318013  s :     0.318013
      pz      :     0.000666  p :     0.169080
      px      :     0.000470
      py      :     0.167944
      dz2     :     0.007686  d :     0.041444
      dxz     :    -0.000044
      dyz     :     0.001220
      dx2y2   :     0.011195
      dxy     :     0.021386
      f0      :    -0.000029  f :     0.000182
      f+1     :     0.000012
      f-1     :     0.000246
      f+2     :    -0.000011
      f-2     :    -0.000056
      f+3     :     0.000104
      f-3     :    -0.000084
      g0      :     0.000001  g :     0.000004
      g+1     :     0.000000
      g-1     :     0.000001
      g+2     :     0.000001
      g-2     :     0.000000
      g+3     :    -0.000000
      g-3     :     0.000000
      g+4     :     0.000000
      g-4     :     0.000001
  1 Aus       :     0.059840  s :     0.059840
      pz      :    -0.000069  p :     0.158115
      px      :    -0.000670
      py      :     0.158853
      dz2     :     0.003491  d :     0.017213
      dxz     :    -0.000384
      dyz     :    -0.000373
      dx2y2   :     0.001825
      dxy     :     0.012655
      f0      :    -0.000014  f :     0.000477
      f+1     :    -0.000025
      f-1     :     0.000182
      f+2     :    -0.000004
      f-2     :    -0.000028
      f+3     :     0.000456
      f-3     :    -0.000090
      g0      :     0.000000  g :     0.000001
      g+1     :    -0.000000
      g-1     :    -0.000000
      g+2     :    -0.000000
      g-2     :     0.000001
      g+3     :    -0.000000
      g-3     :    -0.000000
      g+4     :    -0.000000
      g-4     :     0.000001
  2 Aus       :     0.059823  s :     0.059823
      pz      :    -0.000069  p :     0.158116
      px      :    -0.000668
      py      :     0.158853
      dz2     :     0.003491  d :     0.017214
      dxz     :    -0.000384
      dyz     :    -0.000373
      dx2y2   :     0.001826
      dxy     :     0.012655
      f0      :    -0.000014  f :     0.000477
      f+1     :    -0.000025
      f-1     :     0.000182
      f+2     :    -0.000004
      f-2     :    -0.000028
      f+3     :     0.000456
      f-3     :    -0.000090
      g0      :     0.000000  g :     0.000001
      g+1     :    -0.000000
      g-1     :    -0.000000
      g+2     :    -0.000000
      g-2     :     0.000001
      g+3     :    -0.000000
      g-3     :    -0.000000
      g+4     :    -0.000000
      g-4     :     0.000001


                      *****************************
                      * MAYER POPULATION ANALYSIS *
                      *****************************

  NA   - Mulliken gross atomic population
  ZA   - Total nuclear charge
  QA   - Mulliken gross atomic charge
  VA   - Mayer's total valence
  BVA  - Mayer's bonded valence
  FA   - Mayer's free valence

  ATOM       NA         ZA         QA         VA         BVA        FA
  0 Au    19.1496    19.0000    -0.1496     1.4999     1.0467     0.4533
  1 Au    18.9252    19.0000     0.0748     1.3785     1.2879     0.0905
  2 Au    18.9252    19.0000     0.0748     1.3785     1.2879     0.0905

  Mayer bond orders larger than 0.100000
B(  0-Au,  1-Au) :   0.5233 B(  0-Au,  2-Au) :   0.5233 B(  1-Au,  2-Au) :   0.7646 


-------
TIMINGS
-------

Total SCF time: 0 days 0 hours 0 min 7 sec 

Total time                  ....       7.930 sec
Sum of individual times     ....       7.768 sec  ( 98.0%)

Fock matrix formation       ....       6.073 sec  ( 76.6%)
  XC integration            ....       0.921 sec  ( 15.2% of F)
    Basis function eval.    ....       0.078 sec  (  8.4% of XC)
    Density eval.           ....       0.102 sec  ( 11.1% of XC)
    XC-Functional eval.     ....       0.032 sec  (  3.5% of XC)
    XC-Potential eval.      ....       0.192 sec  ( 20.9% of XC)
Diagonalization             ....       0.141 sec  (  1.8%)
Density matrix formation    ....       0.022 sec  (  0.3%)
Population analysis         ....       0.010 sec  (  0.1%)
Initial guess               ....       1.086 sec  ( 13.7%)
Orbital Transformation      ....       0.000 sec  (  0.0%)
Orbital Orthonormalization  ....       0.000 sec  (  0.0%)
DIIS solution               ....       0.045 sec  (  0.6%)
Grid generation             ....       0.391 sec  (  4.9%)


           ************************************************************
           *        Program running with 24 parallel MPI-processes    *
           *              working on a common directory               *
           ************************************************************

------------------------------------------------------------------------------
                                ORCA  MP2 
------------------------------------------------------------------------------

Freezing NCore=0 chemical core electrons

-------------
RI-MP2 ENERGY
-------------
Dimension of the basis                    ...  177
Memory devoted to MP2                     ... 5000 MB   
Data format for buffers                   ... DOUBLE
Compression type for matrix containers    ... UNCOMPRESSED
Scaling for aa/bb pairs                   ...   4.000e-01
Scaling for ab pairs                      ...   4.700e-01
Overall scaling of the MP2 energy         ...   1.000e+00
Calculating two index integrals           ... done (    0.013 sec)
Cholesky decomposition of V**-1           ... done (    0.016 sec)

-----------------
RI-TRANSFORMATION (AUX index driven)
-----------------

Dimension of the orbital-basis         ... 177
Dimension of the aux-basis             ... 579
Transformation of internal/external MOs...    0-  28 to   29- 176
Number Format for Storage              ... Double (8 Byte)
Integral mode                          ... Direct

First Phase: integral generation and transformation of MO indices
  Aux angular momentum 0               ... done (    0.002 sec)
  Aux angular momentum 1               ... done (    0.003 sec)
  Aux angular momentum 2               ... done (    0.002 sec)
  Aux angular momentum 3               ... done (    0.004 sec)
  Aux angular momentum 4               ... done (    0.005 sec)
  Aux angular momentum 5               ... done (    0.008 sec)
  Aux angular momentum 6               ... done (    0.012 sec)
Closing buffer VIA ( 0.02 GB; CompressionRatio= 1.00)
  Phase 1 completed in     0.105 sec
Second Phase: sorting and transformation of aux index

IA-Transformation
Memory available                       ... 4995 MB 
Max. # MO pairs treated in a batch     ... 2    
# of internal orbitals                 ... 29
# batches for internal orbitals        ... 1
Closing buffer IAV ( 0.00 GB; CompressionRatio= 1.00)
(ia|v) transformation done in     0.013 sec

  Phase 2 completed in     0.031 sec
RI-Integral transformation completed in     0.137 sec

-----------------
RI-TRANSFORMATION (AUX index driven)
-----------------

Dimension of the orbital-basis         ... 177
Dimension of the aux-basis             ... 579
Transformation of internal/external MOs...    0-  27 to   28- 176
Number Format for Storage              ... Double (8 Byte)
Integral mode                          ... Direct

First Phase: integral generation and transformation of MO indices
  Aux angular momentum 0               ... done (    0.002 sec)
  Aux angular momentum 1               ... done (    0.003 sec)
  Aux angular momentum 2               ... done (    0.002 sec)
  Aux angular momentum 3               ... done (    0.003 sec)
  Aux angular momentum 4               ... done (    0.005 sec)
  Aux angular momentum 5               ... done (    0.008 sec)
  Aux angular momentum 6               ... done (    0.012 sec)
Closing buffer VIA ( 0.02 GB; CompressionRatio= 1.00)
  Phase 1 completed in     0.105 sec
Second Phase: sorting and transformation of aux index

IA-Transformation
Memory available                       ... 4995 MB 
Max. # MO pairs treated in a batch     ... 2    
# of internal orbitals                 ... 28
# batches for internal orbitals        ... 1
Closing buffer IAV ( 0.00 GB; CompressionRatio= 1.00)
(ia|v) transformation done in     0.013 sec

  Phase 2 completed in     0.030 sec
RI-Integral transformation completed in     0.136 sec
Opening buffers                              ... done

Starting loop over batches of integrals:

Operator 0  - window                       ... (  0- 28)x( 29-176)
Operator 0  - Memory available             ...  5000 MB
Operator 0  - Memory needed per MO         ...   0.7 MB
Operator 0  - Number of orbitals per batch ... 2
Operator 0  - Number of batches            ... 1

OPERATOR  0   PASS   0:  MOs     0 ...    1 +    2 ...    3 +    4 ...    5 +    6 ...    7
                            +    8 ...    9 +   10 ...   11 +   12 ...   13 +   14 ...   15
                            +   16 ...   17 +   18 ...   19 +   20 ...   21 +   22 ...   23
                            +   24 ...   25 +   26 ...   27 +   28 ...   28
  Reading integrals       ... ok

Operator 1  - window                       ... (  0- 27)x( 28-176)
Operator 1  - Memory available             ...  5000 MB
Operator 1  - Memory needed per MO         ...   0.7 MB
Operator 1  - Number of orbitals per batch ... 2
Operator 1  - Number of batches            ... 1

OPERATOR  1   PASS   0:  MOs     0 ...    1 +    2 ...    3 +    4 ...    5 +    6 ...    7
                            +    8 ...    9 +   10 ...   11 +   12 ...   13 +   14 ...   15
                            +   16 ...   17 +   18 ...   19 +   20 ...   21 +   22 ...   23
                            +   24 ...   25 +   26 ...   27
  Reading integrals       ... ok
Time spent in pair loops =     0.106 sec

Spin-scaled correlation energy components}
 E2 and T2 for alpha/alpha pairs :     -0.145704049 Eh      0.000000000
 E2 and T2 for beta/beta   pairs :     -0.136581460 Eh      0.000000000
 E2 and T2 for alpha/beta  pairs :     -0.634409202 Eh      0.000000000


-----------------------------------------------
 RI-MP2 CORRELATION ENERGY:     -0.916694711 Eh
-----------------------------------------------


-------
TIMINGS
-------

Total time                :    0.471 sec
Integral trafo            :    0.302 sec ( 64.2%)
I/O of integrals          :    0.001 sec (  0.3%)
K(i,j) Operators          :    0.053 sec ( 11.3%)
T(i,j) pair energies      :    0.004 sec (  0.8%)
V-calculation             :    0.013 sec (  2.7%)
V**(-1/2)                 :    0.016 sec (  3.4%)
Gamma(ia|P)               :    0.000 sec (  0.0%)
Gamma-Trafo               :    0.000 sec (  0.0%)
D(virtual)                :    0.000 sec (  0.0%)
D(internal)               :    0.000 sec (  0.0%)
W(virtual)                :    0.000 sec (  0.0%)
W(internal)               :    0.000 sec (  0.0%)
L(virtual)                :    0.000 sec (  0.0%)
L(internal)               :    0.000 sec (  0.0%)
G(D)                      :    0.000 sec (  0.0%)
G(Z)                      :    0.000 sec (  0.0%)
Z-Vector Solution         :    0.000 sec (  0.0%)
Z-Vector Solution         :    0.000 sec (  0.0%)
3-Index Derivative 
+ Separable RIJ part      :    0.000 sec (  0.0%)
2-Index Derivative 
+ Separable RIJ part      :    0.000 sec (  0.0%)
Separable Gradient (X)    :    0.000 sec (  0.0%)


---------------------------------------
MP2 TOTAL ENERGY:     -406.626681474 Eh
---------------------------------------


-------------------------------------------------------------------------------
                          DFT DISPERSION CORRECTION                            
                                                                               
                              DFTD3 V3.1  Rev 1                                
                          USING Becke-Johnson damping                          
-------------------------------------------------------------------------------
The DSD-BLYP/2013 functional is recognized
Active option DFTDOPT                   ...         4   

molecular C6(AA) [au] = 2854.410647 


            DFT-D V3
 parameters
 s6 scaling factor         :     0.5700 
 a1 scaling factor         :     0.0000 
 s8 scaling factor         :     0.0000 
 a2 scaling factor         :     5.4000 
 ad hoc parameters k1-k3   :    16.0000     1.3333    -4.0000 

 Edisp/kcal,au: -8.578269499311  -0.013670341148 
 E6   /kcal   :  -8.578269499 
 E8   /kcal   :  -0.000000000 
 % E8         :   0.000000000 

-------------------------   ----------------
Dispersion correction           -0.013670341
-------------------------   ----------------


-------------------------   --------------------
FINAL SINGLE POINT ENERGY      -406.640351815152
-------------------------   --------------------


                            ***************************************
                            *     ORCA property calculations      *
                            ***************************************


  WARNING: The energy has been calculated at the MP2 level but the densities
           used in the property calculations are still SCF densities
           MP2 response densities have not been calculated 
           use %mp2 Density relaxed end
           or  %mp2 Density unrelaxed end

                                    ---------------------
                                    Active property flags
                                    ---------------------
   (+) Dipole Moment


------------------------------------------------------------------------------
                       ORCA ELECTRIC PROPERTIES CALCULATION
------------------------------------------------------------------------------

Dipole Moment Calculation                       ... on
Quadrupole Moment Calculation                   ... off
Polarizability Calculation                      ... off
GBWName                                         ... Au03N0_D3H.gbw
Electron density file                           ... Au03N0_D3H.scfp
The origin for moment calculation is the CENTER OF MASS  = ( 0.000000,  0.000000  0.000000)

-------------
DIPOLE MOMENT
-------------
                                X             Y             Z
Electronic contribution:     -0.00003      -0.64063      -0.00000
Nuclear contribution   :      0.00000       0.00000       0.00000
                        -----------------------------------------
Total Dipole Moment    :     -0.00003      -0.64063      -0.00000
                        -----------------------------------------
Magnitude (a.u.)       :      0.64063
Magnitude (Debye)      :      1.62836



--------------------
Rotational spectrum 
--------------------
 
Rotational constants in cm-1:     0.024853     0.024853     0.012427 
Rotational constants in MHz :   745.088417   745.088311   372.544182 

 Dipole components along the rotational axes: 
x,y,z [a.u.] :    -0.000025    -0.640634    -0.000000 
x,y,z [Debye]:    -0.000065    -1.628361    -0.000000 

 

Timings for individual modules:

Sum of individual times         ...       10.313 sec (=   0.172 min)
GTO integral calculation        ...        1.080 sec (=   0.018 min)  10.5 %
SCF iterations                  ...        8.288 sec (=   0.138 min)  80.4 %
MP2 module                      ...        0.945 sec (=   0.016 min)   9.2 %
                             ****ORCA TERMINATED NORMALLY****
TOTAL RUN TIME: 0 days 0 hours 0 minutes 10 seconds 797 msec
