
                                 *****************
                                 * O   R   C   A *
                                 *****************

           --- An Ab Initio, DFT and Semiempirical electronic structure package ---

                  #######################################################
                  #                        -***-                        #
                  #          Department of theory and spectroscopy      #
                  #               Directorship: Frank Neese             #
                  #        Max Planck Institute fuer Kohlenforschung    #
                  #                Kaiser Wilhelm Platz 1               #
                  #                 D-45470 Muelheim/Ruhr               #
                  #                      Germany                        #
                  #                                                     #
                  #                  All rights reserved                #
                  #                        -***-                        #
                  #######################################################


                         Program Version 4.2.0 -  RELEASE  -


 With contributions from (in alphabetic order):
   Daniel Aravena         : Magnetic Suceptibility
   Michael Atanasov       : Ab Initio Ligand Field Theory (pilot matlab implementation)
   Alexander A. Auer      : GIAO ZORA, VPT2
   Ute Becker             : Parallelization
   Giovanni Bistoni       : ED, misc. LED, open-shell LED, HFLED
   Martin Brehm           : Molecular dynamics
   Dmytro Bykov           : SCF Hessian
   Vijay G. Chilkuri      : MRCI spin determinant printing, contributions to CSF-ICE
   Dipayan Datta          : RHF DLPNO-CCSD density
   Achintya Kumar Dutta   : EOM-CC, STEOM-CC
   Dmitry Ganyushin       : Spin-Orbit,Spin-Spin,Magnetic field MRCI
   Miquel Garcia          : C-PCM Hessian, Gaussian charge scheme
   Yang Guo               : DLPNO-NEVPT2, CIM, IAO-localization
   Andreas Hansen         : Spin unrestricted coupled pair/coupled cluster methods
   Benjamin Helmich-Paris : CASSCF linear response (MC-RPA)
   Lee Huntington         : MR-EOM, pCC
   Robert Izsak           : Overlap fitted RIJCOSX, COSX-SCS-MP3, EOM
   Christian Kollmar      : KDIIS, OOCD, Brueckner-CCSD(T), CCSD density
   Simone Kossmann        : Meta GGA functionals, TD-DFT gradient, OOMP2, MP2 Hessian
   Martin Krupicka        : AUTO-CI
   Lucas Lang             : DCDCAS
   Dagmar Lenk            : GEPOL surface, SMD
   Dimitrios Liakos       : Extrapolation schemes; Compound Job, initial MDCI parallelization
   Dimitrios Manganas     : Further ROCIS development; embedding schemes
   Dimitrios Pantazis     : SARC Basis sets
   Taras Petrenko         : DFT Hessian,TD-DFT gradient, ASA, ECA, R-Raman, ABS, FL, XAS/XES, NRVS
   Peter Pinski           : DLPNO-MP2, DLPNO-MP2 Gradient
   Christoph Reimann      : Effective Core Potentials
   Marius Retegan         : Local ZFS, SOC
   Christoph Riplinger    : Optimizer, TS searches, QM/MM, DLPNO-CCSD(T), (RO)-DLPNO pert. Triples
   Tobias Risthaus        : Range-separated hybrids, TD-DFT gradient, RPA, STAB
   Michael Roemelt        : Original ROCIS implementation
   Masaaki Saitow         : Open-shell DLPNO-CCSD energy and density
   Barbara Sandhoefer     : DKH picture change effects
   Avijit Sen             : IP-ROCIS
   Kantharuban Sivalingam : CASSCF convergence, NEVPT2, FIC-MRCI
   Bernardo de Souza      : ESD, SOC TD-DFT
   Georgi Stoychev        : AutoAux, RI-MP2 NMR
   Willem Van den Heuvel  : Paramagnetic NMR
   Boris Wezisla          : Elementary symmetry handling
   Frank Wennmohs         : Technical directorship


 We gratefully acknowledge several colleagues who have allowed us to
 interface, adapt or use parts of their codes:
   Stefan Grimme, W. Hujo, H. Kruse,             : VdW corrections, initial TS optimization,
                  C. Bannwarth                     DFT functionals, gCP, sTDA/sTD-DF
   Ed Valeev, F. Pavosevic, A. Kumar             : LibInt (2-el integral package), F12 methods
   Garnet Chan, S. Sharma, J. Yang, R. Olivares  : DMRG
   Ulf Ekstrom                                   : XCFun DFT Library
   Mihaly Kallay                                 : mrcc  (arbitrary order and MRCC methods)
   Andreas Klamt, Michael Diedenhofen            : otool_cosmo (COSMO solvation model)
   Jiri Pittner, Ondrej Demel                    : Mk-CCSD
   Frank Weinhold                                : gennbo (NPA and NBO analysis)
   Christopher J. Cramer and Donald G. Truhlar   : smd solvation model
   Lars Goerigk                                  : TD-DFT with DH, B97 family of functionals
   V. Asgeirsson, H. Jonsson                     : NEB implementation
   FAccTs GmbH                                   : IRC, NEB, NEB-TS, Multilevel, MM, QM/MM, CI optimization
   S Lehtola, MJT Oliveira, MAL Marques          : LibXC Library


 Your calculation uses the libint2 library for the computation of 2-el integrals
 For citations please refer to: http://libint.valeyev.net

 Your ORCA version has been built with support for libXC version: 4.2.3
 For citations please refer to: https://tddft.org/programs/libxc/

 This ORCA versions uses:
   CBLAS   interface :  Fast vector & matrix operations
   LAPACKE interface :  Fast linear algebra routines
   SCALAPACK package :  Parallel linear algebra routines


Your calculation utilizes the atom-pairwise dispersion correction
with the Becke-Johnson damping scheme (D3BJ)
Cite in your paper:
S.Grimme, S.Ehrlich, L.Goerigk, J Comput Chem, (2011), 32, 1456–1465 
S.Grimme, J.Antony, S.Ehrlich and H.Krieg, J.Chem.Phys., 132, (2010), 154104 
   

----- Orbital basis set information -----
Your calculation utilizes the basis: def2-TZVPPD
   F. Weigend and R. Ahlrichs, Phys. Chem. Chem. Phys. 7, 3297 (2005).
   D. Rappoport and F. Furche, J. Chem. Phys. 133 134105 (2010).

----- AuxC basis set information -----
Your calculation utilizes the auxiliary basis: def2-TZVPPD/C
   A. Hellweg, C. Hattig, S. Hofener and W. Klopper, Theor. Chem. Acc. 117, 587 (2007).

----- AuxJK basis set information -----
Your calculation utilizes the auxiliary basis: def2/JK
   H-Ba, Hf-Rn: F. Weigend, J. Comput. Chem. 29, 167 (2008).

cite the ECPs for Au [Def2-ECP] as follows:
Ce-Yb(ecp-28): M. Dolg, H. Stoll, H.Preuss, J. Chem. Phys., 1989, 90, 1730-1734.
Y-Cd(ecp-28), Hf-Hg(ecp-46): D. Andrae,U. Haeussermann, M. Dolg, H. Stoll, H. Preuss, Theor. Chim. Acta, 1990, 77, 123-141.
In-Sb(ecp-28), Tl-Bi(ecp-46): B. Metz, H. Stoll, M. Dolg, J. Chem. Phys., 2000, 113, 2563-2569.
Te-Xe(ecp-28), Po-Rn(ecp-46): K. A. Peterson, D. Figgen, E. Goll, H. Stoll, M. Dolg, J. Chem. Phys., 2003, 119, 11113-11123.
Rb(ecp-28), Cs(ecp-46): T. Leininger, A. Nicklass, W. Kuechle, H. Stoll, M. Dolg, A. Bergner, Chem. Phys. Lett., 1996, 255, 274-280.
Sr(ecp-28), Ba(ecp-46): M. Kaupp, P. V. Schleyer, H. Stoll and H. Preuss, J. Chem. Phys., 1991, 94, 1360-1366.
La(ecp-46): M. Dolg, H. Stoll, A. Savin, H. Preuss, Theor. Chim. Acta, 1989, 75, 173-194.
Lu(ecp-28): X. Cao, M. Dolg, J. Chem. Phys., 2001, 115, 7348-7355.

ECP parameters for Au [Def2-ECP] have been obtained from:
TURBOMOLE (7.0.2)

================================================================================
                                        WARNINGS
                       Please study these warnings very carefully!
================================================================================


WARNING: No MP2 level density has been requested!
         To caclulate MP2 level properties use
         %mp2 Density relaxed end
         or
         %mp2 Density unrelaxed end
         Otherwise for double-hybrid DFT only the energy is correct!

WARNING: There are different parametrizations of Gershom Martin's DSD-DFs
         for use with and without D3(BJ)!
         You are using the D3(BJ) parametrized version,
         consistent with the 2013 article (S. Kozuch and J. M. L. Martin, JCC 2013, 34, 2327)

WARNING: The frozen-core approximation is turned on by default for 
         the MP2 part of double-hybrid DFT.

INFO   : the flag for use of LIBINT has been found!

================================================================================
                                       INPUT FILE
================================================================================
NAME = Au04C2_NH3_A.in
|  1> #
|  2> # Au04C2_NH3_A ri-DSD-BLYP/2013-D3BJ/Def2-TZVPPD
|  3> #
|  4> ! rijk ri-dsd-blyp/2013 d3bj def2-tzvppd def2/jk def2-tzvppd/c grid4 nofinalgrid
|  5> 
|  6> *xyz 2 1
|  7> Au      -0.274490    1.572639   -0.000000 
|  8> Au       1.635934   -0.418177    0.000000 
|  9> Au      -0.639028   -0.815642    1.333593 
| 10> Au      -0.639028   -0.815642   -1.333593 
| 11> N       -0.639028    3.654013   -0.000000 
| 12> H       -0.235750    4.112347    0.824759 
| 13> H       -0.235750    4.112347   -0.824759 
| 14> H       -1.642949    3.866239   -0.000000 
| 15> *
| 16> 
| 17> %maxcore 5000
| 18> 
| 19> %pal
| 20> nprocs = 24
| 21> end
| 22> 
| 23> 
| 24>                          ****END OF INPUT****
================================================================================

                       ****************************
                       * Single Point Calculation *
                       ****************************

---------------------------------
CARTESIAN COORDINATES (ANGSTROEM)
---------------------------------
  Au    -0.274490    1.572639   -0.000000
  Au     1.635934   -0.418177    0.000000
  Au    -0.639028   -0.815642    1.333593
  Au    -0.639028   -0.815642   -1.333593
  N     -0.639028    3.654013   -0.000000
  H     -0.235750    4.112347    0.824759
  H     -0.235750    4.112347   -0.824759
  H     -1.642949    3.866239   -0.000000

----------------------------
CARTESIAN COORDINATES (A.U.)
----------------------------
  NO LB      ZA    FRAG     MASS         X           Y           Z
   0 Au   19.0000*   0   196.966   -0.518711    2.971857   -0.000000
   1 Au   19.0000*   0   196.966    3.091467   -0.790240    0.000000
   2 Au   19.0000*   0   196.966   -1.207588   -1.541340    2.520126
   3 Au   19.0000*   0   196.966   -1.207588   -1.541340   -2.520126
   4 N     7.0000    0    14.007   -1.207588    6.905084   -0.000000
   5 H     1.0000    0     1.008   -0.445503    7.771210    1.558569
   6 H     1.0000    0     1.008   -0.445503    7.771210   -1.558569
   7 H     1.0000    0     1.008   -3.104724    7.306133   -0.000000
* core charge reduced due to ECP

--------------------------------
INTERNAL COORDINATES (ANGSTROEM)
--------------------------------
 Au     0   0   0     0.000000000000     0.00000000     0.00000000
 Au     1   0   0     2.759178900621     0.00000000     0.00000000
 Au     2   1   0     2.666814732470    61.11098622     0.00000000
 Au     2   1   3     2.666814732470    61.11098622    69.66013843
 N      1   2   3     2.113056005249   146.11470736   145.16993078
 H      5   1   2     1.026124070920   111.84933476   300.00661803
 H      5   1   2     1.026124070920   111.84933476    59.99338197
 H      5   1   2     1.026107815640   111.87061795   180.00000085

---------------------------
INTERNAL COORDINATES (A.U.)
---------------------------
 Au     0   0   0     0.000000000000     0.00000000     0.00000000
 Au     1   0   0     5.214092476668     0.00000000     0.00000000
 Au     2   1   0     5.039549494274    61.11098622     0.00000000
 Au     2   1   3     5.039549494274    61.11098622    69.66013843
 N      1   2   3     3.993097155559   146.11470736   145.16993078
 H      5   1   2     1.939093473463   111.84933476   300.00661803
 H      5   1   2     1.939093473463   111.84933476    59.99338197
 H      5   1   2     1.939062755435   111.87061795   180.00000085

---------------------
BASIS SET INFORMATION
---------------------
There are 3 groups of distinct atoms

 Group   1 Type Au  : 8s8p6d2f1g contracted to 6s5p3d2f1g pattern {311111/41111/411/11/1}
 Group   2 Type N   : 12s6p3d1f contracted to 6s3p3d1f pattern {621111/411/111/1}
 Group   3 Type H   : 5s3p1d contracted to 3s3p1d pattern {311/111/1}

Atom   0Au   basis set group =>   1
Atom   1Au   basis set group =>   1
Atom   2Au   basis set group =>   1
Atom   3Au   basis set group =>   1
Atom   4N    basis set group =>   2
Atom   5H    basis set group =>   3
Atom   6H    basis set group =>   3
Atom   7H    basis set group =>   3
---------------------------------
AUXILIARY/C BASIS SET INFORMATION
---------------------------------
There are 3 groups of distinct atoms

 Group   1 Type Au  : 9s9p8d5f4g3h1i contracted to 9s9p8d5f4g3h1i pattern {111111111/111111111/11111111/11111/1111/111/1}
 Group   2 Type N   : 9s7p6d4f1g contracted to 9s7p5d4f1g pattern {111111111/1111111/21111/1111/1}
 Group   3 Type H   : 5s4p3d1f contracted to 5s4p3d1f pattern {11111/1111/111/1}

Atom   0Au   basis set group =>   1
Atom   1Au   basis set group =>   1
Atom   2Au   basis set group =>   1
Atom   3Au   basis set group =>   1
Atom   4N    basis set group =>   2
Atom   5H    basis set group =>   3
Atom   6H    basis set group =>   3
Atom   7H    basis set group =>   3
----------------------------------
AUXILIARY/JK BASIS SET INFORMATION
----------------------------------
There are 3 groups of distinct atoms

 Group   1 Type Au  : 13s12p11d9f5g3h2i contracted to 13s11p10d8f4g3h2i pattern {1111111111111/21111111111/2111111111/21111111/2111/111/11}
 Group   2 Type N   : 14s10p6d2f1g contracted to 10s8p4d2f1g pattern {5111111111/31111111/3111/11/1}
 Group   3 Type H   : 4s2p2d contracted to 2s2p2d pattern {31/11/11}

Atom   0Au   basis set group =>   1
Atom   1Au   basis set group =>   1
Atom   2Au   basis set group =>   1
Atom   3Au   basis set group =>   1
Atom   4N    basis set group =>   2
Atom   5H    basis set group =>   3
Atom   6H    basis set group =>   3
Atom   7H    basis set group =>   3
-------------------------
ECP PARAMETER INFORMATION
-------------------------

 Group 1, Type Au ECP Def2-ECP (replacing 60 core electrons, lmax=3)

Atom   0Au   ECP group =>   1
Atom   1Au   ECP group =>   1
Atom   2Au   ECP group =>   1
Atom   3Au   ECP group =>   1



           ************************************************************
           *        Program running with 24 parallel MPI-processes    *
           *              working on a common directory               *
           ************************************************************
------------------------------------------------------------------------------
                           ORCA GTO INTEGRAL CALCULATION
                           -- RI-GTO INTEGRALS CHOSEN --
------------------------------------------------------------------------------

                         BASIS SET STATISTICS AND STARTUP INFO

Gaussian basis set:
 # of primitive gaussian shells          ...  149
 # of primitive gaussian functions       ...  449
 # of contracted shells                  ...  102
 # of contracted basis functions         ...  324
 Highest angular momentum                ...    4
 Maximum contraction depth               ...    6
Auxiliary gaussian basis set:
 # of primitive gaussian shells          ...  277
 # of primitive gaussian functions       ... 1241
 # of contracted shells                  ...  247
 # of contracted aux-basis functions     ... 1119
 Highest angular momentum                ...    6
 Maximum contraction depth               ...    5
Ratio of auxiliary to basis functions    ...  3.45
Integral package used                  ... LIBINT
 One Electron integrals                  
   ECP integrals                         ... done
 Ordering auxiliary basis shells         ... done
 Integral threshhold             Thresh  ...  1.000e-10
 Primitive cut-off               TCut    ...  1.000e-11
 Pre-screening matrix                    ... done
 Shell pair data                         ... 
 Ordering of the shell pairs             ... done (   0.001 sec) 4694 of 5253 pairs
 Determination of significant pairs      ... done (   0.000 sec)
 Creation of shell pair data             ... done (   0.000 sec)
 Storage of shell pair data              ... done (   0.014 sec)
 Shell pair data done in (   0.015 sec)
 Computing two index integrals           ... done
 Cholesky decomposition of the V-matrix  ... done


Timings:
 Total evaluation time                   ...   2.126 sec (  0.035 min)
 One electron matrix time                ...   1.494 sec (  0.025 min) = 70.3%
 Schwartz matrix evaluation time         ...   0.219 sec (  0.004 min) = 10.3%
 Two index repulsion integral time       ...   0.290 sec (  0.005 min) = 13.6%
 Cholesky decomposition of V             ...   0.058 sec (  0.001 min) =  2.7%
 Three index repulsion integral time     ...   0.000 sec (  0.000 min) =  0.0%



           ************************************************************
           *        Program running with 24 parallel MPI-processes    *
           *              working on a common directory               *
           ************************************************************
-------------------------------------------------------------------------------
                                 ORCA SCF
-------------------------------------------------------------------------------

------------
SCF SETTINGS
------------
Hamiltonian:
 Density Functional     Method          .... DFT(GTOs)
 Exchange Functional    Exchange        .... B88
   X-Alpha parameter    XAlpha          ....  0.666667
   Becke's b parameter  XBeta           ....  0.004200
 Correlation Functional Correlation     .... LYP
 LDA part of GGA corr.  LDAOpt          .... VWN-5
 Gradients option       PostSCFGGA      .... off
 Hybrid DFT is turned on
   Fraction HF Exchange ScalHFX         ....  0.710000
   Scaling of DF-GGA-X  ScalDFX         ....  0.290000
   Scaling of DF-GGA-C  ScalDFC         ....  0.540000
   Scaling of DF-LDA-C  ScalLDAC        ....  0.540000
   Perturbative correction              ....  1.000000
   Density functional embedding theory  .... OFF
 RI-approximation to the Coulomb term is turned on
   Number of auxiliary basis functions  .... 1119
   RI-JK (J+K treated both via RI)      .... on


General Settings:
 Integral files         IntName         .... Au04C2_NH3_A
 Hartree-Fock type      HFTyp           .... RHF
 Total Charge           Charge          ....    2
 Multiplicity           Mult            ....    1
 Number of Electrons    NEL             ....   84
 Basis Dimension        Dim             ....  324
 Nuclear Repulsion      ENuc            ....    541.9645160282 Eh

Convergence Acceleration:
 DIIS                   CNVDIIS         .... on
   Start iteration      DIISMaxIt       ....    12
   Startup error        DIISStart       ....  0.200000
   # of expansion vecs  DIISMaxEq       ....     5
   Bias factor          DIISBfac        ....   1.050
   Max. coefficient     DIISMaxC        ....  10.000
 Newton-Raphson         CNVNR           .... off
 SOSCF                  CNVSOSCF        .... off
 Level Shifting         CNVShift        .... on
   Level shift para.    LevelShift      ....    0.2500
   Turn off err/grad.   ShiftErr        ....    0.0010
 Zerner damping         CNVZerner       .... off
 Static damping         CNVDamp         .... on
   Fraction old density DampFac         ....    0.7000
   Max. Damping (<1)    DampMax         ....    0.9800
   Min. Damping (>=0)   DampMin         ....    0.0000
   Turn off err/grad.   DampErr         ....    0.1000
 Fernandez-Rico         CNVRico         .... off

SCF Procedure:
 Maximum # iterations   MaxIter         ....   125
 SCF integral mode      SCFMode         .... Direct
   Integral package                     .... LIBINT
 Reset frequency        DirectResetFreq ....    20
 Integral Threshold     Thresh          ....  1.000e-10 Eh
 Primitive CutOff       TCut            ....  1.000e-11 Eh

Convergence Tolerance:
 Convergence Check Mode ConvCheckMode   .... Total+1el-Energy
 Convergence forced     ConvForced      .... 0
 Energy Change          TolE            ....  1.000e-06 Eh
 1-El. energy change                    ....  1.000e-03 Eh
 DIIS Error             TolErr          ....  1.000e-06


Diagonalization of the overlap matrix:
Smallest eigenvalue                        ... 1.703e-04
Time for diagonalization                   ...    0.015 sec
Threshold for overlap eigenvalues          ... 1.000e-08
Number of eigenvalues below threshold      ... 0
Time for construction of square roots      ...    0.012 sec
Total time needed                          ...    0.028 sec

-------------------
DFT GRID GENERATION
-------------------

General Integration Accuracy     IntAcc      ...  4.670
Radial Grid Type                 RadialGrid  ... Gauss-Chebyshev
Angular Grid (max. acc.)         AngularGrid ... Lebedev-302
Angular grid pruning method      GridPruning ... 3 (G Style)
Weight generation scheme         WeightScheme... Becke
Basis function cutoff            BFCut       ...    1.0000e-10
Integration weight cutoff        WCut        ...    1.0000e-14
Grids for H and He will be reduced by one unit

# of grid points (after initial pruning)     ...  63002 (   0.0 sec)
# of grid points (after weights+screening)   ...  60968 (   0.0 sec)
nearest neighbour list constructed           ...    0.0 sec
Grid point re-assignment to atoms done       ...    0.0 sec
Grid point division into batches done        ...    0.4 sec
Reduced shell lists constructed in    0.5 sec

Total number of grid points                  ...    60968
Total number of batches                      ...      958
Average number of points per batch           ...       63
Average number of grid points per atom       ...     7621
Average number of shells per batch           ...    72.85 (71.43%)
Average number of basis functions per batch  ...   241.68 (74.59%)
Average number of large shells per batch     ...    58.78 (80.68%)
Average number of large basis fcns per batch ...   188.24 (77.89%)
Average number of aux-shells per batch       ...    72.85 (29.50%)
Average number of aux functions per batch    ...   241.68 (21.60%)
Maximum spatial batch extension              ...   3.81,  2.44,  4.04 au
Average spatial batch extension              ...   0.09,  0.08,  0.09 au

Time for grid setup =    0.582 sec

------------------------------
INITIAL GUESS: MODEL POTENTIAL
------------------------------
Loading Hartree-Fock densities                     ... done
  calling /sw/apps/orca/orca_4_2_0_linux_x86-64_openmpi314/orca Au04C2_NH3_A_atom79.inp > Au04C2_NH3_A_atom79.out in order to generate an atomic fitting density for atom 0 (Au with ECP) on-the-fly... 
    atom 0 (Au), assumed electronic state with S=2: 1s2 2s2 2p6 3s2 3p6 4s2 3d10 4p6 5s2 4d10 5p6 6s1 4f14 5d10           ... done
Calculating cut-offs                               ... done
Setting up the integral package                    ... done
Initializing the effective Hamiltonian             ... done
Starting the Coulomb interaction                   ... done (   0.0 sec)
Reading the grid                                   ... done
Mapping shells                                     ... done
Starting the XC term evaluation                    ... done (   0.0 sec)
  promolecular density results
     # of electrons  =    326.007375335
     EX              =  -1476.964680601
     EC              =     -1.989982562
     EX+EC           =  -1478.954663163
Transforming the Hamiltonian                       ... done (   0.0 sec)
Diagonalizing the Hamiltonian                      ... done (   0.0 sec)
Back transforming the eigenvectors                 ... done (   0.0 sec)
Now organizing SCF variables                       ... done
                      ------------------
                      INITIAL GUESS DONE (   1.7 sec)
                      ------------------
--------------
SCF ITERATIONS
--------------
ITER       Energy         Delta-E        Max-DP      RMS-DP      [F,P]     Damp
  0   -596.3360455926   0.000000000000 0.23880107  0.00218139  0.5527063 0.7000
  1   -596.3447708633  -0.008725270742 0.19497465  0.00182995  0.4087216 0.7000
  2   -596.4991034893  -0.154332625957 0.13865801  0.00130345  0.2845696 0.7000
                               ***Turning on DIIS***
  3   -596.6561262786  -0.157022789348 0.09905578  0.00091929  0.1970950 0.7000
  4   -596.7553981351  -0.099271856447 0.07324188  0.00067605  0.1365896 0.7000
  5   -596.8043938605  -0.048995725387 0.18299369  0.00170326  0.0948050 0.0000
  6   -596.8098051764  -0.005411315951 0.01123766  0.00015839  0.0631594 0.0000
  7   -596.8143445410  -0.004539364548 0.00682554  0.00009159  0.0245934 0.0000
  8   -596.8152731604  -0.000928619418 0.00337328  0.00004303  0.0105551 0.0000
  9   -596.8154299930  -0.000156832588 0.00215889  0.00002356  0.0025500 0.0000
 10   -596.8154569213  -0.000026928336 0.00173857  0.00001683  0.0007219 0.0000
 11   -596.8154614663  -0.000004545013 0.00089270  0.00000725  0.0003078 0.0000
 12   -596.8154621123  -0.000000645968 0.00018262  0.00000250  0.0001065 0.0000
 13   -596.8154622000  -0.000000087761 0.00016636  0.00000122  0.0000909 0.0000
                 **** Energy Check signals convergence ****

               *****************************************************
               *                     SUCCESS                       *
               *           SCF CONVERGED AFTER  14 CYCLES          *
               *****************************************************


----------------
TOTAL SCF ENERGY
----------------

Total Energy       :         -596.81546223 Eh          -16240.17436 eV

Components:
Nuclear Repulsion  :          541.96451603 Eh           14747.60423 eV
Electronic Energy  :        -1138.77997826 Eh          -30987.77860 eV
One Electron Energy:        -2084.82612413 Eh          -56731.00299 eV
Two Electron Energy:          946.04614587 Eh           25743.22439 eV

Virial components:
Potential Energy   :         -836.84081663 Eh          -22771.59631 eV
Kinetic Energy     :          240.02535440 Eh            6531.42194 eV
Virial Ratio       :            3.48646841


DFT components:
N(Alpha)           :       41.999984168925 electrons
N(Beta)            :       41.999984168925 electrons
N(Total)           :       83.999968337849 electrons
E(X)               :      -16.244432861189 Eh       
E(C)               :       -1.651991794730 Eh       
E(XC)              :      -17.896424655919 Eh       
DFET-embed. en.    :        0.000000000000 Eh       

---------------
SCF CONVERGENCE
---------------

  Last Energy change         ...   -3.0687e-08  Tolerance :   1.0000e-06
  Last MAX-Density change    ...    5.1593e-05  Tolerance :   1.0000e-05
  Last RMS-Density change    ...    6.5300e-07  Tolerance :   1.0000e-06
  Last DIIS Error            ...    1.4179e-05  Tolerance :   1.0000e-06

             **** THE GBW FILE WAS UPDATED (Au04C2_NH3_A.gbw) ****
             **** DENSITY FILE WAS UPDATED (Au04C2_NH3_A.scfp) ****
             **** ENERGY FILE WAS UPDATED (Au04C2_NH3_A.en.tmp) ****
             **** THE GBW FILE WAS UPDATED (Au04C2_NH3_A.gbw) ****
             **** DENSITY FILE WAS UPDATED (Au04C2_NH3_A.scfp) ****
----------------
ORBITAL ENERGIES
----------------

  NO   OCC          E(Eh)            E(eV) 
   0   2.0000     -15.468424      -420.9172 
   1   2.0000      -4.854369      -132.0941 
   2   2.0000      -4.853858      -132.0802 
   3   2.0000      -4.853850      -132.0800 
   4   2.0000      -4.846259      -131.8734 
   5   2.0000      -2.951945       -80.3265 
   6   2.0000      -2.945167       -80.1421 
   7   2.0000      -2.945163       -80.1420 
   8   2.0000      -2.942309       -80.0643 
   9   2.0000      -2.940750       -80.0219 
  10   2.0000      -2.940744       -80.0217 
  11   2.0000      -2.938589       -79.9631 
  12   2.0000      -2.938586       -79.9630 
  13   2.0000      -2.938286       -79.9548 
  14   2.0000      -2.934962       -79.8644 
  15   2.0000      -2.928421       -79.6864 
  16   2.0000      -2.928418       -79.6863 
  17   2.0000      -1.393559       -37.9207 
  18   2.0000      -0.923226       -25.1222 
  19   2.0000      -0.923215       -25.1220 
  20   2.0000      -0.875014       -23.8103 
  21   2.0000      -0.831033       -22.6135 
  22   2.0000      -0.812784       -22.1170 
  23   2.0000      -0.812744       -22.1159 
  24   2.0000      -0.799986       -21.7687 
  25   2.0000      -0.796498       -21.6738 
  26   2.0000      -0.796495       -21.6737 
  27   2.0000      -0.779461       -21.2102 
  28   2.0000      -0.771502       -20.9936 
  29   2.0000      -0.771501       -20.9936 
  30   2.0000      -0.738098       -20.0847 
  31   2.0000      -0.737340       -20.0641 
  32   2.0000      -0.737323       -20.0636 
  33   2.0000      -0.734953       -19.9991 
  34   2.0000      -0.734943       -19.9988 
  35   2.0000      -0.730918       -19.8893 
  36   2.0000      -0.730909       -19.8890 
  37   2.0000      -0.697122       -18.9697 
  38   2.0000      -0.695838       -18.9347 
  39   2.0000      -0.695819       -18.9342 
  40   2.0000      -0.695801       -18.9337 
  41   2.0000      -0.672308       -18.2944 
  42   0.0000      -0.369984       -10.0678 
  43   0.0000      -0.369968       -10.0673 
  44   0.0000      -0.327589        -8.9142 
  45   0.0000      -0.242719        -6.6047 
  46   0.0000      -0.231892        -6.3101 
  47   0.0000      -0.231880        -6.3098 
  48   0.0000      -0.217948        -5.9307 
  49   0.0000      -0.217947        -5.9306 
  50   0.0000      -0.205495        -5.5918 
  51   0.0000      -0.140658        -3.8275 
  52   0.0000      -0.138752        -3.7756 
  53   0.0000      -0.138747        -3.7755 
  54   0.0000      -0.119848        -3.2612 
  55   0.0000      -0.119835        -3.2609 
  56   0.0000      -0.113232        -3.0812 
  57   0.0000      -0.107777        -2.9328 
  58   0.0000      -0.089398        -2.4326 
  59   0.0000      -0.089397        -2.4326 
  60   0.0000      -0.068376        -1.8606 
  61   0.0000      -0.068346        -1.8598 
  62   0.0000      -0.045915        -1.2494 
  63   0.0000      -0.026025        -0.7082 
  64   0.0000      -0.024519        -0.6672 
  65   0.0000      -0.024508        -0.6669 
  66   0.0000      -0.017973        -0.4891 
  67   0.0000      -0.005510        -0.1499 
  68   0.0000      -0.005508        -0.1499 
  69   0.0000       0.019255         0.5240 
  70   0.0000       0.042471         1.1557 
  71   0.0000       0.042478         1.1559 
  72   0.0000       0.046705         1.2709 
  73   0.0000       0.052724         1.4347 
  74   0.0000       0.052777         1.4361 
  75   0.0000       0.083133         2.2622 
  76   0.0000       0.084081         2.2880 
  77   0.0000       0.084085         2.2881 
  78   0.0000       0.088110         2.3976 
  79   0.0000       0.097935         2.6649 
  80   0.0000       0.097942         2.6651 
  81   0.0000       0.101994         2.7754 
  82   0.0000       0.111932         3.0458 
  83   0.0000       0.120610         3.2820 
  84   0.0000       0.120621         3.2823 
  85   0.0000       0.142673         3.8823 
  86   0.0000       0.142675         3.8824 
  87   0.0000       0.146539         3.9875 
  88   0.0000       0.184126         5.0103 
  89   0.0000       0.188224         5.1218 
  90   0.0000       0.188254         5.1227 
  91   0.0000       0.211930         5.7669 
  92   0.0000       0.218409         5.9432 
  93   0.0000       0.218431         5.9438 
  94   0.0000       0.224842         6.1183 
  95   0.0000       0.224861         6.1188 
  96   0.0000       0.273047         7.4300 
  97   0.0000       0.273092         7.4312 
  98   0.0000       0.280767         7.6401 
  99   0.0000       0.284383         7.7385 
 100   0.0000       0.284407         7.7391 
 101   0.0000       0.309590         8.4244 
 102   0.0000       0.332114         9.0373 
 103   0.0000       0.332121         9.0375 
 104   0.0000       0.341967         9.3054 
 105   0.0000       0.344305         9.3690 
 106   0.0000       0.344969         9.3871 
 107   0.0000       0.344972         9.3872 
 108   0.0000       0.393929        10.7193 
 109   0.0000       0.439045        11.9470 
 110   0.0000       0.439226        11.9520 
 111   0.0000       0.487518        13.2660 
 112   0.0000       0.533360        14.5135 
 113   0.0000       0.533362        14.5135 
 114   0.0000       0.600558        16.3420 
 115   0.0000       0.603871        16.4322 
 116   0.0000       0.603918        16.4334 
 117   0.0000       0.653200        17.7745 
 118   0.0000       0.723566        19.6892 
 119   0.0000       0.746936        20.3252 
 120   0.0000       0.746959        20.3258 
 121   0.0000       0.781997        21.2792 
 122   0.0000       0.782067        21.2811 
 123   0.0000       0.799920        21.7669 
 124   0.0000       0.830587        22.6014 
 125   0.0000       0.831835        22.6354 
 126   0.0000       0.831869        22.6363 
 127   0.0000       0.875864        23.8335 
 128   0.0000       0.883328        24.0366 
 129   0.0000       0.897022        24.4092 
 130   0.0000       0.910628        24.7795 
 131   0.0000       0.910642        24.7798 
 132   0.0000       0.929377        25.2896 
 133   0.0000       0.939624        25.5685 
 134   0.0000       0.939634        25.5687 
 135   0.0000       0.952709        25.9245 
 136   0.0000       0.952719        25.9248 
 137   0.0000       0.984887        26.8001 
 138   0.0000       0.984934        26.8014 
 139   0.0000       1.005397        27.3582 
 140   0.0000       1.005405        27.3585 
 141   0.0000       1.017984        27.7008 
 142   0.0000       1.021155        27.7870 
 143   0.0000       1.024749        27.8848 
 144   0.0000       1.024758        27.8851 
 145   0.0000       1.025338        27.9009 
 146   0.0000       1.076163        29.2839 
 147   0.0000       1.076187        29.2845 
 148   0.0000       1.100102        29.9353 
 149   0.0000       1.100147        29.9365 
 150   0.0000       1.110938        30.2302 
 151   0.0000       1.147435        31.2233 
 152   0.0000       1.147439        31.2234 
 153   0.0000       1.147640        31.2289 
 154   0.0000       1.175315        31.9819 
 155   0.0000       1.175374        31.9836 
 156   0.0000       1.204569        32.7780 
 157   0.0000       1.204573        32.7781 
 158   0.0000       1.207364        32.8541 
 159   0.0000       1.235303        33.6143 
 160   0.0000       1.246664        33.9235 
 161   0.0000       1.246682        33.9239 
 162   0.0000       1.271498        34.5992 
 163   0.0000       1.292551        35.1721 
 164   0.0000       1.292575        35.1728 
 165   0.0000       1.295105        35.2416 
 166   0.0000       1.319649        35.9095 
 167   0.0000       1.326374        36.0925 
 168   0.0000       1.334233        36.3063 
 169   0.0000       1.334244        36.3066 
 170   0.0000       1.381625        37.5959 
 171   0.0000       1.381672        37.5972 
 172   0.0000       1.413806        38.4716 
 173   0.0000       1.413897        38.4741 
 174   0.0000       1.416553        38.5464 
 175   0.0000       1.426501        38.8171 
 176   0.0000       1.455201        39.5980 
 177   0.0000       1.455210        39.5983 
 178   0.0000       1.476692        40.1828 
 179   0.0000       1.476702        40.1831 
 180   0.0000       1.516566        41.2679 
 181   0.0000       1.579305        42.9751 
 182   0.0000       1.636501        44.5315 
 183   0.0000       1.636603        44.5342 
 184   0.0000       1.649461        44.8841 
 185   0.0000       1.649564        44.8869 
 186   0.0000       1.716875        46.7185 
 187   0.0000       1.717077        46.7240 
 188   0.0000       1.774971        48.2994 
 189   0.0000       1.843145        50.1545 
 190   0.0000       1.843367        50.1606 
 191   0.0000       1.884148        51.2703 
 192   0.0000       2.305590        62.7383 
 193   0.0000       2.424289        65.9683 
 194   0.0000       2.534548        68.9685 
 195   0.0000       2.534576        68.9693 
 196   0.0000       2.631242        71.5997 
 197   0.0000       2.686065        73.0915 
 198   0.0000       2.715160        73.8833 
 199   0.0000       2.715330        73.8879 
 200   0.0000       2.825168        76.8767 
 201   0.0000       2.838629        77.2430 
 202   0.0000       2.838637        77.2432 
 203   0.0000       3.087972        84.0280 
 204   0.0000       3.149662        85.7067 
 205   0.0000       3.165516        86.1381 
 206   0.0000       3.165519        86.1381 
 207   0.0000       3.240302        88.1731 
 208   0.0000       3.240357        88.1746 
 209   0.0000       3.333990        90.7225 
 210   0.0000       3.371218        91.7355 
 211   0.0000       3.371228        91.7358 
 212   0.0000       3.383183        92.0611 
 213   0.0000       3.417044        92.9825 
 214   0.0000       3.417056        92.9828 
 215   0.0000       3.452975        93.9602 
 216   0.0000       3.508793        95.4791 
 217   0.0000       3.509381        95.4951 
 218   0.0000       3.509416        95.4961 
 219   0.0000       3.540182        96.3332 
 220   0.0000       3.563494        96.9676 
 221   0.0000       3.563583        96.9700 
 222   0.0000       3.571744        97.1921 
 223   0.0000       3.571801        97.1937 
 224   0.0000       3.585724        97.5725 
 225   0.0000       3.601800        98.0100 
 226   0.0000       3.671815        99.9152 
 227   0.0000       3.671885        99.9171 
 228   0.0000       3.716847       101.1405 
 229   0.0000       3.726287       101.3974 
 230   0.0000       3.726411       101.4008 
 231   0.0000       3.747683       101.9797 
 232   0.0000       3.747741       101.9812 
 233   0.0000       3.777037       102.7784 
 234   0.0000       3.811267       103.7099 
 235   0.0000       3.811387       103.7131 
 236   0.0000       3.824137       104.0600 
 237   0.0000       3.838472       104.4501 
 238   0.0000       3.838477       104.4503 
 239   0.0000       3.864856       105.1681 
 240   0.0000       3.894461       105.9737 
 241   0.0000       3.907700       106.3339 
 242   0.0000       3.907777       106.3360 
 243   0.0000       3.917630       106.6041 
 244   0.0000       3.917648       106.6046 
 245   0.0000       4.015088       109.2561 
 246   0.0000       4.022282       109.4519 
 247   0.0000       4.022361       109.4540 
 248   0.0000       4.047496       110.1380 
 249   0.0000       4.047585       110.1404 
 250   0.0000       4.048816       110.1739 
 251   0.0000       4.051794       110.2549 
 252   0.0000       4.051893       110.2576 
 253   0.0000       4.052510       110.2744 
 254   0.0000       4.056865       110.3929 
 255   0.0000       4.058437       110.4357 
 256   0.0000       4.058478       110.4368 
 257   0.0000       4.059402       110.4619 
 258   0.0000       4.059423       110.4625 
 259   0.0000       4.059611       110.4676 
 260   0.0000       4.063086       110.5622 
 261   0.0000       4.070013       110.7507 
 262   0.0000       4.070075       110.7524 
 263   0.0000       4.072355       110.8144 
 264   0.0000       4.079311       111.0037 
 265   0.0000       4.079369       111.0053 
 266   0.0000       4.081384       111.0601 
 267   0.0000       4.093832       111.3988 
 268   0.0000       4.093922       111.4013 
 269   0.0000       4.095568       111.4461 
 270   0.0000       4.097793       111.5066 
 271   0.0000       4.100847       111.5897 
 272   0.0000       4.100930       111.5920 
 273   0.0000       4.118973       112.0830 
 274   0.0000       4.119044       112.0849 
 275   0.0000       4.147886       112.8697 
 276   0.0000       4.173794       113.5747 
 277   0.0000       4.173912       113.5779 
 278   0.0000       4.181052       113.7722 
 279   0.0000       4.256154       115.8158 
 280   0.0000       4.256426       115.8232 
 281   0.0000       4.314913       117.4147 
 282   0.0000       4.315499       117.4307 
 283   0.0000       4.363959       118.7494 
 284   0.0000       4.363987       118.7501 
 285   0.0000       4.422997       120.3559 
 286   0.0000       4.433774       120.6491 
 287   0.0000       4.433797       120.6498 
 288   0.0000       4.877616       132.7267 
 289   0.0000       4.877636       132.7272 
 290   0.0000       5.004673       136.1841 
 291   0.0000       5.136617       139.7745 
 292   0.0000       5.136644       139.7752 
 293   0.0000       5.243545       142.6841 
 294   0.0000       5.581725       151.8865 
 295   0.0000       5.725926       155.8104 
 296   0.0000       5.725970       155.8116 
 297   0.0000       5.810922       158.1232 
 298   0.0000       5.919067       161.0660 
 299   0.0000       5.919147       161.0682 
 300   0.0000       6.444097       175.3528 
 301   0.0000       6.614968       180.0024 
 302   0.0000       6.615099       180.0060 
 303   0.0000      27.389528       745.3069 
 304   0.0000      27.389531       745.3070 
 305   0.0000      27.632450       751.9172 
 306   0.0000      27.632690       751.9237 
 307   0.0000      27.715036       754.1645 
 308   0.0000      28.697156       780.8893 
 309   0.0000      28.809293       783.9407 
 310   0.0000      28.810058       783.9615 
 311   0.0000      28.987251       788.7832 
 312   0.0000      29.687504       807.8381 
 313   0.0000      29.689155       807.8830 
 314   0.0000      31.292172       851.5033 
 315   0.0000      33.377364       908.2442 
 316   0.0000      44.049025      1198.6349 
 317   0.0000      44.479234      1210.3415 
 318   0.0000      44.479480      1210.3482 
 319   0.0000      44.618687      1214.1362 
 320   0.0000     203.107902      5526.8470 
 321   0.0000     203.297070      5531.9945 
 322   0.0000     203.297167      5531.9972 
 323   0.0000     203.353809      5533.5384 

                    ********************************
                    * MULLIKEN POPULATION ANALYSIS *
                    ********************************

-----------------------
MULLIKEN ATOMIC CHARGES
-----------------------
   0 Au:    0.293111
   1 Au:    0.449709
   2 Au:    0.449992
   3 Au:    0.450008
   4 N :   -0.390372
   5 H :    0.249176
   6 H :    0.249173
   7 H :    0.249203
Sum of atomic charges:    2.0000000

--------------------------------
MULLIKEN REDUCED ORBITAL CHARGES
--------------------------------
  0 Aus       :     2.755260  s :     2.755260
      pz      :     2.015216  p :     6.170667
      px      :     2.018931
      py      :     2.136521
      dz2     :     1.963406  d :     9.763187
      dxz     :     1.994048
      dyz     :     1.945734
      dx2y2   :     1.909920
      dxy     :     1.950079
      f0      :     0.001322  f :     0.017470
      f+1     :     0.000502
      f-1     :     0.003777
      f+2     :     0.002162
      f-2     :     0.001169
      f+3     :     0.003443
      f-3     :     0.005094
      g0      :     0.000027  g :     0.000305
      g+1     :     0.000004
      g-1     :     0.000032
      g+2     :     0.000047
      g-2     :     0.000016
      g+3     :     0.000018
      g-3     :     0.000030
      g+4     :     0.000071
      g-4     :     0.000060
  1 Aus       :     2.555641  s :     2.555641
      pz      :     2.016795  p :     6.130267
      px      :     2.095046
      py      :     2.018426
      dz2     :     1.985973  d :     9.853902
      dxz     :     1.944721
      dyz     :     1.992462
      dx2y2   :     1.968715
      dxy     :     1.962031
      f0      :     0.001030  f :     0.010326
      f+1     :     0.001878
      f-1     :     0.000423
      f+2     :     0.001766
      f-2     :     0.001513
      f+3     :     0.001872
      f-3     :     0.001843
      g0      :     0.000012  g :     0.000157
      g+1     :     0.000021
      g-1     :     0.000004
      g+2     :     0.000018
      g-2     :     0.000010
      g+3     :     0.000024
      g-3     :     0.000021
      g+4     :     0.000023
      g-4     :     0.000023
  2 Aus       :     2.555311  s :     2.555311
      pz      :     2.071850  p :     6.130217
      px      :     2.031395
      py      :     2.026972
      dz2     :     1.951668  d :     9.854006
      dxz     :     1.971386
      dyz     :     1.974617
      dx2y2   :     1.967093
      dxy     :     1.989242
      f0      :     0.002291  f :     0.010317
      f+1     :     0.001808
      f-1     :     0.001644
      f+2     :     0.001551
      f-2     :     0.001020
      f+3     :     0.000984
      f-3     :     0.001018
      g0      :     0.000033  g :     0.000156
      g+1     :     0.000024
      g-1     :     0.000022
      g+2     :     0.000017
      g-2     :     0.000007
      g+3     :     0.000017
      g-3     :     0.000016
      g+4     :     0.000010
      g-4     :     0.000010
  3 Aus       :     2.555301  s :     2.555301
      pz      :     2.071846  p :     6.130212
      px      :     2.031394
      py      :     2.026972
      dz2     :     1.951668  d :     9.854006
      dxz     :     1.971386
      dyz     :     1.974617
      dx2y2   :     1.967093
      dxy     :     1.989242
      f0      :     0.002291  f :     0.010317
      f+1     :     0.001808
      f-1     :     0.001644
      f+2     :     0.001551
      f-2     :     0.001020
      f+3     :     0.000984
      f-3     :     0.001018
      g0      :     0.000033  g :     0.000156
      g+1     :     0.000024
      g-1     :     0.000022
      g+2     :     0.000017
      g-2     :     0.000007
      g+3     :     0.000017
      g-3     :     0.000016
      g+4     :     0.000010
      g-4     :     0.000010
  4 N s       :     3.346570  s :     3.346570
      pz      :     1.255576  p :     4.008102
      px      :     1.262741
      py      :     1.489785
      dz2     :     0.007645  d :     0.034844
      dxz     :     0.008147
      dyz     :     0.007888
      dx2y2   :     0.005665
      dxy     :     0.005499
      f0      :     0.000051  f :     0.000857
      f+1     :     0.000165
      f-1     :     0.000188
      f+2     :     0.000058
      f-2     :    -0.000005
      f+3     :     0.000222
      f-3     :     0.000178
  5 H s       :     0.674859  s :     0.674859
      pz      :     0.031194  p :     0.071231
      px      :     0.018799
      py      :     0.021237
      dz2     :     0.001396  d :     0.004734
      dxz     :     0.001095
      dyz     :     0.001225
      dx2y2   :     0.000626
      dxy     :     0.000393
  6 H s       :     0.674862  s :     0.674862
      pz      :     0.031194  p :     0.071231
      px      :     0.018799
      py      :     0.021238
      dz2     :     0.001396  d :     0.004734
      dxz     :     0.001095
      dyz     :     0.001225
      dx2y2   :     0.000626
      dxy     :     0.000393
  7 H s       :     0.674832  s :     0.674832
      pz      :     0.015289  p :     0.071230
      px      :     0.039493
      py      :     0.016449
      dz2     :     0.000454  d :     0.004735
      dxz     :     0.001234
      dyz     :     0.000014
      dx2y2   :     0.001467
      dxy     :     0.001565


                     *******************************
                     * LOEWDIN POPULATION ANALYSIS *
                     *******************************

----------------------
LOEWDIN ATOMIC CHARGES
----------------------
   0 Au:    0.413425
   1 Au:    0.463318
   2 Au:    0.463382
   3 Au:    0.463382
   4 N :    0.388448
   5 H :   -0.063986
   6 H :   -0.063986
   7 H :   -0.063984

-------------------------------
LOEWDIN REDUCED ORBITAL CHARGES
-------------------------------
  0 Aus       :     2.365236  s :     2.365236
      pz      :     2.030772  p :     6.416520
      px      :     2.040400
      py      :     2.345348
      dz2     :     1.964485  d :     9.769805
      dxz     :     1.986768
      dyz     :     1.948674
      dx2y2   :     1.922624
      dxy     :     1.947255
      f0      :     0.002611  f :     0.034464
      f+1     :     0.001056
      f-1     :     0.007342
      f+2     :     0.004383
      f-2     :     0.001823
      f+3     :     0.006728
      f-3     :     0.010522
      g0      :     0.000051  g :     0.000549
      g+1     :     0.000006
      g-1     :     0.000053
      g+2     :     0.000094
      g-2     :     0.000025
      g+3     :     0.000027
      g-3     :     0.000048
      g+4     :     0.000133
      g-4     :     0.000113
  1 Aus       :     2.376939  s :     2.376939
      pz      :     2.033996  p :     6.236756
      px      :     2.155463
      py      :     2.047298
      dz2     :     1.987864  d :     9.903702
      dxz     :     1.964341
      dyz     :     1.992088
      dx2y2   :     1.987509
      dxy     :     1.971900
      f0      :     0.002148  f :     0.019047
      f+1     :     0.002890
      f-1     :     0.000717
      f+2     :     0.003979
      f-2     :     0.002419
      f+3     :     0.003790
      f-3     :     0.003105
      g0      :     0.000018  g :     0.000237
      g+1     :     0.000034
      g-1     :     0.000006
      g+2     :     0.000025
      g-2     :     0.000015
      g+3     :     0.000043
      g-3     :     0.000030
      g+4     :     0.000035
      g-4     :     0.000031
  2 Aus       :     2.376796  s :     2.376796
      pz      :     2.120038  p :     6.236746
      px      :     2.057658
      py      :     2.059050
      dz2     :     1.973107  d :     9.903807
      dxz     :     1.980428
      dyz     :     1.978451
      dx2y2   :     1.982703
      dxy     :     1.989119
      f0      :     0.005243  f :     0.019032
      f+1     :     0.002712
      f-1     :     0.002496
      f+2     :     0.003370
      f-2     :     0.001564
      f+3     :     0.001769
      f-3     :     0.001877
      g0      :     0.000057  g :     0.000237
      g+1     :     0.000034
      g-1     :     0.000031
      g+2     :     0.000025
      g-2     :     0.000008
      g+3     :     0.000026
      g-3     :     0.000025
      g+4     :     0.000015
      g-4     :     0.000016
  3 Aus       :     2.376796  s :     2.376796
      pz      :     2.120038  p :     6.236746
      px      :     2.057658
      py      :     2.059050
      dz2     :     1.973107  d :     9.903807
      dxz     :     1.980428
      dyz     :     1.978451
      dx2y2   :     1.982703
      dxy     :     1.989119
      f0      :     0.005243  f :     0.019032
      f+1     :     0.002712
      f-1     :     0.002496
      f+2     :     0.003370
      f-2     :     0.001564
      f+3     :     0.001769
      f-3     :     0.001877
      g0      :     0.000057  g :     0.000237
      g+1     :     0.000034
      g-1     :     0.000031
      g+2     :     0.000025
      g-2     :     0.000008
      g+3     :     0.000026
      g-3     :     0.000025
      g+4     :     0.000015
      g-4     :     0.000016
  4 N s       :     2.872520  s :     2.872520
      pz      :     1.112655  p :     3.478421
      px      :     1.116827
      py      :     1.248939
      dz2     :     0.050369  d :     0.251911
      dxz     :     0.031457
      dyz     :     0.053378
      dx2y2   :     0.076511
      dxy     :     0.040197
      f0      :     0.000169  f :     0.008700
      f+1     :     0.001776
      f-1     :     0.002029
      f+2     :     0.000482
      f-2     :     0.002067
      f+3     :     0.000962
      f-3     :     0.001214
  5 H s       :     0.631633  s :     0.631633
      pz      :     0.136302  p :     0.376590
      px      :     0.096238
      py      :     0.144050
      dz2     :     0.015917  d :     0.055763
      dxz     :     0.012434
      dyz     :     0.014802
      dx2y2   :     0.007064
      dxy     :     0.005546
  6 H s       :     0.631633  s :     0.631633
      pz      :     0.136302  p :     0.376590
      px      :     0.096238
      py      :     0.144050
      dz2     :     0.015917  d :     0.055763
      dxz     :     0.012434
      dyz     :     0.014802
      dx2y2   :     0.007064
      dxy     :     0.005546
  7 H s       :     0.631636  s :     0.631636
      pz      :     0.082481  p :     0.376583
      px      :     0.164528
      py      :     0.129575
      dz2     :     0.005021  d :     0.055765
      dxz     :     0.016115
      dyz     :     0.000529
      dx2y2   :     0.014542
      dxy     :     0.019558


                      *****************************
                      * MAYER POPULATION ANALYSIS *
                      *****************************

  NA   - Mulliken gross atomic population
  ZA   - Total nuclear charge
  QA   - Mulliken gross atomic charge
  VA   - Mayer's total valence
  BVA  - Mayer's bonded valence
  FA   - Mayer's free valence

  ATOM       NA         ZA         QA         VA         BVA        FA
  0 Au    18.7069    19.0000     0.2931     1.5513     1.5513    -0.0000
  1 Au    18.5503    19.0000     0.4497     1.1780     1.1780    -0.0000
  2 Au    18.5500    19.0000     0.4500     1.1774     1.1774     0.0000
  3 Au    18.5500    19.0000     0.4500     1.1774     1.1774     0.0000
  4 N      7.3904     7.0000    -0.3904     3.5374     3.5374    -0.0000
  5 H      0.7508     1.0000     0.2492     1.0136     1.0136    -0.0000
  6 H      0.7508     1.0000     0.2492     1.0136     1.0136    -0.0000
  7 H      0.7508     1.0000     0.2492     1.0136     1.0136    -0.0000

  Mayer bond orders larger than 0.100000
B(  0-Au,  1-Au) :   0.3010 B(  0-Au,  2-Au) :   0.3008 B(  0-Au,  3-Au) :   0.3008 
B(  0-Au,  4-N ) :   0.6180 B(  1-Au,  2-Au) :   0.4329 B(  1-Au,  3-Au) :   0.4329 
B(  2-Au,  3-Au) :   0.4326 B(  4-N ,  5-H ) :   0.9608 B(  4-N ,  6-H ) :   0.9608 
B(  4-N ,  7-H ) :   0.9607 

-------
TIMINGS
-------

Total SCF time: 0 days 0 hours 0 min 13 sec 

Total time                  ....      13.109 sec
Sum of individual times     ....      12.893 sec  ( 98.4%)

Fock matrix formation       ....      10.751 sec  ( 82.0%)
  XC integration            ....       1.188 sec  ( 11.1% of F)
    Basis function eval.    ....       0.181 sec  ( 15.3% of XC)
    Density eval.           ....       0.170 sec  ( 14.3% of XC)
    XC-Functional eval.     ....       0.031 sec  (  2.6% of XC)
    XC-Potential eval.      ....       0.269 sec  ( 22.6% of XC)
Diagonalization             ....       0.269 sec  (  2.0%)
Density matrix formation    ....       0.030 sec  (  0.2%)
Population analysis         ....       0.017 sec  (  0.1%)
Initial guess               ....       1.093 sec  (  8.3%)
Orbital Transformation      ....       0.000 sec  (  0.0%)
Orbital Orthonormalization  ....       0.000 sec  (  0.0%)
DIIS solution               ....       0.151 sec  (  1.2%)
Grid generation             ....       0.582 sec  (  4.4%)


           ************************************************************
           *        Program running with 24 parallel MPI-processes    *
           *              working on a common directory               *
           ************************************************************

------------------------------------------------------------------------------
                                ORCA  MP2 
------------------------------------------------------------------------------

Freezing NCore=2 chemical core electrons

-------------
RI-MP2 ENERGY
-------------
Dimension of the basis                    ...  324
Memory devoted to MP2                     ... 5000 MB   
Data format for buffers                   ... DOUBLE
Compression type for matrix containers    ... UNCOMPRESSED
Scaling for aa/bb pairs                   ...   4.000e-01
Scaling for ab pairs                      ...   4.700e-01
Overall scaling of the MP2 energy         ...   1.000e+00
Calculating two index integrals           ... done (    0.023 sec)
Cholesky decomposition of V**-1           ... done (    0.072 sec)

-----------------
RI-TRANSFORMATION (AUX index driven)
-----------------

Dimension of the orbital-basis         ... 324
Dimension of the aux-basis             ... 981
Transformation of internal/external MOs...    1-  41 to   42- 323
Number Format for Storage              ... Double (8 Byte)
Integral mode                          ... Direct

First Phase: integral generation and transformation of MO indices
  Aux angular momentum 0               ... done (    0.008 sec)
  Aux angular momentum 1               ... done (    0.017 sec)
  Aux angular momentum 2               ... done (    0.020 sec)
  Aux angular momentum 3               ... done (    0.027 sec)
  Aux angular momentum 4               ... done (    0.019 sec)
  Aux angular momentum 5               ... done (    0.026 sec)
  Aux angular momentum 6               ... done (    0.035 sec)
Closing buffer VIA ( 0.08 GB; CompressionRatio= 1.00)
  Phase 1 completed in     0.230 sec
Second Phase: sorting and transformation of aux index

IA-Transformation
Memory available                       ... 4985 MB 
Max. # MO pairs treated in a batch     ... 2    
# of internal orbitals                 ... 41
# batches for internal orbitals        ... 1
Closing buffer IAV ( 0.00 GB; CompressionRatio= 1.00)
(ia|v) transformation done in     0.052 sec

  Phase 2 completed in     0.135 sec
RI-Integral transformation completed in     0.367 sec
Opening buffers                              ... done

Starting loop over batches of integrals:

Operator 0  - window                       ... (  1- 41)x( 42-323)
Operator 0  - Memory available             ...  5000 MB
Operator 0  - Memory needed per MO         ...   2.1 MB
Operator 0  - Number of orbitals per batch ... 2
Operator 0  - Number of batches            ... 1

OPERATOR  0   PASS   0:  MOs     1 ...    2 +    3 ...    4 +    5 ...    6 +    7 ...    8
                            +    9 ...   10 +   11 ...   12 +   13 ...   14 +   15 ...   16
                            +   17 ...   18 +   19 ...   20 +   21 ...   22 +   23 ...   24
                            +   25 ...   26 +   27 ...   28 +   29 ...   30 +   31 ...   32
                            +   33 ...   34 +   35 ...   36 +   37 ...   38 +   39 ...   40
                            +   41 ...   41
  Reading integrals       ... ok
Time spent in pair loops =     0.028 sec
Deleting buffer (Ka|jb)[aa] ...done

-----------------------------------------------
 RI-MP2 CORRELATION ENERGY:     -1.312562205 Eh
-----------------------------------------------


-------
TIMINGS
-------

Total time                :    0.807 sec
Integral trafo            :    0.374 sec ( 46.4%)
I/O of integrals          :    0.004 sec (  0.5%)
K(i,j) Operators          :    0.015 sec (  1.9%)
T(i,j) pair energies      :    0.002 sec (  0.3%)
V-calculation             :    0.023 sec (  2.9%)
V**(-1/2)                 :    0.072 sec (  8.9%)
Gamma(ia|P)               :    0.000 sec (  0.0%)
Gamma-Trafo               :    0.000 sec (  0.0%)
D(virtual)                :    0.000 sec (  0.0%)
D(internal)               :    0.000 sec (  0.0%)
W(virtual)                :    0.000 sec (  0.0%)
W(internal)               :    0.000 sec (  0.0%)
L(virtual)                :    0.000 sec (  0.0%)
L(internal)               :    0.000 sec (  0.0%)
G(D)                      :    0.000 sec (  0.0%)
G(Z)                      :    0.000 sec (  0.0%)
Z-Vector Solution         :    0.000 sec (  0.0%)
Z-Vector Solution         :    0.000 sec (  0.0%)
3-Index Derivative 
+ Separable RIJ part      :    0.000 sec (  0.0%)
2-Index Derivative 
+ Separable RIJ part      :    0.000 sec (  0.0%)
Separable Gradient (X)    :    0.000 sec (  0.0%)


---------------------------------------
MP2 TOTAL ENERGY:     -598.128024436 Eh
---------------------------------------


-------------------------------------------------------------------------------
                          DFT DISPERSION CORRECTION                            
                                                                               
                              DFTD3 V3.1  Rev 1                                
                          USING Becke-Johnson damping                          
-------------------------------------------------------------------------------
The DSD-BLYP/2013 functional is recognized
Active option DFTDOPT                   ...         4   

molecular C6(AA) [au] = 6452.660513 


            DFT-D V3
 parameters
 s6 scaling factor         :     0.5700 
 a1 scaling factor         :     0.0000 
 s8 scaling factor         :     0.0000 
 a2 scaling factor         :     5.4000 
 ad hoc parameters k1-k3   :    16.0000     1.3333    -4.0000 

 Edisp/kcal,au: -18.196684907154  -0.028998260135 
 E6   /kcal   : -18.196684907 
 E8   /kcal   :  -0.000000000 
 % E8         :   0.000000000 

-------------------------   ----------------
Dispersion correction           -0.028998260
-------------------------   ----------------


-------------------------   --------------------
FINAL SINGLE POINT ENERGY      -598.157022695689
-------------------------   --------------------


                            ***************************************
                            *     ORCA property calculations      *
                            ***************************************


  WARNING: The energy has been calculated at the MP2 level but the densities
           used in the property calculations are still SCF densities
           MP2 response densities have not been calculated 
           use %mp2 Density relaxed end
           or  %mp2 Density unrelaxed end

                                    ---------------------
                                    Active property flags
                                    ---------------------
   (+) Dipole Moment


------------------------------------------------------------------------------
                       ORCA ELECTRIC PROPERTIES CALCULATION
------------------------------------------------------------------------------

Dipole Moment Calculation                       ... on
Quadrupole Moment Calculation                   ... off
Polarizability Calculation                      ... off
GBWName                                         ... Au04C2_NH3_A.gbw
Electron density file                           ... Au04C2_NH3_A.scfp
The origin for moment calculation is the CENTER OF MASS  = ( 0.012543, -0.071721  0.000000)

-------------
DIPOLE MOMENT
-------------
                                X             Y             Z
Electronic contribution:     10.12695     -57.90962      -0.00000
Nuclear contribution   :    -10.53350      60.23199       0.00000
                        -----------------------------------------
Total Dipole Moment    :     -0.40655       2.32237      -0.00000
                        -----------------------------------------
Magnitude (a.u.)       :      2.35768
Magnitude (Debye)      :      5.99276



--------------------
Rotational spectrum 
--------------------
 
Rotational constants in cm-1:     0.012010     0.009744     0.009743 
Rotational constants in MHz :   360.039216   292.121240   292.077350 

 Dipole components along the rotational axes: 
x,y,z [a.u.] :    -2.357684    -0.000000     0.001288 
x,y,z [Debye]:    -5.992756    -0.000000     0.003275 

 

Timings for individual modules:

Sum of individual times         ...       17.241 sec (=   0.287 min)
GTO integral calculation        ...        2.481 sec (=   0.041 min)  14.4 %
SCF iterations                  ...       13.427 sec (=   0.224 min)  77.9 %
MP2 module                      ...        1.333 sec (=   0.022 min)   7.7 %
                             ****ORCA TERMINATED NORMALLY****
TOTAL RUN TIME: 0 days 0 hours 0 minutes 17 seconds 741 msec
