
                                 *****************
                                 * O   R   C   A *
                                 *****************

           --- An Ab Initio, DFT and Semiempirical electronic structure package ---

                  #######################################################
                  #                        -***-                        #
                  #          Department of theory and spectroscopy      #
                  #               Directorship: Frank Neese             #
                  #        Max Planck Institute fuer Kohlenforschung    #
                  #                Kaiser Wilhelm Platz 1               #
                  #                 D-45470 Muelheim/Ruhr               #
                  #                      Germany                        #
                  #                                                     #
                  #                  All rights reserved                #
                  #                        -***-                        #
                  #######################################################


                         Program Version 4.2.0 -  RELEASE  -


 With contributions from (in alphabetic order):
   Daniel Aravena         : Magnetic Suceptibility
   Michael Atanasov       : Ab Initio Ligand Field Theory (pilot matlab implementation)
   Alexander A. Auer      : GIAO ZORA, VPT2
   Ute Becker             : Parallelization
   Giovanni Bistoni       : ED, misc. LED, open-shell LED, HFLED
   Martin Brehm           : Molecular dynamics
   Dmytro Bykov           : SCF Hessian
   Vijay G. Chilkuri      : MRCI spin determinant printing, contributions to CSF-ICE
   Dipayan Datta          : RHF DLPNO-CCSD density
   Achintya Kumar Dutta   : EOM-CC, STEOM-CC
   Dmitry Ganyushin       : Spin-Orbit,Spin-Spin,Magnetic field MRCI
   Miquel Garcia          : C-PCM Hessian, Gaussian charge scheme
   Yang Guo               : DLPNO-NEVPT2, CIM, IAO-localization
   Andreas Hansen         : Spin unrestricted coupled pair/coupled cluster methods
   Benjamin Helmich-Paris : CASSCF linear response (MC-RPA)
   Lee Huntington         : MR-EOM, pCC
   Robert Izsak           : Overlap fitted RIJCOSX, COSX-SCS-MP3, EOM
   Christian Kollmar      : KDIIS, OOCD, Brueckner-CCSD(T), CCSD density
   Simone Kossmann        : Meta GGA functionals, TD-DFT gradient, OOMP2, MP2 Hessian
   Martin Krupicka        : AUTO-CI
   Lucas Lang             : DCDCAS
   Dagmar Lenk            : GEPOL surface, SMD
   Dimitrios Liakos       : Extrapolation schemes; Compound Job, initial MDCI parallelization
   Dimitrios Manganas     : Further ROCIS development; embedding schemes
   Dimitrios Pantazis     : SARC Basis sets
   Taras Petrenko         : DFT Hessian,TD-DFT gradient, ASA, ECA, R-Raman, ABS, FL, XAS/XES, NRVS
   Peter Pinski           : DLPNO-MP2, DLPNO-MP2 Gradient
   Christoph Reimann      : Effective Core Potentials
   Marius Retegan         : Local ZFS, SOC
   Christoph Riplinger    : Optimizer, TS searches, QM/MM, DLPNO-CCSD(T), (RO)-DLPNO pert. Triples
   Tobias Risthaus        : Range-separated hybrids, TD-DFT gradient, RPA, STAB
   Michael Roemelt        : Original ROCIS implementation
   Masaaki Saitow         : Open-shell DLPNO-CCSD energy and density
   Barbara Sandhoefer     : DKH picture change effects
   Avijit Sen             : IP-ROCIS
   Kantharuban Sivalingam : CASSCF convergence, NEVPT2, FIC-MRCI
   Bernardo de Souza      : ESD, SOC TD-DFT
   Georgi Stoychev        : AutoAux, RI-MP2 NMR
   Willem Van den Heuvel  : Paramagnetic NMR
   Boris Wezisla          : Elementary symmetry handling
   Frank Wennmohs         : Technical directorship


 We gratefully acknowledge several colleagues who have allowed us to
 interface, adapt or use parts of their codes:
   Stefan Grimme, W. Hujo, H. Kruse,             : VdW corrections, initial TS optimization,
                  C. Bannwarth                     DFT functionals, gCP, sTDA/sTD-DF
   Ed Valeev, F. Pavosevic, A. Kumar             : LibInt (2-el integral package), F12 methods
   Garnet Chan, S. Sharma, J. Yang, R. Olivares  : DMRG
   Ulf Ekstrom                                   : XCFun DFT Library
   Mihaly Kallay                                 : mrcc  (arbitrary order and MRCC methods)
   Andreas Klamt, Michael Diedenhofen            : otool_cosmo (COSMO solvation model)
   Jiri Pittner, Ondrej Demel                    : Mk-CCSD
   Frank Weinhold                                : gennbo (NPA and NBO analysis)
   Christopher J. Cramer and Donald G. Truhlar   : smd solvation model
   Lars Goerigk                                  : TD-DFT with DH, B97 family of functionals
   V. Asgeirsson, H. Jonsson                     : NEB implementation
   FAccTs GmbH                                   : IRC, NEB, NEB-TS, Multilevel, MM, QM/MM, CI optimization
   S Lehtola, MJT Oliveira, MAL Marques          : LibXC Library


 Your calculation uses the libint2 library for the computation of 2-el integrals
 For citations please refer to: http://libint.valeyev.net

 Your ORCA version has been built with support for libXC version: 4.2.3
 For citations please refer to: https://tddft.org/programs/libxc/

 This ORCA versions uses:
   CBLAS   interface :  Fast vector & matrix operations
   LAPACKE interface :  Fast linear algebra routines
   SCALAPACK package :  Parallel linear algebra routines


Your calculation utilizes the atom-pairwise dispersion correction
with the Becke-Johnson damping scheme (D3BJ)
Cite in your paper:
S.Grimme, S.Ehrlich, L.Goerigk, J Comput Chem, (2011), 32, 1456–1465 
S.Grimme, J.Antony, S.Ehrlich and H.Krieg, J.Chem.Phys., 132, (2010), 154104 
   

----- Orbital basis set information -----
Your calculation utilizes the basis: def2-TZVPPD
   F. Weigend and R. Ahlrichs, Phys. Chem. Chem. Phys. 7, 3297 (2005).
   D. Rappoport and F. Furche, J. Chem. Phys. 133 134105 (2010).

----- AuxC basis set information -----
Your calculation utilizes the auxiliary basis: def2-TZVPPD/C
   A. Hellweg, C. Hattig, S. Hofener and W. Klopper, Theor. Chem. Acc. 117, 587 (2007).

----- AuxJK basis set information -----
Your calculation utilizes the auxiliary basis: def2/JK
   H-Ba, Hf-Rn: F. Weigend, J. Comput. Chem. 29, 167 (2008).

cite the ECPs for Au [Def2-ECP] as follows:
Ce-Yb(ecp-28): M. Dolg, H. Stoll, H.Preuss, J. Chem. Phys., 1989, 90, 1730-1734.
Y-Cd(ecp-28), Hf-Hg(ecp-46): D. Andrae,U. Haeussermann, M. Dolg, H. Stoll, H. Preuss, Theor. Chim. Acta, 1990, 77, 123-141.
In-Sb(ecp-28), Tl-Bi(ecp-46): B. Metz, H. Stoll, M. Dolg, J. Chem. Phys., 2000, 113, 2563-2569.
Te-Xe(ecp-28), Po-Rn(ecp-46): K. A. Peterson, D. Figgen, E. Goll, H. Stoll, M. Dolg, J. Chem. Phys., 2003, 119, 11113-11123.
Rb(ecp-28), Cs(ecp-46): T. Leininger, A. Nicklass, W. Kuechle, H. Stoll, M. Dolg, A. Bergner, Chem. Phys. Lett., 1996, 255, 274-280.
Sr(ecp-28), Ba(ecp-46): M. Kaupp, P. V. Schleyer, H. Stoll and H. Preuss, J. Chem. Phys., 1991, 94, 1360-1366.
La(ecp-46): M. Dolg, H. Stoll, A. Savin, H. Preuss, Theor. Chim. Acta, 1989, 75, 173-194.
Lu(ecp-28): X. Cao, M. Dolg, J. Chem. Phys., 2001, 115, 7348-7355.

ECP parameters for Au [Def2-ECP] have been obtained from:
TURBOMOLE (7.0.2)

================================================================================
                                        WARNINGS
                       Please study these warnings very carefully!
================================================================================


WARNING: No MP2 level density has been requested!
         To caclulate MP2 level properties use
         %mp2 Density relaxed end
         or
         %mp2 Density unrelaxed end
         Otherwise for double-hybrid DFT only the energy is correct!

WARNING: There are different parametrizations of Gershom Martin's DSD-DFs
         for use with and without D3(BJ)!
         You are using the D3(BJ) parametrized version,
         consistent with the 2013 article (S. Kozuch and J. M. L. Martin, JCC 2013, 34, 2327)

WARNING: The frozen-core approximation is turned on by default for 
         the MP2 part of double-hybrid DFT.

INFO   : the flag for use of LIBINT has been found!

================================================================================
                                       INPUT FILE
================================================================================
NAME = Au04N0.in
|  1> #
|  2> # Au04N0 ri-DSD-BLYP/2013-D3BJ/Def2-TZVPPD
|  3> #
|  4> ! rijk ri-dsd-blyp/2013 d3bj def2-tzvppd def2/jk def2-tzvppd/c grid4 nofinalgrid
|  5> 
|  6> *xyz 0 1
|  7> Au      -0.788661   -0.016684    2.209526 
|  8> Au      -1.223332   -0.011467   -0.436740 
|  9> Au       0.788385    0.016579   -2.209564 
| 10> Au       1.223608    0.011572    0.436778 
| 11> *
| 12> 
| 13> %maxcore 5000
| 14> 
| 15> %pal
| 16> nprocs = 24
| 17> end
| 18> 
| 19> 
| 20>                          ****END OF INPUT****
================================================================================

                       ****************************
                       * Single Point Calculation *
                       ****************************

---------------------------------
CARTESIAN COORDINATES (ANGSTROEM)
---------------------------------
  Au    -0.788661   -0.016684    2.209526
  Au    -1.223332   -0.011467   -0.436740
  Au     0.788385    0.016579   -2.209564
  Au     1.223608    0.011572    0.436778

----------------------------
CARTESIAN COORDINATES (A.U.)
----------------------------
  NO LB      ZA    FRAG     MASS         X           Y           Z
   0 Au   19.0000*   0   196.966   -1.490353   -0.031528    4.175399
   1 Au   19.0000*   0   196.966   -2.311762   -0.021669   -0.825319
   2 Au   19.0000*   0   196.966    1.489832    0.031330   -4.175471
   3 Au   19.0000*   0   196.966    2.312284    0.021868    0.825391
* core charge reduced due to ECP

--------------------------------
INTERNAL COORDINATES (ANGSTROEM)
--------------------------------
 Au     0   0   0     0.000000000000     0.00000000     0.00000000
 Au     1   0   0     2.681732618679     0.00000000     0.00000000
 Au     2   1   0     2.681547463906   122.05942715     0.00000000
 Au     2   1   3     2.598284021320    61.02868748     0.00000000

---------------------------
INTERNAL COORDINATES (A.U.)
---------------------------
 Au     0   0   0     0.000000000000     0.00000000     0.00000000
 Au     1   0   0     5.067740213706     0.00000000     0.00000000
 Au     2   1   0     5.067390321894   122.05942715     0.00000000
 Au     2   1   3     4.910045218438    61.02868748     0.00000000

---------------------
BASIS SET INFORMATION
---------------------
There are 1 groups of distinct atoms

 Group   1 Type Au  : 8s8p6d2f1g contracted to 6s5p3d2f1g pattern {311111/41111/411/11/1}

Atom   0Au   basis set group =>   1
Atom   1Au   basis set group =>   1
Atom   2Au   basis set group =>   1
Atom   3Au   basis set group =>   1
---------------------------------
AUXILIARY/C BASIS SET INFORMATION
---------------------------------
There are 1 groups of distinct atoms

 Group   1 Type Au  : 9s9p8d5f4g3h1i contracted to 9s9p8d5f4g3h1i pattern {111111111/111111111/11111111/11111/1111/111/1}

Atom   0Au   basis set group =>   1
Atom   1Au   basis set group =>   1
Atom   2Au   basis set group =>   1
Atom   3Au   basis set group =>   1
----------------------------------
AUXILIARY/JK BASIS SET INFORMATION
----------------------------------
There are 1 groups of distinct atoms

 Group   1 Type Au  : 13s12p11d9f5g3h2i contracted to 13s11p10d8f4g3h2i pattern {1111111111111/21111111111/2111111111/21111111/2111/111/11}

Atom   0Au   basis set group =>   1
Atom   1Au   basis set group =>   1
Atom   2Au   basis set group =>   1
Atom   3Au   basis set group =>   1
-------------------------
ECP PARAMETER INFORMATION
-------------------------

 Group 1, Type Au ECP Def2-ECP (replacing 60 core electrons, lmax=3)

Atom   0Au   ECP group =>   1
Atom   1Au   ECP group =>   1
Atom   2Au   ECP group =>   1
Atom   3Au   ECP group =>   1



           ************************************************************
           *        Program running with 24 parallel MPI-processes    *
           *              working on a common directory               *
           ************************************************************
------------------------------------------------------------------------------
                           ORCA GTO INTEGRAL CALCULATION
                           -- RI-GTO INTEGRALS CHOSEN --
------------------------------------------------------------------------------

                         BASIS SET STATISTICS AND STARTUP INFO

Gaussian basis set:
 # of primitive gaussian shells          ...  100
 # of primitive gaussian functions       ...  340
 # of contracted shells                  ...   68
 # of contracted basis functions         ...  236
 Highest angular momentum                ...    4
 Maximum contraction depth               ...    4
Auxiliary gaussian basis set:
 # of primitive gaussian shells          ...  220
 # of primitive gaussian functions       ... 1084
 # of contracted shells                  ...  204
 # of contracted aux-basis functions     ...  988
 Highest angular momentum                ...    6
 Maximum contraction depth               ...    2
Ratio of auxiliary to basis functions    ...  4.19
Integral package used                  ... LIBINT
 One Electron integrals                  
   ECP integrals                         ... done
 Ordering auxiliary basis shells         ... done
 Integral threshhold             Thresh  ...  1.000e-10
 Primitive cut-off               TCut    ...  1.000e-11
 Pre-screening matrix                    ... done
 Shell pair data                         ... 
 Ordering of the shell pairs             ... done (   0.000 sec) 2210 of 2346 pairs
 Determination of significant pairs      ... done (   0.000 sec)
 Creation of shell pair data             ... done (   0.000 sec)
 Storage of shell pair data              ... done (   0.004 sec)
 Shell pair data done in (   0.004 sec)
 Computing two index integrals           ... done
 Cholesky decomposition of the V-matrix  ... done


Timings:
 Total evaluation time                   ...   1.466 sec (  0.024 min)
 One electron matrix time                ...   0.981 sec (  0.016 min) = 66.9%
 Schwartz matrix evaluation time         ...   0.178 sec (  0.003 min) = 12.1%
 Two index repulsion integral time       ...   0.236 sec (  0.004 min) = 16.1%
 Cholesky decomposition of V             ...   0.016 sec (  0.000 min) =  1.1%
 Three index repulsion integral time     ...   0.000 sec (  0.000 min) =  0.0%



           ************************************************************
           *        Program running with 24 parallel MPI-processes    *
           *              working on a common directory               *
           ************************************************************
-------------------------------------------------------------------------------
                                 ORCA SCF
-------------------------------------------------------------------------------

------------
SCF SETTINGS
------------
Hamiltonian:
 Density Functional     Method          .... DFT(GTOs)
 Exchange Functional    Exchange        .... B88
   X-Alpha parameter    XAlpha          ....  0.666667
   Becke's b parameter  XBeta           ....  0.004200
 Correlation Functional Correlation     .... LYP
 LDA part of GGA corr.  LDAOpt          .... VWN-5
 Gradients option       PostSCFGGA      .... off
 Hybrid DFT is turned on
   Fraction HF Exchange ScalHFX         ....  0.710000
   Scaling of DF-GGA-X  ScalDFX         ....  0.290000
   Scaling of DF-GGA-C  ScalDFC         ....  0.540000
   Scaling of DF-LDA-C  ScalLDAC        ....  0.540000
   Perturbative correction              ....  1.000000
   Density functional embedding theory  .... OFF
 RI-approximation to the Coulomb term is turned on
   Number of auxiliary basis functions  .... 988
   RI-JK (J+K treated both via RI)      .... on


General Settings:
 Integral files         IntName         .... Au04N0
 Hartree-Fock type      HFTyp           .... RHF
 Total Charge           Charge          ....    0
 Multiplicity           Mult            ....    1
 Number of Electrons    NEL             ....   76
 Basis Dimension        Dim             ....  236
 Nuclear Repulsion      ENuc            ....    399.1711911408 Eh

Convergence Acceleration:
 DIIS                   CNVDIIS         .... on
   Start iteration      DIISMaxIt       ....    12
   Startup error        DIISStart       ....  0.200000
   # of expansion vecs  DIISMaxEq       ....     5
   Bias factor          DIISBfac        ....   1.050
   Max. coefficient     DIISMaxC        ....  10.000
 Newton-Raphson         CNVNR           .... off
 SOSCF                  CNVSOSCF        .... off
 Level Shifting         CNVShift        .... on
   Level shift para.    LevelShift      ....    0.2500
   Turn off err/grad.   ShiftErr        ....    0.0010
 Zerner damping         CNVZerner       .... off
 Static damping         CNVDamp         .... on
   Fraction old density DampFac         ....    0.7000
   Max. Damping (<1)    DampMax         ....    0.9800
   Min. Damping (>=0)   DampMin         ....    0.0000
   Turn off err/grad.   DampErr         ....    0.1000
 Fernandez-Rico         CNVRico         .... off

SCF Procedure:
 Maximum # iterations   MaxIter         ....   125
 SCF integral mode      SCFMode         .... Direct
   Integral package                     .... LIBINT
 Reset frequency        DirectResetFreq ....    20
 Integral Threshold     Thresh          ....  1.000e-10 Eh
 Primitive CutOff       TCut            ....  1.000e-11 Eh

Convergence Tolerance:
 Convergence Check Mode ConvCheckMode   .... Total+1el-Energy
 Convergence forced     ConvForced      .... 0
 Energy Change          TolE            ....  1.000e-06 Eh
 1-El. energy change                    ....  1.000e-03 Eh
 DIIS Error             TolErr          ....  1.000e-06


Diagonalization of the overlap matrix:
Smallest eigenvalue                        ... 1.356e-03
Time for diagonalization                   ...    0.009 sec
Threshold for overlap eigenvalues          ... 1.000e-08
Number of eigenvalues below threshold      ... 0
Time for construction of square roots      ...    0.006 sec
Total time needed                          ...    0.016 sec

-------------------
DFT GRID GENERATION
-------------------

General Integration Accuracy     IntAcc      ...  4.670
Radial Grid Type                 RadialGrid  ... Gauss-Chebyshev
Angular Grid (max. acc.)         AngularGrid ... Lebedev-302
Angular grid pruning method      GridPruning ... 3 (G Style)
Weight generation scheme         WeightScheme... Becke
Basis function cutoff            BFCut       ...    1.0000e-10
Integration weight cutoff        WCut        ...    1.0000e-14
Grids for H and He will be reduced by one unit

# of grid points (after initial pruning)     ...  46608 (   0.0 sec)
# of grid points (after weights+screening)   ...  46120 (   0.0 sec)
nearest neighbour list constructed           ...    0.0 sec
Grid point re-assignment to atoms done       ...    0.0 sec
Grid point division into batches done        ...    0.5 sec
Reduced shell lists constructed in    0.5 sec

Total number of grid points                  ...    46120
Total number of batches                      ...      724
Average number of points per batch           ...       63
Average number of grid points per atom       ...    11530
Average number of shells per batch           ...     6.50 ( 9.56%)
Average number of basis functions per batch  ...    16.62 ( 7.04%)
Average number of large shells per batch     ...     4.41 (67.79%)
Average number of large basis fcns per batch ...    11.53 (69.36%)
Average number of aux-shells per batch       ...     6.50 ( 3.19%)
Average number of aux functions per batch    ...    16.62 ( 1.68%)
Maximum spatial batch extension              ...  27.27, 32.41, 25.00 au
Average spatial batch extension              ...   0.67,  0.68,  0.56 au

Time for grid setup =    0.633 sec

------------------------------
INITIAL GUESS: MODEL POTENTIAL
------------------------------
Loading Hartree-Fock densities                     ... done
  calling /sw/apps/orca/orca_4_2_0_linux_x86-64_openmpi314/orca Au04N0_atom79.inp > Au04N0_atom79.out in order to generate an atomic fitting density for atom 0 (Au with ECP) on-the-fly... 
    atom 0 (Au), assumed electronic state with S=2: 1s2 2s2 2p6 3s2 3p6 4s2 3d10 4p6 5s2 4d10 5p6 6s1 4f14 5d10           ... done
Calculating cut-offs                               ... done
Setting up the integral package                    ... done
Initializing the effective Hamiltonian             ... done
Starting the Coulomb interaction                   ... done (   0.0 sec)
Reading the grid                                   ... done
Mapping shells                                     ... done
Starting the XC term evaluation                    ... done (   0.0 sec)
  promolecular density results
     # of electrons  =    316.009399453
     EX              =  -1469.456277425
     EC              =     -1.943898309
     EX+EC           =  -1471.400175734
Transforming the Hamiltonian                       ... done (   0.0 sec)
Diagonalizing the Hamiltonian                      ... done (   0.0 sec)
Back transforming the eigenvectors                 ... done (   0.0 sec)
Now organizing SCF variables                       ... done
                      ------------------
                      INITIAL GUESS DONE (   2.0 sec)
                      ------------------
--------------
SCF ITERATIONS
--------------
ITER       Energy         Delta-E        Max-DP      RMS-DP      [F,P]     Damp
  0   -540.5231049069   0.000000000000 0.25671205  0.00315295  0.5535192 0.7000
  1   -540.3948859590   0.128218947928 0.20566193  0.00262926  0.4048998 0.7000
  2   -540.5537007270  -0.158814768021 0.13913384  0.00178026  0.2788619 0.7000
                               ***Turning on DIIS***
  3   -540.7725126002  -0.218811873221 0.09329300  0.00119730  0.1924370 0.7000
  4   -540.9176732699  -0.145160669620 0.06600527  0.00087793  0.1340223 0.7000
  5   -540.9956748925  -0.078001622674 0.16746519  0.00230314  0.0943080 0.0000
  6   -540.9791427452   0.016532147325 0.00789430  0.00029475  0.0254369 0.0000
  7   -540.9845952051  -0.005452459895 0.00454757  0.00013994  0.0080667 0.0000
  8   -540.9853810758  -0.000785870695 0.00303827  0.00008249  0.0041474 0.0000
  9   -540.9856053585  -0.000224282678 0.00108685  0.00003430  0.0012872 0.0000
 10   -540.9856388341  -0.000033475584 0.00139562  0.00002605  0.0005342 0.0000
 11   -540.9856451845  -0.000006350470 0.00030594  0.00000791  0.0002125 0.0000
                 **** Energy Check signals convergence ****

               *****************************************************
               *                     SUCCESS                       *
               *           SCF CONVERGED AFTER  12 CYCLES          *
               *****************************************************


----------------
TOTAL SCF ENERGY
----------------

Total Energy       :         -540.98564565 Eh          -14720.96782 eV

Components:
Nuclear Repulsion  :          399.17119114 Eh           10862.00032 eV
Electronic Energy  :         -940.15683679 Eh          -25582.96814 eV
One Electron Energy:        -1753.52228788 Eh          -47715.76728 eV
Two Electron Energy:          813.36545110 Eh           22132.79913 eV

Virial components:
Potential Energy   :         -725.00193547 Eh          -19728.30563 eV
Kinetic Energy     :          184.01628983 Eh            5007.33781 eV
Virial Ratio       :            3.93987911


DFT components:
N(Alpha)           :       37.999980315420 electrons
N(Beta)            :       37.999980315420 electrons
N(Total)           :       75.999960630839 electrons
E(X)               :      -14.123648732191 Eh       
E(C)               :       -1.501768402697 Eh       
E(XC)              :      -15.625417134888 Eh       
DFET-embed. en.    :        0.000000000000 Eh       

---------------
SCF CONVERGENCE
---------------

  Last Energy change         ...   -4.6068e-07  Tolerance :   1.0000e-06
  Last MAX-Density change    ...    1.4110e-04  Tolerance :   1.0000e-05
  Last RMS-Density change    ...    2.7408e-06  Tolerance :   1.0000e-06
  Last DIIS Error            ...    9.4238e-05  Tolerance :   1.0000e-06

             **** THE GBW FILE WAS UPDATED (Au04N0.gbw) ****
             **** DENSITY FILE WAS UPDATED (Au04N0.scfp) ****
             **** ENERGY FILE WAS UPDATED (Au04N0.en.tmp) ****
             **** THE GBW FILE WAS UPDATED (Au04N0.gbw) ****
             **** DENSITY FILE WAS UPDATED (Au04N0.scfp) ****
----------------
ORBITAL ENERGIES
----------------

  NO   OCC          E(Eh)            E(eV) 
   0   2.0000      -4.517008      -122.9140 
   1   2.0000      -4.516505      -122.9004 
   2   2.0000      -4.488371      -122.1348 
   3   2.0000      -4.488361      -122.1345 
   4   2.0000      -2.612533       -71.0906 
   5   2.0000      -2.605324       -70.8945 
   6   2.0000      -2.603909       -70.8560 
   7   2.0000      -2.602090       -70.8065 
   8   2.0000      -2.601753       -70.7973 
   9   2.0000      -2.600940       -70.7752 
  10   2.0000      -2.576407       -70.1076 
  11   2.0000      -2.575683       -70.0879 
  12   2.0000      -2.573557       -70.0301 
  13   2.0000      -2.573243       -70.0215 
  14   2.0000      -2.570683       -69.9518 
  15   2.0000      -2.570659       -69.9512 
  16   2.0000      -0.497579       -13.5398 
  17   2.0000      -0.492761       -13.4087 
  18   2.0000      -0.463934       -12.6243 
  19   2.0000      -0.462225       -12.5778 
  20   2.0000      -0.456590       -12.4245 
  21   2.0000      -0.448395       -12.2014 
  22   2.0000      -0.429331       -11.6827 
  23   2.0000      -0.428659       -11.6644 
  24   2.0000      -0.397970       -10.8293 
  25   2.0000      -0.397952       -10.8288 
  26   2.0000      -0.395816       -10.7707 
  27   2.0000      -0.390467       -10.6252 
  28   2.0000      -0.388158       -10.5623 
  29   2.0000      -0.386159       -10.5079 
  30   2.0000      -0.376858       -10.2548 
  31   2.0000      -0.373697       -10.1688 
  32   2.0000      -0.369184       -10.0460 
  33   2.0000      -0.368538       -10.0284 
  34   2.0000      -0.365145        -9.9361 
  35   2.0000      -0.345237        -9.3944 
  36   2.0000      -0.336515        -9.1570 
  37   2.0000      -0.234043        -6.3686 
  38   0.0000      -0.068567        -1.8658 
  39   0.0000      -0.029312        -0.7976 
  40   0.0000       0.001989         0.0541 
  41   0.0000       0.031615         0.8603 
  42   0.0000       0.035310         0.9608 
  43   0.0000       0.054461         1.4820 
  44   0.0000       0.062048         1.6884 
  45   0.0000       0.085080         2.3151 
  46   0.0000       0.101091         2.7508 
  47   0.0000       0.109191         2.9712 
  48   0.0000       0.115982         3.1560 
  49   0.0000       0.119796         3.2598 
  50   0.0000       0.128607         3.4996 
  51   0.0000       0.170481         4.6390 
  52   0.0000       0.211283         5.7493 
  53   0.0000       0.221469         6.0265 
  54   0.0000       0.233292         6.3482 
  55   0.0000       0.233639         6.3577 
  56   0.0000       0.235204         6.4002 
  57   0.0000       0.276867         7.5339 
  58   0.0000       0.283290         7.7087 
  59   0.0000       0.286828         7.8050 
  60   0.0000       0.295289         8.0352 
  61   0.0000       0.307769         8.3748 
  62   0.0000       0.315161         8.5760 
  63   0.0000       0.328031         8.9262 
  64   0.0000       0.375086        10.2066 
  65   0.0000       0.392402        10.6778 
  66   0.0000       0.401162        10.9162 
  67   0.0000       0.410745        11.1769 
  68   0.0000       0.418268        11.3817 
  69   0.0000       0.428933        11.6719 
  70   0.0000       0.432918        11.7803 
  71   0.0000       0.435481        11.8500 
  72   0.0000       0.435991        11.8639 
  73   0.0000       0.469636        12.7794 
  74   0.0000       0.518871        14.1192 
  75   0.0000       0.523070        14.2335 
  76   0.0000       0.534653        14.5486 
  77   0.0000       0.542371        14.7587 
  78   0.0000       0.548458        14.9243 
  79   0.0000       0.550507        14.9801 
  80   0.0000       0.554883        15.0991 
  81   0.0000       0.565985        15.4012 
  82   0.0000       0.607483        16.5305 
  83   0.0000       0.624571        16.9954 
  84   0.0000       0.645048        17.5526 
  85   0.0000       0.649959        17.6863 
  86   0.0000       0.667152        18.1541 
  87   0.0000       0.751527        20.4501 
  88   0.0000       0.950200        25.8563 
  89   0.0000       0.986347        26.8399 
  90   0.0000       1.047461        28.5029 
  91   0.0000       1.059818        28.8391 
  92   0.0000       1.086379        29.5619 
  93   0.0000       1.096189        29.8288 
  94   0.0000       1.112512        30.2730 
  95   0.0000       1.122732        30.5511 
  96   0.0000       1.151833        31.3430 
  97   0.0000       1.167590        31.7717 
  98   0.0000       1.208016        32.8718 
  99   0.0000       1.221822        33.2475 
 100   0.0000       1.234515        33.5929 
 101   0.0000       1.234844        33.6018 
 102   0.0000       1.244014        33.8514 
 103   0.0000       1.245808        33.9002 
 104   0.0000       1.264898        34.4196 
 105   0.0000       1.273629        34.6572 
 106   0.0000       1.307420        35.5767 
 107   0.0000       1.312100        35.7040 
 108   0.0000       1.313331        35.7376 
 109   0.0000       1.315112        35.7860 
 110   0.0000       1.318527        35.8789 
 111   0.0000       1.418998        38.6129 
 112   0.0000       1.437731        39.1226 
 113   0.0000       1.438811        39.1520 
 114   0.0000       1.465377        39.8749 
 115   0.0000       1.473512        40.0963 
 116   0.0000       1.475567        40.1522 
 117   0.0000       1.486081        40.4383 
 118   0.0000       1.489327        40.5267 
 119   0.0000       1.508486        41.0480 
 120   0.0000       1.513905        41.1954 
 121   0.0000       1.516008        41.2527 
 122   0.0000       1.523644        41.4605 
 123   0.0000       1.542885        41.9840 
 124   0.0000       1.574844        42.8537 
 125   0.0000       1.581833        43.0439 
 126   0.0000       1.585607        43.1466 
 127   0.0000       1.611907        43.8622 
 128   0.0000       1.623593        44.1802 
 129   0.0000       1.634768        44.4843 
 130   0.0000       1.642630        44.6982 
 131   0.0000       1.664690        45.2985 
 132   0.0000       1.671555        45.4853 
 133   0.0000       1.690005        45.9874 
 134   0.0000       1.695168        46.1279 
 135   0.0000       1.707689        46.4686 
 136   0.0000       1.740788        47.3693 
 137   0.0000       1.747598        47.5546 
 138   0.0000       1.787668        48.6449 
 139   0.0000       1.795272        48.8518 
 140   0.0000       1.804081        49.0915 
 141   0.0000       1.837792        50.0089 
 142   0.0000       1.848294        50.2946 
 143   0.0000       2.023516        55.0627 
 144   0.0000       2.024396        55.0866 
 145   0.0000       2.067250        56.2527 
 146   0.0000       2.192062        59.6490 
 147   0.0000       2.276404        61.9441 
 148   0.0000       2.366657        64.4000 
 149   0.0000       2.853591        77.6502 
 150   0.0000       2.895891        78.8012 
 151   0.0000       2.962151        80.6042 
 152   0.0000       3.705378       100.8285 
 153   0.0000       3.756728       102.2258 
 154   0.0000       3.767844       102.5282 
 155   0.0000       3.771955       102.6401 
 156   0.0000       3.795398       103.2780 
 157   0.0000       3.828977       104.1918 
 158   0.0000       3.862905       105.1150 
 159   0.0000       3.890125       105.8557 
 160   0.0000       3.890267       105.8595 
 161   0.0000       3.895312       105.9968 
 162   0.0000       3.899230       106.1035 
 163   0.0000       3.919707       106.6606 
 164   0.0000       3.923723       106.7699 
 165   0.0000       3.924408       106.7886 
 166   0.0000       3.927003       106.8592 
 167   0.0000       3.995307       108.7178 
 168   0.0000       4.043216       110.0215 
 169   0.0000       4.047968       110.1508 
 170   0.0000       4.068716       110.7154 
 171   0.0000       4.080456       111.0349 
 172   0.0000       4.083431       111.1158 
 173   0.0000       4.092960       111.3751 
 174   0.0000       4.100803       111.5885 
 175   0.0000       4.136471       112.5591 
 176   0.0000       4.157625       113.1347 
 177   0.0000       4.208191       114.5107 
 178   0.0000       4.233285       115.1936 
 179   0.0000       4.253923       115.7551 
 180   0.0000       4.383338       119.2767 
 181   0.0000       4.385857       119.3452 
 182   0.0000       4.388435       119.4154 
 183   0.0000       4.389405       119.4418 
 184   0.0000       4.391635       119.5025 
 185   0.0000       4.393951       119.5655 
 186   0.0000       4.396781       119.6425 
 187   0.0000       4.400743       119.7503 
 188   0.0000       4.403057       119.8133 
 189   0.0000       4.404393       119.8496 
 190   0.0000       4.405359       119.8759 
 191   0.0000       4.405655       119.8840 
 192   0.0000       4.406302       119.9016 
 193   0.0000       4.411221       120.0354 
 194   0.0000       4.422639       120.3461 
 195   0.0000       4.422875       120.3526 
 196   0.0000       4.423345       120.3653 
 197   0.0000       4.423496       120.3694 
 198   0.0000       4.427343       120.4741 
 199   0.0000       4.427775       120.4859 
 200   0.0000       4.428060       120.4936 
 201   0.0000       4.428596       120.5082 
 202   0.0000       4.430133       120.5501 
 203   0.0000       4.443235       120.9066 
 204   0.0000       4.446159       120.9861 
 205   0.0000       4.446212       120.9876 
 206   0.0000       4.450582       121.1065 
 207   0.0000       4.451102       121.1206 
 208   0.0000       4.451523       121.1321 
 209   0.0000       4.455438       121.2386 
 210   0.0000       4.476285       121.8059 
 211   0.0000       4.546128       123.7064 
 212   0.0000       4.581328       124.6643 
 213   0.0000       4.589037       124.8740 
 214   0.0000       4.592547       124.9696 
 215   0.0000       4.730238       128.7163 
 216   0.0000      27.361119       744.5339 
 217   0.0000      27.543048       749.4844 
 218   0.0000      27.639025       752.0961 
 219   0.0000      27.702847       753.8328 
 220   0.0000      27.743769       754.9463 
 221   0.0000      27.751916       755.1680 
 222   0.0000      27.842733       757.6393 
 223   0.0000      28.335002       771.0346 
 224   0.0000      29.338602       798.3440 
 225   0.0000      29.728338       808.9492 
 226   0.0000      29.946582       814.8879 
 227   0.0000      30.021418       816.9243 
 228   0.0000      44.123667      1200.6660 
 229   0.0000      44.613889      1214.0057 
 230   0.0000      44.645662      1214.8702 
 231   0.0000      44.727728      1217.1033 
 232   0.0000     203.341917      5533.2149 
 233   0.0000     203.561197      5539.1818 
 234   0.0000     203.568811      5539.3890 
 235   0.0000     203.596763      5540.1496 

                    ********************************
                    * MULLIKEN POPULATION ANALYSIS *
                    ********************************

-----------------------
MULLIKEN ATOMIC CHARGES
-----------------------
   0 Au:   -0.165924
   1 Au:    0.165877
   2 Au:   -0.165912
   3 Au:    0.165958
Sum of atomic charges:    0.0000000

--------------------------------
MULLIKEN REDUCED ORBITAL CHARGES
--------------------------------
  0 Aus       :     3.205779  s :     3.205779
      pz      :     2.049670  p :     6.073018
      px      :     2.015637
      py      :     2.007711
      dz2     :     1.959066  d :     9.880634
      dxz     :     1.952200
      dyz     :     1.990833
      dx2y2   :     1.983500
      dxy     :     1.995035
      f0      :     0.001683  f :     0.006385
      f+1     :     0.001700
      f-1     :     0.000901
      f+2     :     0.000892
      f-2     :     0.000625
      f+3     :     0.000310
      f-3     :     0.000273
      g0      :     0.000025  g :     0.000107
      g+1     :     0.000022
      g-1     :     0.000014
      g+2     :     0.000014
      g-2     :     0.000007
      g+3     :     0.000009
      g-3     :     0.000008
      g+4     :     0.000004
      g-4     :     0.000003
  1 Aus       :     2.647386  s :     2.647386
      pz      :     2.214062  p :     6.299025
      px      :     2.069572
      py      :     2.015391
      dz2     :     1.961314  d :     9.875225
      dxz     :     1.960358
      dyz     :     1.993157
      dx2y2   :     1.967917
      dxy     :     1.992479
      f0      :     0.002477  f :     0.012302
      f+1     :     0.002820
      f-1     :     0.001094
      f+2     :     0.002049
      f-2     :     0.001121
      f+3     :     0.001462
      f-3     :     0.001279
      g0      :     0.000030  g :     0.000185
      g+1     :     0.000035
      g-1     :     0.000013
      g+2     :     0.000024
      g-2     :     0.000008
      g+3     :     0.000024
      g-3     :     0.000016
      g+4     :     0.000018
      g-4     :     0.000017
  2 Aus       :     3.205771  s :     3.205771
      pz      :     2.049685  p :     6.073030
      px      :     2.015633
      py      :     2.007713
      dz2     :     1.959089  d :     9.880616
      dxz     :     1.952163
      dyz     :     1.990833
      dx2y2   :     1.983497
      dxy     :     1.995033
      f0      :     0.001683  f :     0.006388
      f+1     :     0.001701
      f-1     :     0.000901
      f+2     :     0.000893
      f-2     :     0.000626
      f+3     :     0.000311
      f-3     :     0.000274
      g0      :     0.000025  g :     0.000107
      g+1     :     0.000022
      g-1     :     0.000014
      g+2     :     0.000014
      g-2     :     0.000007
      g+3     :     0.000009
      g-3     :     0.000008
      g+4     :     0.000004
      g-4     :     0.000003
  3 Aus       :     2.647285  s :     2.647285
      pz      :     2.214028  p :     6.298984
      px      :     2.069570
      py      :     2.015387
      dz2     :     1.961341  d :     9.875292
      dxz     :     1.960383
      dyz     :     1.993163
      dx2y2   :     1.967924
      dxy     :     1.992482
      f0      :     0.002475  f :     0.012296
      f+1     :     0.002818
      f-1     :     0.001093
      f+2     :     0.002049
      f-2     :     0.001120
      f+3     :     0.001462
      f-3     :     0.001279
      g0      :     0.000030  g :     0.000185
      g+1     :     0.000035
      g-1     :     0.000013
      g+2     :     0.000024
      g-2     :     0.000008
      g+3     :     0.000024
      g-3     :     0.000016
      g+4     :     0.000018
      g-4     :     0.000017


                     *******************************
                     * LOEWDIN POPULATION ANALYSIS *
                     *******************************

----------------------
LOEWDIN ATOMIC CHARGES
----------------------
   0 Au:    0.085719
   1 Au:   -0.085816
   2 Au:    0.085739
   3 Au:   -0.085642

-------------------------------
LOEWDIN REDUCED ORBITAL CHARGES
-------------------------------
  0 Aus       :     2.825239  s :     2.825239
      pz      :     2.117235  p :     6.166980
      px      :     2.036790
      py      :     2.012955
      dz2     :     1.978038  d :     9.909519
      dxz     :     1.964066
      dyz     :     1.986038
      dx2y2   :     1.988265
      dxy     :     1.993113
      f0      :     0.003709  f :     0.012384
      f+1     :     0.003259
      f-1     :     0.001500
      f+2     :     0.001777
      f-2     :     0.001091
      f+3     :     0.000567
      f-3     :     0.000482
      g0      :     0.000043  g :     0.000159
      g+1     :     0.000030
      g-1     :     0.000018
      g+2     :     0.000023
      g-2     :     0.000010
      g+3     :     0.000015
      g-3     :     0.000011
      g+4     :     0.000005
      g-4     :     0.000004
  1 Aus       :     2.476881  s :     2.476881
      pz      :     2.460425  p :     6.643498
      px      :     2.161269
      py      :     2.021804
      dz2     :     1.983850  d :     9.941642
      dxz     :     1.988263
      dyz     :     1.988908
      dx2y2   :     1.992254
      dxy     :     1.988367
      f0      :     0.005300  f :     0.023495
      f+1     :     0.004931
      f-1     :     0.001737
      f+2     :     0.004678
      f-2     :     0.001831
      f+3     :     0.002924
      f-3     :     0.002095
      g0      :     0.000056  g :     0.000299
      g+1     :     0.000058
      g-1     :     0.000019
      g+2     :     0.000038
      g-2     :     0.000011
      g+3     :     0.000043
      g-3     :     0.000023
      g+4     :     0.000029
      g-4     :     0.000023
  2 Aus       :     2.825206  s :     2.825206
      pz      :     2.117257  p :     6.167000
      px      :     2.036785
      py      :     2.012958
      dz2     :     1.978052  d :     9.909506
      dxz     :     1.964045
      dyz     :     1.986037
      dx2y2   :     1.988263
      dxy     :     1.993109
      f0      :     0.003708  f :     0.012390
      f+1     :     0.003261
      f-1     :     0.001499
      f+2     :     0.001779
      f-2     :     0.001093
      f+3     :     0.000568
      f-3     :     0.000482
      g0      :     0.000043  g :     0.000159
      g+1     :     0.000030
      g-1     :     0.000018
      g+2     :     0.000023
      g-2     :     0.000010
      g+3     :     0.000015
      g-3     :     0.000011
      g+4     :     0.000005
      g-4     :     0.000004
  3 Aus       :     2.476833  s :     2.476833
      pz      :     2.460277  p :     6.643328
      px      :     2.161252
      py      :     2.021798
      dz2     :     1.983868  d :     9.941700
      dxz     :     1.988284
      dyz     :     1.988917
      dx2y2   :     1.992260
      dxy     :     1.988371
      f0      :     0.005296  f :     0.023483
      f+1     :     0.004928
      f-1     :     0.001736
      f+2     :     0.004676
      f-2     :     0.001829
      f+3     :     0.002924
      f-3     :     0.002094
      g0      :     0.000056  g :     0.000299
      g+1     :     0.000057
      g-1     :     0.000019
      g+2     :     0.000038
      g-2     :     0.000011
      g+3     :     0.000043
      g-3     :     0.000023
      g+4     :     0.000029
      g-4     :     0.000023


                      *****************************
                      * MAYER POPULATION ANALYSIS *
                      *****************************

  NA   - Mulliken gross atomic population
  ZA   - Total nuclear charge
  QA   - Mulliken gross atomic charge
  VA   - Mayer's total valence
  BVA  - Mayer's bonded valence
  FA   - Mayer's free valence

  ATOM       NA         ZA         QA         VA         BVA        FA
  0 Au    19.1659    19.0000    -0.1659     1.2188     1.2188    -0.0000
  1 Au    18.8341    19.0000     0.1659     1.4948     1.4948    -0.0000
  2 Au    19.1659    19.0000    -0.1659     1.2189     1.2189    -0.0000
  3 Au    18.8340    19.0000     0.1660     1.4946     1.4946     0.0000

  Mayer bond orders larger than 0.100000
B(  0-Au,  1-Au) :   0.5277 B(  0-Au,  2-Au) :   0.1635 B(  0-Au,  3-Au) :   0.5276 
B(  1-Au,  2-Au) :   0.5278 B(  1-Au,  3-Au) :   0.4394 B(  2-Au,  3-Au) :   0.5276 


-------
TIMINGS
-------

Total SCF time: 0 days 0 hours 0 min 8 sec 

Total time                  ....       8.510 sec
Sum of individual times     ....       8.318 sec  ( 97.7%)

Fock matrix formation       ....       6.178 sec  ( 72.6%)
  XC integration            ....       0.495 sec  (  8.0% of F)
    Basis function eval.    ....       0.102 sec  ( 20.5% of XC)
    Density eval.           ....       0.084 sec  ( 16.9% of XC)
    XC-Functional eval.     ....       0.020 sec  (  4.0% of XC)
    XC-Potential eval.      ....       0.127 sec  ( 25.5% of XC)
Diagonalization             ....       0.105 sec  (  1.2%)
Density matrix formation    ....       0.015 sec  (  0.2%)
Population analysis         ....       0.009 sec  (  0.1%)
Initial guess               ....       1.327 sec  ( 15.6%)
Orbital Transformation      ....       0.000 sec  (  0.0%)
Orbital Orthonormalization  ....       0.000 sec  (  0.0%)
DIIS solution               ....       0.052 sec  (  0.6%)
Grid generation             ....       0.633 sec  (  7.4%)


           ************************************************************
           *        Program running with 24 parallel MPI-processes    *
           *              working on a common directory               *
           ************************************************************

------------------------------------------------------------------------------
                                ORCA  MP2 
------------------------------------------------------------------------------

Freezing NCore=0 chemical core electrons

-------------
RI-MP2 ENERGY
-------------
Dimension of the basis                    ...  236
Memory devoted to MP2                     ... 5000 MB   
Data format for buffers                   ... DOUBLE
Compression type for matrix containers    ... UNCOMPRESSED
Scaling for aa/bb pairs                   ...   4.000e-01
Scaling for ab pairs                      ...   4.700e-01
Overall scaling of the MP2 energy         ...   1.000e+00
Calculating two index integrals           ... done (    0.018 sec)
Cholesky decomposition of V**-1           ... done (    0.032 sec)

-----------------
RI-TRANSFORMATION (AUX index driven)
-----------------

Dimension of the orbital-basis         ... 236
Dimension of the aux-basis             ... 772
Transformation of internal/external MOs...    0-  37 to   38- 235
Number Format for Storage              ... Double (8 Byte)
Integral mode                          ... Direct

First Phase: integral generation and transformation of MO indices
  Aux angular momentum 0               ... done (    0.003 sec)
  Aux angular momentum 1               ... done (    0.006 sec)
  Aux angular momentum 2               ... done (    0.010 sec)
  Aux angular momentum 3               ... done (    0.008 sec)
  Aux angular momentum 4               ... done (    0.011 sec)
  Aux angular momentum 5               ... done (    0.017 sec)
  Aux angular momentum 6               ... done (    0.025 sec)
Closing buffer VIA ( 0.04 GB; CompressionRatio= 1.00)
  Phase 1 completed in     0.173 sec
Second Phase: sorting and transformation of aux index

IA-Transformation
Memory available                       ... 4992 MB 
Max. # MO pairs treated in a batch     ... 2    
# of internal orbitals                 ... 38
# batches for internal orbitals        ... 1
Closing buffer IAV ( 0.00 GB; CompressionRatio= 1.00)
(ia|v) transformation done in     0.027 sec

  Phase 2 completed in     0.076 sec
RI-Integral transformation completed in     0.250 sec
Opening buffers                              ... done

Starting loop over batches of integrals:

Operator 0  - window                       ... (  0- 37)x( 38-235)
Operator 0  - Memory available             ...  5000 MB
Operator 0  - Memory needed per MO         ...   1.2 MB
Operator 0  - Number of orbitals per batch ... 2
Operator 0  - Number of batches            ... 1

OPERATOR  0   PASS   0:  MOs     0 ...    1 +    2 ...    3 +    4 ...    5 +    6 ...    7
                            +    8 ...    9 +   10 ...   11 +   12 ...   13 +   14 ...   15
                            +   16 ...   17 +   18 ...   19 +   20 ...   21 +   22 ...   23
                            +   24 ...   25 +   26 ...   27 +   28 ...   29 +   30 ...   31
                            +   32 ...   33 +   34 ...   35 +   36 ...   37
  Reading integrals       ... ok
Time spent in pair loops =     0.014 sec

-----------------------------------------------
 RI-MP2 CORRELATION ENERGY:     -1.242498368 Eh
-----------------------------------------------


-------
TIMINGS
-------

Total time                :    0.447 sec
Integral trafo            :    0.257 sec ( 57.3%)
I/O of integrals          :    0.002 sec (  0.5%)
K(i,j) Operators          :    0.004 sec (  0.9%)
T(i,j) pair energies      :    0.000 sec (  0.1%)
V-calculation             :    0.018 sec (  4.0%)
V**(-1/2)                 :    0.032 sec (  7.1%)
Gamma(ia|P)               :    0.000 sec (  0.0%)
Gamma-Trafo               :    0.000 sec (  0.0%)
D(virtual)                :    0.000 sec (  0.0%)
D(internal)               :    0.000 sec (  0.0%)
W(virtual)                :    0.000 sec (  0.0%)
W(internal)               :    0.000 sec (  0.0%)
L(virtual)                :    0.000 sec (  0.0%)
L(internal)               :    0.000 sec (  0.0%)
G(D)                      :    0.000 sec (  0.0%)
G(Z)                      :    0.000 sec (  0.0%)
Z-Vector Solution         :    0.000 sec (  0.0%)
Z-Vector Solution         :    0.000 sec (  0.0%)
3-Index Derivative 
+ Separable RIJ part      :    0.000 sec (  0.0%)
2-Index Derivative 
+ Separable RIJ part      :    0.000 sec (  0.0%)
Separable Gradient (X)    :    0.000 sec (  0.0%)


---------------------------------------
MP2 TOTAL ENERGY:     -542.228144014 Eh
---------------------------------------


-------------------------------------------------------------------------------
                          DFT DISPERSION CORRECTION                            
                                                                               
                              DFTD3 V3.1  Rev 1                                
                          USING Becke-Johnson damping                          
-------------------------------------------------------------------------------
The DSD-BLYP/2013 functional is recognized
Active option DFTDOPT                   ...         4   

molecular C6(AA) [au] = 5074.506404 


            DFT-D V3
 parameters
 s6 scaling factor         :     0.5700 
 a1 scaling factor         :     0.0000 
 s8 scaling factor         :     0.0000 
 a2 scaling factor         :     5.4000 
 ad hoc parameters k1-k3   :    16.0000     1.3333    -4.0000 

 Edisp/kcal,au: -14.017643729151  -0.022338534816 
 E6   /kcal   : -14.017643729 
 E8   /kcal   :  -0.000000000 
 % E8         :   0.000000000 

-------------------------   ----------------
Dispersion correction           -0.022338535
-------------------------   ----------------


-------------------------   --------------------
FINAL SINGLE POINT ENERGY      -542.250482548500
-------------------------   --------------------


                            ***************************************
                            *     ORCA property calculations      *
                            ***************************************


  WARNING: The energy has been calculated at the MP2 level but the densities
           used in the property calculations are still SCF densities
           MP2 response densities have not been calculated 
           use %mp2 Density relaxed end
           or  %mp2 Density unrelaxed end

                                    ---------------------
                                    Active property flags
                                    ---------------------
   (+) Dipole Moment


------------------------------------------------------------------------------
                       ORCA ELECTRIC PROPERTIES CALCULATION
------------------------------------------------------------------------------

Dipole Moment Calculation                       ... on
Quadrupole Moment Calculation                   ... off
Polarizability Calculation                      ... off
GBWName                                         ... Au04N0.gbw
Electron density file                           ... Au04N0.scfp
The origin for moment calculation is the CENTER OF MASS  = ( 0.000000,  0.000000  0.000000)

-------------
DIPOLE MOMENT
-------------
                                X             Y             Z
Electronic contribution:      0.00040       0.00001       0.00000
Nuclear contribution   :     -0.00000      -0.00000       0.00000
                        -----------------------------------------
Total Dipole Moment    :      0.00040       0.00001       0.00000
                        -----------------------------------------
Magnitude (a.u.)       :      0.00040
Magnitude (Debye)      :      0.00102



--------------------
Rotational spectrum 
--------------------
 
Rotational constants in cm-1:     0.025355     0.007775     0.005950 
Rotational constants in MHz :   760.119680   233.080651   178.382130 

 Dipole components along the rotational axes: 
x,y,z [a.u.] :    -0.000133     0.000380     0.000005 
x,y,z [Debye]:    -0.000338     0.000965     0.000012 

 

Timings for individual modules:

Sum of individual times         ...       11.882 sec (=   0.198 min)
GTO integral calculation        ...        1.928 sec (=   0.032 min)  16.2 %
SCF iterations                  ...        8.918 sec (=   0.149 min)  75.1 %
MP2 module                      ...        1.036 sec (=   0.017 min)   8.7 %
                             ****ORCA TERMINATED NORMALLY****
TOTAL RUN TIME: 0 days 0 hours 0 minutes 12 seconds 510 msec
