
                                 *****************
                                 * O   R   C   A *
                                 *****************

           --- An Ab Initio, DFT and Semiempirical electronic structure package ---

                  #######################################################
                  #                        -***-                        #
                  #          Department of theory and spectroscopy      #
                  #               Directorship: Frank Neese             #
                  #        Max Planck Institute fuer Kohlenforschung    #
                  #                Kaiser Wilhelm Platz 1               #
                  #                 D-45470 Muelheim/Ruhr               #
                  #                      Germany                        #
                  #                                                     #
                  #                  All rights reserved                #
                  #                        -***-                        #
                  #######################################################


                         Program Version 4.2.0 -  RELEASE  -


 With contributions from (in alphabetic order):
   Daniel Aravena         : Magnetic Suceptibility
   Michael Atanasov       : Ab Initio Ligand Field Theory (pilot matlab implementation)
   Alexander A. Auer      : GIAO ZORA, VPT2
   Ute Becker             : Parallelization
   Giovanni Bistoni       : ED, misc. LED, open-shell LED, HFLED
   Martin Brehm           : Molecular dynamics
   Dmytro Bykov           : SCF Hessian
   Vijay G. Chilkuri      : MRCI spin determinant printing, contributions to CSF-ICE
   Dipayan Datta          : RHF DLPNO-CCSD density
   Achintya Kumar Dutta   : EOM-CC, STEOM-CC
   Dmitry Ganyushin       : Spin-Orbit,Spin-Spin,Magnetic field MRCI
   Miquel Garcia          : C-PCM Hessian, Gaussian charge scheme
   Yang Guo               : DLPNO-NEVPT2, CIM, IAO-localization
   Andreas Hansen         : Spin unrestricted coupled pair/coupled cluster methods
   Benjamin Helmich-Paris : CASSCF linear response (MC-RPA)
   Lee Huntington         : MR-EOM, pCC
   Robert Izsak           : Overlap fitted RIJCOSX, COSX-SCS-MP3, EOM
   Christian Kollmar      : KDIIS, OOCD, Brueckner-CCSD(T), CCSD density
   Simone Kossmann        : Meta GGA functionals, TD-DFT gradient, OOMP2, MP2 Hessian
   Martin Krupicka        : AUTO-CI
   Lucas Lang             : DCDCAS
   Dagmar Lenk            : GEPOL surface, SMD
   Dimitrios Liakos       : Extrapolation schemes; Compound Job, initial MDCI parallelization
   Dimitrios Manganas     : Further ROCIS development; embedding schemes
   Dimitrios Pantazis     : SARC Basis sets
   Taras Petrenko         : DFT Hessian,TD-DFT gradient, ASA, ECA, R-Raman, ABS, FL, XAS/XES, NRVS
   Peter Pinski           : DLPNO-MP2, DLPNO-MP2 Gradient
   Christoph Reimann      : Effective Core Potentials
   Marius Retegan         : Local ZFS, SOC
   Christoph Riplinger    : Optimizer, TS searches, QM/MM, DLPNO-CCSD(T), (RO)-DLPNO pert. Triples
   Tobias Risthaus        : Range-separated hybrids, TD-DFT gradient, RPA, STAB
   Michael Roemelt        : Original ROCIS implementation
   Masaaki Saitow         : Open-shell DLPNO-CCSD energy and density
   Barbara Sandhoefer     : DKH picture change effects
   Avijit Sen             : IP-ROCIS
   Kantharuban Sivalingam : CASSCF convergence, NEVPT2, FIC-MRCI
   Bernardo de Souza      : ESD, SOC TD-DFT
   Georgi Stoychev        : AutoAux, RI-MP2 NMR
   Willem Van den Heuvel  : Paramagnetic NMR
   Boris Wezisla          : Elementary symmetry handling
   Frank Wennmohs         : Technical directorship


 We gratefully acknowledge several colleagues who have allowed us to
 interface, adapt or use parts of their codes:
   Stefan Grimme, W. Hujo, H. Kruse,             : VdW corrections, initial TS optimization,
                  C. Bannwarth                     DFT functionals, gCP, sTDA/sTD-DF
   Ed Valeev, F. Pavosevic, A. Kumar             : LibInt (2-el integral package), F12 methods
   Garnet Chan, S. Sharma, J. Yang, R. Olivares  : DMRG
   Ulf Ekstrom                                   : XCFun DFT Library
   Mihaly Kallay                                 : mrcc  (arbitrary order and MRCC methods)
   Andreas Klamt, Michael Diedenhofen            : otool_cosmo (COSMO solvation model)
   Jiri Pittner, Ondrej Demel                    : Mk-CCSD
   Frank Weinhold                                : gennbo (NPA and NBO analysis)
   Christopher J. Cramer and Donald G. Truhlar   : smd solvation model
   Lars Goerigk                                  : TD-DFT with DH, B97 family of functionals
   V. Asgeirsson, H. Jonsson                     : NEB implementation
   FAccTs GmbH                                   : IRC, NEB, NEB-TS, Multilevel, MM, QM/MM, CI optimization
   S Lehtola, MJT Oliveira, MAL Marques          : LibXC Library


 Your calculation uses the libint2 library for the computation of 2-el integrals
 For citations please refer to: http://libint.valeyev.net

 Your ORCA version has been built with support for libXC version: 4.2.3
 For citations please refer to: https://tddft.org/programs/libxc/

 This ORCA versions uses:
   CBLAS   interface :  Fast vector & matrix operations
   LAPACKE interface :  Fast linear algebra routines
   SCALAPACK package :  Parallel linear algebra routines


Your calculation utilizes the atom-pairwise dispersion correction
with the Becke-Johnson damping scheme (D3BJ)
Cite in your paper:
S.Grimme, S.Ehrlich, L.Goerigk, J Comput Chem, (2011), 32, 1456–1465 
S.Grimme, J.Antony, S.Ehrlich and H.Krieg, J.Chem.Phys., 132, (2010), 154104 
   

----- Orbital basis set information -----
Your calculation utilizes the basis: def2-TZVPPD
   F. Weigend and R. Ahlrichs, Phys. Chem. Chem. Phys. 7, 3297 (2005).
   D. Rappoport and F. Furche, J. Chem. Phys. 133 134105 (2010).

----- AuxC basis set information -----
Your calculation utilizes the auxiliary basis: def2-TZVPPD/C
   A. Hellweg, C. Hattig, S. Hofener and W. Klopper, Theor. Chem. Acc. 117, 587 (2007).

----- AuxJK basis set information -----
Your calculation utilizes the auxiliary basis: def2/JK
   H-Ba, Hf-Rn: F. Weigend, J. Comput. Chem. 29, 167 (2008).

================================================================================
                                        WARNINGS
                       Please study these warnings very carefully!
================================================================================


WARNING: No MP2 level density has been requested!
         To caclulate MP2 level properties use
         %mp2 Density relaxed end
         or
         %mp2 Density unrelaxed end
         Otherwise for double-hybrid DFT only the energy is correct!

WARNING: There are different parametrizations of Gershom Martin's DSD-DFs
         for use with and without D3(BJ)!
         You are using the D3(BJ) parametrized version,
         consistent with the 2013 article (S. Kozuch and J. M. L. Martin, JCC 2013, 34, 2327)

WARNING: The frozen-core approximation is turned on by default for 
         the MP2 part of double-hybrid DFT.

INFO   : the flag for use of LIBINT has been found!

================================================================================
                                       INPUT FILE
================================================================================
NAME = Cu02N0.in
|  1> #
|  2> # Cu02N0 ri-DSD-BLYP/2013-D3BJ/Def2-TZVPPD
|  3> #
|  4> ! rijk ri-dsd-blyp/2013 d3bj def2-tzvppd def2/jk def2-tzvppd/c grid4 nofinalgrid
|  5> 
|  6> *xyz 0 1
|  7> Cu       0.000000    0.000000    1.107490 
|  8> Cu       0.000000    0.000000   -1.107490 
|  9> *
| 10> 
| 11> %maxcore 5000
| 12> 
| 13> %pal
| 14> nprocs = 24
| 15> end
| 16> 
| 17> 
| 18>                          ****END OF INPUT****
================================================================================

                       ****************************
                       * Single Point Calculation *
                       ****************************

---------------------------------
CARTESIAN COORDINATES (ANGSTROEM)
---------------------------------
  Cu     0.000000    0.000000    1.107490
  Cu     0.000000    0.000000   -1.107490

----------------------------
CARTESIAN COORDINATES (A.U.)
----------------------------
  NO LB      ZA    FRAG     MASS         X           Y           Z
   0 Cu   29.0000    0    63.550    0.000000    0.000000    2.092853
   1 Cu   29.0000    0    63.550    0.000000    0.000000   -2.092853

--------------------------------
INTERNAL COORDINATES (ANGSTROEM)
--------------------------------
 Cu     0   0   0     0.000000000000     0.00000000     0.00000000
 Cu     1   0   0     2.214980000000     0.00000000     0.00000000

---------------------------
INTERNAL COORDINATES (A.U.)
---------------------------
 Cu     0   0   0     0.000000000000     0.00000000     0.00000000
 Cu     1   0   0     4.185705592113     0.00000000     0.00000000

---------------------
BASIS SET INFORMATION
---------------------
There are 1 groups of distinct atoms

 Group   1 Type Cu  : 17s13p7d2f1g contracted to 6s6p4d2f1g pattern {842111/631111/4111/11/1}

Atom   0Cu   basis set group =>   1
Atom   1Cu   basis set group =>   1
---------------------------------
AUXILIARY/C BASIS SET INFORMATION
---------------------------------
There are 1 groups of distinct atoms

 Group   1 Type Cu  : 10s10p9d7f5g3h1i contracted to 10s10p9d7f5g3h1i pattern {1111111111/1111111111/111111111/1111111/11111/111/1}

Atom   0Cu   basis set group =>   1
Atom   1Cu   basis set group =>   1
----------------------------------
AUXILIARY/JK BASIS SET INFORMATION
----------------------------------
There are 1 groups of distinct atoms

 Group   1 Type Cu  : 19s14p12d10f7g3h1i contracted to 16s13p11d9f5g3h1i pattern {4111111111111111/2111111111111/21111111111/211111111/31111/111/1}

Atom   0Cu   basis set group =>   1
Atom   1Cu   basis set group =>   1


           ************************************************************
           *        Program running with 24 parallel MPI-processes    *
           *              working on a common directory               *
           ************************************************************
------------------------------------------------------------------------------
                           ORCA GTO INTEGRAL CALCULATION
                           -- RI-GTO INTEGRALS CHOSEN --
------------------------------------------------------------------------------

                         BASIS SET STATISTICS AND STARTUP INFO

Gaussian basis set:
 # of primitive gaussian shells          ...   80
 # of primitive gaussian functions       ...  228
 # of contracted shells                  ...   38
 # of contracted basis functions         ...  134
 Highest angular momentum                ...    4
 Maximum contraction depth               ...    8
Auxiliary gaussian basis set:
 # of primitive gaussian shells          ...  132
 # of primitive gaussian functions       ...  600
 # of contracted shells                  ...  116
 # of contracted aux-basis functions     ...  528
 Highest angular momentum                ...    6
 Maximum contraction depth               ...    4
Ratio of auxiliary to basis functions    ...  3.94
Integral package used                  ... LIBINT
 One Electron integrals                  ... done
 Ordering auxiliary basis shells         ... done
 Integral threshhold             Thresh  ...  1.000e-10
 Primitive cut-off               TCut    ...  1.000e-11
 Pre-screening matrix                    ... done
 Shell pair data                         ... 
 Ordering of the shell pairs             ... done (   0.000 sec) 705 of 741 pairs
 Determination of significant pairs      ... done (   0.000 sec)
 Creation of shell pair data             ... done (   0.000 sec)
 Storage of shell pair data              ... done (   0.015 sec)
 Shell pair data done in (   0.015 sec)
 Computing two index integrals           ... done
 Cholesky decomposition of the V-matrix  ... done


Timings:
 Total evaluation time                   ...   0.336 sec (  0.006 min)
 One electron matrix time                ...   0.028 sec (  0.000 min) =  8.4%
 Schwartz matrix evaluation time         ...   0.191 sec (  0.003 min) = 57.0%
 Two index repulsion integral time       ...   0.062 sec (  0.001 min) = 18.3%
 Cholesky decomposition of V             ...   0.005 sec (  0.000 min) =  1.4%
 Three index repulsion integral time     ...   0.000 sec (  0.000 min) =  0.0%



           ************************************************************
           *        Program running with 24 parallel MPI-processes    *
           *              working on a common directory               *
           ************************************************************
-------------------------------------------------------------------------------
                                 ORCA SCF
-------------------------------------------------------------------------------

------------
SCF SETTINGS
------------
Hamiltonian:
 Density Functional     Method          .... DFT(GTOs)
 Exchange Functional    Exchange        .... B88
   X-Alpha parameter    XAlpha          ....  0.666667
   Becke's b parameter  XBeta           ....  0.004200
 Correlation Functional Correlation     .... LYP
 LDA part of GGA corr.  LDAOpt          .... VWN-5
 Gradients option       PostSCFGGA      .... off
 Hybrid DFT is turned on
   Fraction HF Exchange ScalHFX         ....  0.710000
   Scaling of DF-GGA-X  ScalDFX         ....  0.290000
   Scaling of DF-GGA-C  ScalDFC         ....  0.540000
   Scaling of DF-LDA-C  ScalLDAC        ....  0.540000
   Perturbative correction              ....  1.000000
   Density functional embedding theory  .... OFF
 RI-approximation to the Coulomb term is turned on
   Number of auxiliary basis functions  .... 528
   RI-JK (J+K treated both via RI)      .... on


General Settings:
 Integral files         IntName         .... Cu02N0
 Hartree-Fock type      HFTyp           .... RHF
 Total Charge           Charge          ....    0
 Multiplicity           Mult            ....    1
 Number of Electrons    NEL             ....   58
 Basis Dimension        Dim             ....  134
 Nuclear Repulsion      ENuc            ....    200.9219190152 Eh

Convergence Acceleration:
 DIIS                   CNVDIIS         .... on
   Start iteration      DIISMaxIt       ....    12
   Startup error        DIISStart       ....  0.200000
   # of expansion vecs  DIISMaxEq       ....     5
   Bias factor          DIISBfac        ....   1.050
   Max. coefficient     DIISMaxC        ....  10.000
 Newton-Raphson         CNVNR           .... off
 SOSCF                  CNVSOSCF        .... off
 Level Shifting         CNVShift        .... on
   Level shift para.    LevelShift      ....    0.2500
   Turn off err/grad.   ShiftErr        ....    0.0010
 Zerner damping         CNVZerner       .... off
 Static damping         CNVDamp         .... on
   Fraction old density DampFac         ....    0.7000
   Max. Damping (<1)    DampMax         ....    0.9800
   Min. Damping (>=0)   DampMin         ....    0.0000
   Turn off err/grad.   DampErr         ....    0.1000
 Fernandez-Rico         CNVRico         .... off

SCF Procedure:
 Maximum # iterations   MaxIter         ....   125
 SCF integral mode      SCFMode         .... Direct
   Integral package                     .... LIBINT
 Reset frequency        DirectResetFreq ....    20
 Integral Threshold     Thresh          ....  1.000e-10 Eh
 Primitive CutOff       TCut            ....  1.000e-11 Eh

Convergence Tolerance:
 Convergence Check Mode ConvCheckMode   .... Total+1el-Energy
 Convergence forced     ConvForced      .... 0
 Energy Change          TolE            ....  1.000e-06 Eh
 1-El. energy change                    ....  1.000e-03 Eh
 DIIS Error             TolErr          ....  1.000e-06


Diagonalization of the overlap matrix:
Smallest eigenvalue                        ... 7.726e-04
Time for diagonalization                   ...    0.003 sec
Threshold for overlap eigenvalues          ... 1.000e-08
Number of eigenvalues below threshold      ... 0
Time for construction of square roots      ...    0.002 sec
Total time needed                          ...    0.005 sec

-------------------
DFT GRID GENERATION
-------------------

General Integration Accuracy     IntAcc      ...  4.670
Radial Grid Type                 RadialGrid  ... Gauss-Chebyshev
Angular Grid (max. acc.)         AngularGrid ... Lebedev-302
Angular grid pruning method      GridPruning ... 3 (G Style)
Weight generation scheme         WeightScheme... Becke
Basis function cutoff            BFCut       ...    1.0000e-10
Integration weight cutoff        WCut        ...    1.0000e-14
Grids for H and He will be reduced by one unit

# of grid points (after initial pruning)     ...  19112 (   0.0 sec)
# of grid points (after weights+screening)   ...  19084 (   0.0 sec)
nearest neighbour list constructed           ...    0.0 sec
Grid point re-assignment to atoms done       ...    0.0 sec
Grid point division into batches done        ...    0.2 sec
Reduced shell lists constructed in    0.2 sec

Total number of grid points                  ...    19084
Total number of batches                      ...      300
Average number of points per batch           ...       63
Average number of grid points per atom       ...     9542
Average number of shells per batch           ...     7.57 (19.92%)
Average number of basis functions per batch  ...    20.86 (15.57%)
Average number of large shells per batch     ...     5.86 (77.36%)
Average number of large basis fcns per batch ...    17.00 (81.51%)
Average number of aux-shells per batch       ...     7.57 ( 6.53%)
Average number of aux functions per batch    ...    20.86 ( 3.95%)
Maximum spatial batch extension              ...  22.17, 22.17, 16.36 au
Average spatial batch extension              ...   0.75,  0.76,  0.60 au

Time for grid setup =    0.275 sec

------------------------------
INITIAL GUESS: MODEL POTENTIAL
------------------------------
Loading Hartree-Fock densities                     ... done
Calculating cut-offs                               ... done
Setting up the integral package                    ... done
Initializing the effective Hamiltonian             ... done
Starting the Coulomb interaction                   ... done (   0.0 sec)
Reading the grid                                   ... done
Mapping shells                                     ... done
Starting the XC term evaluation                    ... done (   0.0 sec)
  promolecular density results
     # of electrons  =     58.000033510
     EX              =   -131.578848352
     EC              =     -0.398831119
     EX+EC           =   -131.977679470
Transforming the Hamiltonian                       ... done (   0.0 sec)
Diagonalizing the Hamiltonian                      ... done (   0.0 sec)
Back transforming the eigenvectors                 ... done (   0.0 sec)
Now organizing SCF variables                       ... done
                      ------------------
                      INITIAL GUESS DONE (   0.4 sec)
                      ------------------
--------------
SCF ITERATIONS
--------------
ITER       Energy         Delta-E        Max-DP      RMS-DP      [F,P]     Damp
  0  -3279.4613190482   0.000000000000 0.05161124  0.00111808  0.1179492 0.7000
  1  -3279.2842046590   0.177114389204 0.06561353  0.00121023  0.0707239 0.7000
                               ***Turning on DIIS***
  2  -3279.3718824091  -0.087677750103 0.20225175  0.00343490  0.0478642 0.0000
  3  -3279.5144472573  -0.142564848233 0.01559126  0.00053327  0.0398570 0.0000
  4  -3279.5188698279  -0.004422570569 0.01230044  0.00030597  0.0168091 0.0000
  5  -3279.5196700124  -0.000800184529 0.00856321  0.00016360  0.0091317 0.0000
  6  -3279.5199480022  -0.000277989820 0.00660819  0.00011388  0.0024576 0.0000
  7  -3279.5199980846  -0.000050082413 0.00398169  0.00007437  0.0011434 0.0000
  8  -3279.5200131484  -0.000015063751 0.00311021  0.00006332  0.0005600 0.0000
  9  -3279.5200193840  -0.000006235658 0.00078611  0.00001656  0.0002299 0.0000
 10  -3279.5200200689  -0.000000684816 0.00031779  0.00000580  0.0000842 0.0000
 11  -3279.5200201499  -0.000000081062 0.00005587  0.00000108  0.0000209 0.0000
 12  -3279.5200201528  -0.000000002909 0.00001293  0.00000031  0.0000229 0.0000
                 **** Energy Check signals convergence ****

               *****************************************************
               *                     SUCCESS                       *
               *           SCF CONVERGED AFTER  13 CYCLES          *
               *****************************************************


----------------
TOTAL SCF ENERGY
----------------

Total Energy       :        -3279.52002015 Eh          -89240.27664 eV

Components:
Nuclear Repulsion  :          200.92191902 Eh            5467.36337 eV
Electronic Energy  :        -3480.44193917 Eh          -94707.64001 eV
One Electron Energy:        -4980.62645736 Eh         -135529.73610 eV
Two Electron Energy:         1500.18451820 Eh           40822.09610 eV

Virial components:
Potential Energy   :        -6556.71693690 Eh         -178417.33842 eV
Kinetic Energy     :         3277.19691675 Eh           89177.06178 eV
Virial Ratio       :            2.00070887


DFT components:
N(Alpha)           :       29.000000852225 electrons
N(Beta)            :       29.000000852225 electrons
N(Total)           :       58.000001704450 electrons
E(X)               :      -38.288001233966 Eh       
E(C)               :       -1.495209585972 Eh       
E(XC)              :      -39.783210819939 Eh       
DFET-embed. en.    :        0.000000000000 Eh       

---------------
SCF CONVERGENCE
---------------

  Last Energy change         ...   -1.0141e-09  Tolerance :   1.0000e-06
  Last MAX-Density change    ...    4.2272e-06  Tolerance :   1.0000e-05
  Last RMS-Density change    ...    1.0402e-07  Tolerance :   1.0000e-06
  Last DIIS Error            ...    3.6715e-06  Tolerance :   1.0000e-06

             **** THE GBW FILE WAS UPDATED (Cu02N0.gbw) ****
             **** DENSITY FILE WAS UPDATED (Cu02N0.scfp) ****
             **** ENERGY FILE WAS UPDATED (Cu02N0.en.tmp) ****
             **** THE GBW FILE WAS UPDATED (Cu02N0.gbw) ****
             **** DENSITY FILE WAS UPDATED (Cu02N0.scfp) ****
----------------
ORBITAL ENERGIES
----------------

  NO   OCC          E(Eh)            E(eV) 
   0   2.0000    -326.704152     -8890.0719 
   1   2.0000    -326.704145     -8890.0717 
   2   2.0000     -40.078003     -1090.5779 
   3   2.0000     -40.077980     -1090.5773 
   4   2.0000     -35.022875      -953.0209 
   5   2.0000     -35.022864      -953.0206 
   6   2.0000     -35.022782      -953.0184 
   7   2.0000     -35.022782      -953.0184 
   8   2.0000     -35.022775      -953.0182 
   9   2.0000     -35.022775      -953.0182 
  10   2.0000      -4.737046      -128.9016 
  11   2.0000      -4.736254      -128.8800 
  12   2.0000      -3.119183       -84.8773 
  13   2.0000      -3.112931       -84.7072 
  14   2.0000      -3.112931       -84.7072 
  15   2.0000      -3.112508       -84.6957 
  16   2.0000      -3.112381       -84.6922 
  17   2.0000      -3.112381       -84.6922 
  18   2.0000      -0.428224       -11.6526 
  19   2.0000      -0.416344       -11.3293 
  20   2.0000      -0.416344       -11.3293 
  21   2.0000      -0.399170       -10.8620 
  22   2.0000      -0.399168       -10.8619 
  23   2.0000      -0.391431       -10.6514 
  24   2.0000      -0.391428       -10.6513 
  25   2.0000      -0.378141       -10.2897 
  26   2.0000      -0.378141       -10.2897 
  27   2.0000      -0.370495       -10.0817 
  28   2.0000      -0.231165        -6.2903 
  29   0.0000      -0.020250        -0.5510 
  30   0.0000       0.022183         0.6036 
  31   0.0000       0.022183         0.6036 
  32   0.0000       0.045371         1.2346 
  33   0.0000       0.075101         2.0436 
  34   0.0000       0.075101         2.0436 
  35   0.0000       0.079396         2.1605 
  36   0.0000       0.154226         4.1967 
  37   0.0000       0.176441         4.8012 
  38   0.0000       0.176441         4.8012 
  39   0.0000       0.188776         5.1369 
  40   0.0000       0.223084         6.0704 
  41   0.0000       0.223085         6.0704 
  42   0.0000       0.233069         6.3421 
  43   0.0000       0.236595         6.4381 
  44   0.0000       0.236595         6.4381 
  45   0.0000       0.279973         7.6185 
  46   0.0000       0.284880         7.7520 
  47   0.0000       0.284880         7.7520 
  48   0.0000       0.295052         8.0288 
  49   0.0000       0.295052         8.0288 
  50   0.0000       0.382911        10.4195 
  51   0.0000       0.397217        10.8088 
  52   0.0000       0.397217        10.8088 
  53   0.0000       0.609803        16.5936 
  54   0.0000       0.754770        20.5383 
  55   0.0000       0.772846        21.0302 
  56   0.0000       0.772846        21.0302 
  57   0.0000       0.856042        23.2941 
  58   0.0000       0.856042        23.2941 
  59   0.0000       0.915116        24.9016 
  60   0.0000       0.977354        26.5952 
  61   0.0000       0.977354        26.5952 
  62   0.0000       1.003157        27.2973 
  63   0.0000       1.003159        27.2973 
  64   0.0000       1.088775        29.6271 
  65   0.0000       1.088777        29.6271 
  66   0.0000       1.128221        30.7005 
  67   0.0000       1.245446        33.8903 
  68   0.0000       1.245446        33.8903 
  69   0.0000       1.474204        40.1151 
  70   0.0000       3.280041        89.2545 
  71   0.0000       3.291239        89.5592 
  72   0.0000       3.291239        89.5592 
  73   0.0000       3.345203        91.0276 
  74   0.0000       3.376979        91.8923 
  75   0.0000       3.376979        91.8923 
  76   0.0000       3.446822        93.7928 
  77   0.0000       3.673570        99.9629 
  78   0.0000       3.673570        99.9629 
  79   0.0000       3.685976       100.3005 
  80   0.0000       3.693036       100.4926 
  81   0.0000       3.693041       100.4927 
  82   0.0000       3.703733       100.7837 
  83   0.0000       3.703733       100.7837 
  84   0.0000       3.704375       100.8012 
  85   0.0000       3.704375       100.8012 
  86   0.0000       3.707228       100.8788 
  87   0.0000       3.707234       100.8790 
  88   0.0000       3.735790       101.6560 
  89   0.0000       3.742478       101.8380 
  90   0.0000       3.742478       101.8380 
  91   0.0000       3.957136       107.6791 
  92   0.0000       4.017622       109.3250 
  93   0.0000       4.017644       109.3257 
  94   0.0000       4.061899       110.5299 
  95   0.0000       4.061921       110.5305 
  96   0.0000       4.085038       111.1595 
  97   0.0000       4.085038       111.1595 
  98   0.0000       4.148150       112.8769 
  99   0.0000       4.148150       112.8769 
 100   0.0000       4.360342       118.6509 
 101   0.0000       4.399497       119.7164 
 102   0.0000      13.498002       367.2993 
 103   0.0000      13.498230       367.3055 
 104   0.0000      13.498230       367.3055 
 105   0.0000      13.498771       367.3202 
 106   0.0000      13.498800       367.3210 
 107   0.0000      13.498823       367.3217 
 108   0.0000      13.498823       367.3217 
 109   0.0000      13.499013       367.3268 
 110   0.0000      13.499043       367.3276 
 111   0.0000      13.500075       367.3557 
 112   0.0000      13.500227       367.3598 
 113   0.0000      13.500227       367.3598 
 114   0.0000      13.500229       367.3599 
 115   0.0000      13.500229       367.3599 
 116   0.0000      13.501669       367.3991 
 117   0.0000      13.501670       367.3991 
 118   0.0000      13.501760       367.4016 
 119   0.0000      13.501762       367.4016 
 120   0.0000      13.711286       373.1031 
 121   0.0000      13.717430       373.2703 
 122   0.0000      13.717430       373.2703 
 123   0.0000      13.720547       373.3551 
 124   0.0000      13.720645       373.3577 
 125   0.0000      13.722698       373.4136 
 126   0.0000      13.722698       373.4136 
 127   0.0000      13.722876       373.4184 
 128   0.0000      13.722876       373.4184 
 129   0.0000      13.724270       373.4564 
 130   0.0000      13.724367       373.4590 
 131   0.0000      13.749726       374.1491 
 132   0.0000      13.749726       374.1491 
 133   0.0000      13.872880       377.5003 

                    ********************************
                    * MULLIKEN POPULATION ANALYSIS *
                    ********************************

-----------------------
MULLIKEN ATOMIC CHARGES
-----------------------
   0 Cu:    0.000012
   1 Cu:   -0.000012
Sum of atomic charges:   -0.0000000

--------------------------------
MULLIKEN REDUCED ORBITAL CHARGES
--------------------------------
  0 Cus       :     6.969271  s :     6.969271
      pz      :     4.043362  p :    12.051600
      px      :     4.004119
      py      :     4.004119
      dz2     :     1.987262  d :     9.978907
      dxz     :     1.995835
      dyz     :     1.995835
      dx2y2   :     1.999987
      dxy     :     1.999987
      f0      :     0.000092  f :     0.000209
      f+1     :     0.000045
      f-1     :     0.000045
      f+2     :     0.000013
      f-2     :     0.000013
      f+3     :     0.000000
      f-3     :     0.000000
      g0      :     0.000000  g :     0.000001
      g+1     :     0.000000
      g-1     :     0.000000
      g+2     :     0.000000
      g-2     :     0.000000
      g+3     :     0.000000
      g-3     :     0.000000
      g+4     :     0.000000
      g-4     :     0.000000
  1 Cus       :     6.969291  s :     6.969291
      pz      :     4.043366  p :    12.051605
      px      :     4.004119
      py      :     4.004119
      dz2     :     1.987262  d :     9.978907
      dxz     :     1.995835
      dyz     :     1.995835
      dx2y2   :     1.999987
      dxy     :     1.999987
      f0      :     0.000092  f :     0.000209
      f+1     :     0.000045
      f-1     :     0.000045
      f+2     :     0.000013
      f-2     :     0.000013
      f+3     :     0.000000
      f-3     :     0.000000
      g0      :     0.000000  g :     0.000001
      g+1     :     0.000000
      g-1     :     0.000000
      g+2     :     0.000000
      g-2     :     0.000000
      g+3     :     0.000000
      g-3     :     0.000000
      g+4     :     0.000000
      g-4     :     0.000000


                     *******************************
                     * LOEWDIN POPULATION ANALYSIS *
                     *******************************

----------------------
LOEWDIN ATOMIC CHARGES
----------------------
   0 Cu:    0.000000
   1 Cu:   -0.000000

-------------------------------
LOEWDIN REDUCED ORBITAL CHARGES
-------------------------------
  0 Cus       :     6.852432  s :     6.852432
      pz      :     4.125487  p :    12.136833
      px      :     4.005673
      py      :     4.005673
      dz2     :     2.021872  d :    10.010276
      dxz     :     1.994218
      dyz     :     1.994218
      dx2y2   :     1.999984
      dxy     :     1.999984
      f0      :     0.000208  f :     0.000457
      f+1     :     0.000109
      f-1     :     0.000109
      f+2     :     0.000016
      f-2     :     0.000016
      f+3     :     0.000000
      f-3     :     0.000000
      g0      :     0.000000  g :     0.000001
      g+1     :     0.000000
      g-1     :     0.000000
      g+2     :     0.000000
      g-2     :     0.000000
      g+3     :     0.000000
      g-3     :     0.000000
      g+4     :     0.000000
      g-4     :     0.000000
  1 Cus       :     6.852433  s :     6.852433
      pz      :     4.125488  p :    12.136833
      px      :     4.005673
      py      :     4.005673
      dz2     :     2.021872  d :    10.010276
      dxz     :     1.994218
      dyz     :     1.994218
      dx2y2   :     1.999984
      dxy     :     1.999984
      f0      :     0.000208  f :     0.000457
      f+1     :     0.000109
      f-1     :     0.000109
      f+2     :     0.000016
      f-2     :     0.000016
      f+3     :     0.000000
      f-3     :     0.000000
      g0      :     0.000000  g :     0.000001
      g+1     :     0.000000
      g-1     :     0.000000
      g+2     :     0.000000
      g-2     :     0.000000
      g+3     :     0.000000
      g-3     :     0.000000
      g+4     :     0.000000
      g-4     :     0.000000


                      *****************************
                      * MAYER POPULATION ANALYSIS *
                      *****************************

  NA   - Mulliken gross atomic population
  ZA   - Total nuclear charge
  QA   - Mulliken gross atomic charge
  VA   - Mayer's total valence
  BVA  - Mayer's bonded valence
  FA   - Mayer's free valence

  ATOM       NA         ZA         QA         VA         BVA        FA
  0 Cu    29.0000    29.0000     0.0000     1.0414     1.0414    -0.0000
  1 Cu    29.0000    29.0000    -0.0000     1.0414     1.0414    -0.0000

  Mayer bond orders larger than 0.100000
B(  0-Cu,  1-Cu) :   1.0414 

-------
TIMINGS
-------

Total SCF time: 0 days 0 hours 0 min 2 sec 

Total time                  ....       2.947 sec
Sum of individual times     ....       2.799 sec  ( 95.0%)

Fock matrix formation       ....       2.364 sec  ( 80.2%)
  XC integration            ....       0.165 sec  (  7.0% of F)
    Basis function eval.    ....       0.026 sec  ( 16.1% of XC)
    Density eval.           ....       0.015 sec  (  8.9% of XC)
    XC-Functional eval.     ....       0.009 sec  (  5.2% of XC)
    XC-Potential eval.      ....       0.026 sec  ( 15.8% of XC)
Diagonalization             ....       0.033 sec  (  1.1%)
Density matrix formation    ....       0.005 sec  (  0.2%)
Population analysis         ....       0.004 sec  (  0.1%)
Initial guess               ....       0.103 sec  (  3.5%)
Orbital Transformation      ....       0.000 sec  (  0.0%)
Orbital Orthonormalization  ....       0.000 sec  (  0.0%)
DIIS solution               ....       0.016 sec  (  0.5%)
Grid generation             ....       0.275 sec  (  9.3%)


           ************************************************************
           *        Program running with 24 parallel MPI-processes    *
           *              working on a common directory               *
           ************************************************************

------------------------------------------------------------------------------
                                ORCA  MP2 
------------------------------------------------------------------------------

Freezing NCore=20 chemical core electrons

-------------
RI-MP2 ENERGY
-------------
Dimension of the basis                    ...  134
Memory devoted to MP2                     ... 5000 MB   
Data format for buffers                   ... DOUBLE
Compression type for matrix containers    ... UNCOMPRESSED
Scaling for aa/bb pairs                   ...   4.000e-01
Scaling for ab pairs                      ...   4.700e-01
Overall scaling of the MP2 energy         ...   1.000e+00
Calculating two index integrals           ... done (    0.009 sec)
Cholesky decomposition of V**-1           ... done (    0.014 sec)

-----------------
RI-TRANSFORMATION (AUX index driven)
-----------------

Dimension of the orbital-basis         ... 134
Dimension of the aux-basis             ... 450
Transformation of internal/external MOs...   10-  28 to   29- 133
Number Format for Storage              ... Double (8 Byte)
Integral mode                          ... Direct

First Phase: integral generation and transformation of MO indices
  Aux angular momentum 0               ... done (    0.001 sec)
  Aux angular momentum 1               ... done (    0.001 sec)
  Aux angular momentum 2               ... done (    0.001 sec)
  Aux angular momentum 3               ... done (    0.002 sec)
  Aux angular momentum 4               ... done (    0.003 sec)
  Aux angular momentum 5               ... done (    0.005 sec)
  Aux angular momentum 6               ... done (    0.007 sec)
Closing buffer VIA ( 0.01 GB; CompressionRatio= 1.00)
  Phase 1 completed in     0.137 sec
Second Phase: sorting and transformation of aux index

IA-Transformation
Memory available                       ... 4998 MB 
Max. # MO pairs treated in a batch     ... 1    
# of internal orbitals                 ... 19
# batches for internal orbitals        ... 1
Closing buffer IAV ( 0.00 GB; CompressionRatio= 1.00)
(ia|v) transformation done in     0.005 sec

  Phase 2 completed in     0.013 sec
RI-Integral transformation completed in     0.151 sec
Opening buffers                              ... done

Starting loop over batches of integrals:

Operator 0  - window                       ... ( 10- 28)x( 29-133)
Operator 0  - Memory available             ...  5000 MB
Operator 0  - Memory needed per MO         ...   0.4 MB
Operator 0  - Number of orbitals per batch ... 1
Operator 0  - Number of batches            ... 1

OPERATOR  0   PASS   0:  MOs    10 ...   10 +   11 ...   11 +   12 ...   12 +   13 ...   13
                            +   14 ...   14 +   15 ...   15 +   16 ...   16 +   17 ...   17
                            +   18 ...   18 +   19 ...   19 +   20 ...   20 +   21 ...   21
                            +   22 ...   22 +   23 ...   23 +   24 ...   24 +   25 ...   25
                            +   26 ...   26 +   27 ...   27 +   28 ...   28
  Reading integrals       ... ok
Time spent in pair loops =     0.001 sec
Deleting buffer (Ka|jb)[aa] ...done

-----------------------------------------------
 RI-MP2 CORRELATION ENERGY:     -0.841746386 Eh
-----------------------------------------------


-------
TIMINGS
-------

Total time                :    0.202 sec
Integral trafo            :    0.169 sec ( 83.9%)
I/O of integrals          :    0.000 sec (  0.2%)
K(i,j) Operators          :    0.000 sec (  0.1%)
T(i,j) pair energies      :    0.000 sec (  0.0%)
V-calculation             :    0.009 sec (  4.6%)
V**(-1/2)                 :    0.014 sec (  7.1%)
Gamma(ia|P)               :    0.000 sec (  0.0%)
Gamma-Trafo               :    0.000 sec (  0.0%)
D(virtual)                :    0.000 sec (  0.0%)
D(internal)               :    0.000 sec (  0.0%)
W(virtual)                :    0.000 sec (  0.0%)
W(internal)               :    0.000 sec (  0.0%)
L(virtual)                :    0.000 sec (  0.0%)
L(internal)               :    0.000 sec (  0.0%)
G(D)                      :    0.000 sec (  0.0%)
G(Z)                      :    0.000 sec (  0.0%)
Z-Vector Solution         :    0.000 sec (  0.0%)
Z-Vector Solution         :    0.000 sec (  0.0%)
3-Index Derivative 
+ Separable RIJ part      :    0.000 sec (  0.0%)
2-Index Derivative 
+ Separable RIJ part      :    0.000 sec (  0.0%)
Separable Gradient (X)    :    0.000 sec (  0.0%)


---------------------------------------
MP2 TOTAL ENERGY:    -3280.361766540 Eh
---------------------------------------


-------------------------------------------------------------------------------
                          DFT DISPERSION CORRECTION                            
                                                                               
                              DFTD3 V3.1  Rev 1                                
                          USING Becke-Johnson damping                          
-------------------------------------------------------------------------------
The DSD-BLYP/2013 functional is recognized
Active option DFTDOPT                   ...         4   

molecular C6(AA) [au] = 711.571600 


            DFT-D V3
 parameters
 s6 scaling factor         :     0.5700 
 a1 scaling factor         :     0.0000 
 s8 scaling factor         :     0.0000 
 a2 scaling factor         :     5.4000 
 ad hoc parameters k1-k3   :    16.0000     1.3333    -4.0000 

 Edisp/kcal,au: -2.108813357736  -0.003360607640 
 E6   /kcal   :  -2.108813358 
 E8   /kcal   :  -0.000000000 
 % E8         :   0.000000000 

-------------------------   ----------------
Dispersion correction           -0.003360608
-------------------------   ----------------


-------------------------   --------------------
FINAL SINGLE POINT ENERGY     -3280.365127147575
-------------------------   --------------------


                            ***************************************
                            *     ORCA property calculations      *
                            ***************************************


  WARNING: The energy has been calculated at the MP2 level but the densities
           used in the property calculations are still SCF densities
           MP2 response densities have not been calculated 
           use %mp2 Density relaxed end
           or  %mp2 Density unrelaxed end

                                    ---------------------
                                    Active property flags
                                    ---------------------
   (+) Dipole Moment


------------------------------------------------------------------------------
                       ORCA ELECTRIC PROPERTIES CALCULATION
------------------------------------------------------------------------------

Dipole Moment Calculation                       ... on
Quadrupole Moment Calculation                   ... off
Polarizability Calculation                      ... off
GBWName                                         ... Cu02N0.gbw
Electron density file                           ... Cu02N0.scfp
The origin for moment calculation is the CENTER OF MASS  = ( 0.000000,  0.000000  0.000000)

-------------
DIPOLE MOMENT
-------------
                                X             Y             Z
Electronic contribution:      0.00000      -0.00000      -0.00000
Nuclear contribution   :      0.00000       0.00000       0.00000
                        -----------------------------------------
Total Dipole Moment    :      0.00000      -0.00000      -0.00000
                        -----------------------------------------
Magnitude (a.u.)       :      0.00000
Magnitude (Debye)      :      0.00000



--------------------
Rotational spectrum 
--------------------
 
Rotational constants in cm-1:     0.000000     0.108136     0.108136 
Rotational constants in MHz :     0.000000  3241.846344  3241.846344 

 Dipole components along the rotational axes: 
x,y,z [a.u.] :    -0.000000    -0.000000     0.000000 
x,y,z [Debye]:    -0.000001    -0.000000     0.000000 

 

Timings for individual modules:

Sum of individual times         ...        4.933 sec (=   0.082 min)
GTO integral calculation        ...        0.803 sec (=   0.013 min)  16.3 %
SCF iterations                  ...        3.374 sec (=   0.056 min)  68.4 %
MP2 module                      ...        0.757 sec (=   0.013 min)  15.3 %
                             ****ORCA TERMINATED NORMALLY****
TOTAL RUN TIME: 0 days 0 hours 0 minutes 5 seconds 521 msec
