
                                 *****************
                                 * O   R   C   A *
                                 *****************

           --- An Ab Initio, DFT and Semiempirical electronic structure package ---

                  #######################################################
                  #                        -***-                        #
                  #          Department of theory and spectroscopy      #
                  #               Directorship: Frank Neese             #
                  #        Max Planck Institute fuer Kohlenforschung    #
                  #                Kaiser Wilhelm Platz 1               #
                  #                 D-45470 Muelheim/Ruhr               #
                  #                      Germany                        #
                  #                                                     #
                  #                  All rights reserved                #
                  #                        -***-                        #
                  #######################################################


                         Program Version 4.2.0 -  RELEASE  -


 With contributions from (in alphabetic order):
   Daniel Aravena         : Magnetic Suceptibility
   Michael Atanasov       : Ab Initio Ligand Field Theory (pilot matlab implementation)
   Alexander A. Auer      : GIAO ZORA, VPT2
   Ute Becker             : Parallelization
   Giovanni Bistoni       : ED, misc. LED, open-shell LED, HFLED
   Martin Brehm           : Molecular dynamics
   Dmytro Bykov           : SCF Hessian
   Vijay G. Chilkuri      : MRCI spin determinant printing, contributions to CSF-ICE
   Dipayan Datta          : RHF DLPNO-CCSD density
   Achintya Kumar Dutta   : EOM-CC, STEOM-CC
   Dmitry Ganyushin       : Spin-Orbit,Spin-Spin,Magnetic field MRCI
   Miquel Garcia          : C-PCM Hessian, Gaussian charge scheme
   Yang Guo               : DLPNO-NEVPT2, CIM, IAO-localization
   Andreas Hansen         : Spin unrestricted coupled pair/coupled cluster methods
   Benjamin Helmich-Paris : CASSCF linear response (MC-RPA)
   Lee Huntington         : MR-EOM, pCC
   Robert Izsak           : Overlap fitted RIJCOSX, COSX-SCS-MP3, EOM
   Christian Kollmar      : KDIIS, OOCD, Brueckner-CCSD(T), CCSD density
   Simone Kossmann        : Meta GGA functionals, TD-DFT gradient, OOMP2, MP2 Hessian
   Martin Krupicka        : AUTO-CI
   Lucas Lang             : DCDCAS
   Dagmar Lenk            : GEPOL surface, SMD
   Dimitrios Liakos       : Extrapolation schemes; Compound Job, initial MDCI parallelization
   Dimitrios Manganas     : Further ROCIS development; embedding schemes
   Dimitrios Pantazis     : SARC Basis sets
   Taras Petrenko         : DFT Hessian,TD-DFT gradient, ASA, ECA, R-Raman, ABS, FL, XAS/XES, NRVS
   Peter Pinski           : DLPNO-MP2, DLPNO-MP2 Gradient
   Christoph Reimann      : Effective Core Potentials
   Marius Retegan         : Local ZFS, SOC
   Christoph Riplinger    : Optimizer, TS searches, QM/MM, DLPNO-CCSD(T), (RO)-DLPNO pert. Triples
   Tobias Risthaus        : Range-separated hybrids, TD-DFT gradient, RPA, STAB
   Michael Roemelt        : Original ROCIS implementation
   Masaaki Saitow         : Open-shell DLPNO-CCSD energy and density
   Barbara Sandhoefer     : DKH picture change effects
   Avijit Sen             : IP-ROCIS
   Kantharuban Sivalingam : CASSCF convergence, NEVPT2, FIC-MRCI
   Bernardo de Souza      : ESD, SOC TD-DFT
   Georgi Stoychev        : AutoAux, RI-MP2 NMR
   Willem Van den Heuvel  : Paramagnetic NMR
   Boris Wezisla          : Elementary symmetry handling
   Frank Wennmohs         : Technical directorship


 We gratefully acknowledge several colleagues who have allowed us to
 interface, adapt or use parts of their codes:
   Stefan Grimme, W. Hujo, H. Kruse,             : VdW corrections, initial TS optimization,
                  C. Bannwarth                     DFT functionals, gCP, sTDA/sTD-DF
   Ed Valeev, F. Pavosevic, A. Kumar             : LibInt (2-el integral package), F12 methods
   Garnet Chan, S. Sharma, J. Yang, R. Olivares  : DMRG
   Ulf Ekstrom                                   : XCFun DFT Library
   Mihaly Kallay                                 : mrcc  (arbitrary order and MRCC methods)
   Andreas Klamt, Michael Diedenhofen            : otool_cosmo (COSMO solvation model)
   Jiri Pittner, Ondrej Demel                    : Mk-CCSD
   Frank Weinhold                                : gennbo (NPA and NBO analysis)
   Christopher J. Cramer and Donald G. Truhlar   : smd solvation model
   Lars Goerigk                                  : TD-DFT with DH, B97 family of functionals
   V. Asgeirsson, H. Jonsson                     : NEB implementation
   FAccTs GmbH                                   : IRC, NEB, NEB-TS, Multilevel, MM, QM/MM, CI optimization
   S Lehtola, MJT Oliveira, MAL Marques          : LibXC Library


 Your calculation uses the libint2 library for the computation of 2-el integrals
 For citations please refer to: http://libint.valeyev.net

 Your ORCA version has been built with support for libXC version: 4.2.3
 For citations please refer to: https://tddft.org/programs/libxc/

 This ORCA versions uses:
   CBLAS   interface :  Fast vector & matrix operations
   LAPACKE interface :  Fast linear algebra routines
   SCALAPACK package :  Parallel linear algebra routines


Your calculation utilizes the atom-pairwise dispersion correction
with the Becke-Johnson damping scheme (D3BJ)
Cite in your paper:
S.Grimme, S.Ehrlich, L.Goerigk, J Comput Chem, (2011), 32, 1456–1465 
S.Grimme, J.Antony, S.Ehrlich and H.Krieg, J.Chem.Phys., 132, (2010), 154104 
   

----- Orbital basis set information -----
Your calculation utilizes the basis: def2-TZVPPD
   F. Weigend and R. Ahlrichs, Phys. Chem. Chem. Phys. 7, 3297 (2005).
   D. Rappoport and F. Furche, J. Chem. Phys. 133 134105 (2010).

----- AuxC basis set information -----
Your calculation utilizes the auxiliary basis: def2-TZVPPD/C
   A. Hellweg, C. Hattig, S. Hofener and W. Klopper, Theor. Chem. Acc. 117, 587 (2007).

----- AuxJK basis set information -----
Your calculation utilizes the auxiliary basis: def2/JK
   H-Ba, Hf-Rn: F. Weigend, J. Comput. Chem. 29, 167 (2008).

================================================================================
                                        WARNINGS
                       Please study these warnings very carefully!
================================================================================


WARNING: No MP2 level density has been requested!
         To caclulate MP2 level properties use
         %mp2 Density relaxed end
         or
         %mp2 Density unrelaxed end
         Otherwise for double-hybrid DFT only the energy is correct!

WARNING: There are different parametrizations of Gershom Martin's DSD-DFs
         for use with and without D3(BJ)!
         You are using the D3(BJ) parametrized version,
         consistent with the 2013 article (S. Kozuch and J. M. L. Martin, JCC 2013, 34, 2327)

WARNING: The frozen-core approximation is turned on by default for 
         the MP2 part of double-hybrid DFT.

INFO   : the flag for use of LIBINT has been found!

================================================================================
                                       INPUT FILE
================================================================================
NAME = Cu03C1_D3H.in
|  1> #
|  2> # Cu03C1_D3H ri-DSD-BLYP/2013-D3BJ/Def2-TZVPPD
|  3> #
|  4> ! rijk ri-dsd-blyp/2013 d3bj def2-tzvppd def2/jk def2-tzvppd/c grid4 nofinalgrid
|  5> 
|  6> *xyz 1 1
|  7> Cu       0.000000    1.349261   -0.000000 
|  8> Cu       1.168494   -0.674630    0.000000 
|  9> Cu      -1.168494   -0.674630   -0.000000 
| 10> *
| 11> 
| 12> %maxcore 5000
| 13> 
| 14> %pal
| 15> nprocs = 24
| 16> end
| 17> 
| 18> 
| 19>                          ****END OF INPUT****
================================================================================

                       ****************************
                       * Single Point Calculation *
                       ****************************

---------------------------------
CARTESIAN COORDINATES (ANGSTROEM)
---------------------------------
  Cu     0.000000    1.349261   -0.000000
  Cu     1.168494   -0.674630    0.000000
  Cu    -1.168494   -0.674630   -0.000000

----------------------------
CARTESIAN COORDINATES (A.U.)
----------------------------
  NO LB      ZA    FRAG     MASS         X           Y           Z
   0 Cu   29.0000    0    63.550    0.000000    2.549734   -0.000000
   1 Cu   29.0000    0    63.550    2.208134   -1.274866    0.000000
   2 Cu   29.0000    0    63.550   -2.208134   -1.274866   -0.000000

--------------------------------
INTERNAL COORDINATES (ANGSTROEM)
--------------------------------
 Cu     0   0   0     0.000000000000     0.00000000     0.00000000
 Cu     1   0   0     2.336988020491     0.00000000     0.00000000
 Cu     2   1   0     2.336988000000    60.00000029     0.00000000

---------------------------
INTERNAL COORDINATES (A.U.)
---------------------------
 Cu     0   0   0     0.000000000000     0.00000000     0.00000000
 Cu     1   0   0     4.416267336982     0.00000000     0.00000000
 Cu     2   1   0     4.416267298260    60.00000029     0.00000000

---------------------
BASIS SET INFORMATION
---------------------
There are 1 groups of distinct atoms

 Group   1 Type Cu  : 17s13p7d2f1g contracted to 6s6p4d2f1g pattern {842111/631111/4111/11/1}

Atom   0Cu   basis set group =>   1
Atom   1Cu   basis set group =>   1
Atom   2Cu   basis set group =>   1
---------------------------------
AUXILIARY/C BASIS SET INFORMATION
---------------------------------
There are 1 groups of distinct atoms

 Group   1 Type Cu  : 10s10p9d7f5g3h1i contracted to 10s10p9d7f5g3h1i pattern {1111111111/1111111111/111111111/1111111/11111/111/1}

Atom   0Cu   basis set group =>   1
Atom   1Cu   basis set group =>   1
Atom   2Cu   basis set group =>   1
----------------------------------
AUXILIARY/JK BASIS SET INFORMATION
----------------------------------
There are 1 groups of distinct atoms

 Group   1 Type Cu  : 19s14p12d10f7g3h1i contracted to 16s13p11d9f5g3h1i pattern {4111111111111111/2111111111111/21111111111/211111111/31111/111/1}

Atom   0Cu   basis set group =>   1
Atom   1Cu   basis set group =>   1
Atom   2Cu   basis set group =>   1


           ************************************************************
           *        Program running with 24 parallel MPI-processes    *
           *              working on a common directory               *
           ************************************************************
------------------------------------------------------------------------------
                           ORCA GTO INTEGRAL CALCULATION
                           -- RI-GTO INTEGRALS CHOSEN --
------------------------------------------------------------------------------

                         BASIS SET STATISTICS AND STARTUP INFO

Gaussian basis set:
 # of primitive gaussian shells          ...  120
 # of primitive gaussian functions       ...  342
 # of contracted shells                  ...   57
 # of contracted basis functions         ...  201
 Highest angular momentum                ...    4
 Maximum contraction depth               ...    8
Auxiliary gaussian basis set:
 # of primitive gaussian shells          ...  198
 # of primitive gaussian functions       ...  900
 # of contracted shells                  ...  174
 # of contracted aux-basis functions     ...  792
 Highest angular momentum                ...    6
 Maximum contraction depth               ...    4
Ratio of auxiliary to basis functions    ...  3.94
Integral package used                  ... LIBINT
 One Electron integrals                  ... done
 Ordering auxiliary basis shells         ... done
 Integral threshhold             Thresh  ...  1.000e-10
 Primitive cut-off               TCut    ...  1.000e-11
 Pre-screening matrix                    ... done
 Shell pair data                         ... 
 Ordering of the shell pairs             ... done (   0.000 sec) 1533 of 1653 pairs
 Determination of significant pairs      ... done (   0.000 sec)
 Creation of shell pair data             ... done (   0.000 sec)
 Storage of shell pair data              ... done (   0.012 sec)
 Shell pair data done in (   0.012 sec)
 Computing two index integrals           ... done
 Cholesky decomposition of the V-matrix  ... done


Timings:
 Total evaluation time                   ...   0.367 sec (  0.006 min)
 One electron matrix time                ...   0.024 sec (  0.000 min) =  6.4%
 Schwartz matrix evaluation time         ...   0.175 sec (  0.003 min) = 47.8%
 Two index repulsion integral time       ...   0.110 sec (  0.002 min) = 29.9%
 Cholesky decomposition of V             ...   0.010 sec (  0.000 min) =  2.7%
 Three index repulsion integral time     ...   0.000 sec (  0.000 min) =  0.0%



           ************************************************************
           *        Program running with 24 parallel MPI-processes    *
           *              working on a common directory               *
           ************************************************************
-------------------------------------------------------------------------------
                                 ORCA SCF
-------------------------------------------------------------------------------

------------
SCF SETTINGS
------------
Hamiltonian:
 Density Functional     Method          .... DFT(GTOs)
 Exchange Functional    Exchange        .... B88
   X-Alpha parameter    XAlpha          ....  0.666667
   Becke's b parameter  XBeta           ....  0.004200
 Correlation Functional Correlation     .... LYP
 LDA part of GGA corr.  LDAOpt          .... VWN-5
 Gradients option       PostSCFGGA      .... off
 Hybrid DFT is turned on
   Fraction HF Exchange ScalHFX         ....  0.710000
   Scaling of DF-GGA-X  ScalDFX         ....  0.290000
   Scaling of DF-GGA-C  ScalDFC         ....  0.540000
   Scaling of DF-LDA-C  ScalLDAC        ....  0.540000
   Perturbative correction              ....  1.000000
   Density functional embedding theory  .... OFF
 RI-approximation to the Coulomb term is turned on
   Number of auxiliary basis functions  .... 792
   RI-JK (J+K treated both via RI)      .... on


General Settings:
 Integral files         IntName         .... Cu03C1_D3H
 Hartree-Fock type      HFTyp           .... RHF
 Total Charge           Charge          ....    1
 Multiplicity           Mult            ....    1
 Number of Electrons    NEL             ....   86
 Basis Dimension        Dim             ....  201
 Nuclear Repulsion      ENuc            ....    571.2969380830 Eh

Convergence Acceleration:
 DIIS                   CNVDIIS         .... on
   Start iteration      DIISMaxIt       ....    12
   Startup error        DIISStart       ....  0.200000
   # of expansion vecs  DIISMaxEq       ....     5
   Bias factor          DIISBfac        ....   1.050
   Max. coefficient     DIISMaxC        ....  10.000
 Newton-Raphson         CNVNR           .... off
 SOSCF                  CNVSOSCF        .... off
 Level Shifting         CNVShift        .... on
   Level shift para.    LevelShift      ....    0.2500
   Turn off err/grad.   ShiftErr        ....    0.0010
 Zerner damping         CNVZerner       .... off
 Static damping         CNVDamp         .... on
   Fraction old density DampFac         ....    0.7000
   Max. Damping (<1)    DampMax         ....    0.9800
   Min. Damping (>=0)   DampMin         ....    0.0000
   Turn off err/grad.   DampErr         ....    0.1000
 Fernandez-Rico         CNVRico         .... off

SCF Procedure:
 Maximum # iterations   MaxIter         ....   125
 SCF integral mode      SCFMode         .... Direct
   Integral package                     .... LIBINT
 Reset frequency        DirectResetFreq ....    20
 Integral Threshold     Thresh          ....  1.000e-10 Eh
 Primitive CutOff       TCut            ....  1.000e-11 Eh

Convergence Tolerance:
 Convergence Check Mode ConvCheckMode   .... Total+1el-Energy
 Convergence forced     ConvForced      .... 0
 Energy Change          TolE            ....  1.000e-06 Eh
 1-El. energy change                    ....  1.000e-03 Eh
 DIIS Error             TolErr          ....  1.000e-06


Diagonalization of the overlap matrix:
Smallest eigenvalue                        ... 7.677e-04
Time for diagonalization                   ...    0.008 sec
Threshold for overlap eigenvalues          ... 1.000e-08
Number of eigenvalues below threshold      ... 0
Time for construction of square roots      ...    0.005 sec
Total time needed                          ...    0.013 sec

-------------------
DFT GRID GENERATION
-------------------

General Integration Accuracy     IntAcc      ...  4.670
Radial Grid Type                 RadialGrid  ... Gauss-Chebyshev
Angular Grid (max. acc.)         AngularGrid ... Lebedev-302
Angular grid pruning method      GridPruning ... 3 (G Style)
Weight generation scheme         WeightScheme... Becke
Basis function cutoff            BFCut       ...    1.0000e-10
Integration weight cutoff        WCut        ...    1.0000e-14
Grids for H and He will be reduced by one unit

# of grid points (after initial pruning)     ...  28668 (   0.0 sec)
# of grid points (after weights+screening)   ...  28566 (   0.0 sec)
nearest neighbour list constructed           ...    0.0 sec
Grid point re-assignment to atoms done       ...    0.0 sec
Grid point division into batches done        ...    0.2 sec
Reduced shell lists constructed in    0.2 sec

Total number of grid points                  ...    28566
Total number of batches                      ...      448
Average number of points per batch           ...       63
Average number of grid points per atom       ...     9522
Average number of shells per batch           ...    12.85 (22.54%)
Average number of basis functions per batch  ...    35.55 (17.69%)
Average number of large shells per batch     ...     9.10 (70.82%)
Average number of large basis fcns per batch ...    24.40 (68.64%)
Average number of aux-shells per batch       ...    12.85 ( 7.39%)
Average number of aux functions per batch    ...    35.55 ( 4.49%)
Maximum spatial batch extension              ...  20.08, 17.16, 22.17 au
Average spatial batch extension              ...   0.56,  0.48,  0.54 au

Time for grid setup =    0.279 sec

------------------------------
INITIAL GUESS: MODEL POTENTIAL
------------------------------
Loading Hartree-Fock densities                     ... done
Calculating cut-offs                               ... done
Setting up the integral package                    ... done
Initializing the effective Hamiltonian             ... done
Starting the Coulomb interaction                   ... done (   0.0 sec)
Reading the grid                                   ... done
Mapping shells                                     ... done
Starting the XC term evaluation                    ... done (   0.0 sec)
  promolecular density results
     # of electrons  =     87.000078799
     EX              =   -197.429217878
     EC              =     -0.607083655
     EX+EC           =   -198.036301533
Transforming the Hamiltonian                       ... done (   0.0 sec)
Diagonalizing the Hamiltonian                      ... done (   0.0 sec)
Back transforming the eigenvectors                 ... done (   0.0 sec)
Now organizing SCF variables                       ... done
                      ------------------
                      INITIAL GUESS DONE (   0.4 sec)
                      ------------------
--------------
SCF ITERATIONS
--------------
ITER       Energy         Delta-E        Max-DP      RMS-DP      [F,P]     Damp
  0  -4919.0212533906   0.000000000000 0.03317151  0.00078579  0.0707630 0.7000
  1  -4919.0382383206  -0.016984929981 0.03690158  0.00082471  0.0498753 0.7000
                               ***Turning on DIIS***
  2  -4919.0831734939  -0.044935173320 0.10862531  0.00222974  0.0342833 0.0000
  3  -4919.0877290056  -0.004555511706 0.01337646  0.00035635  0.0304306 0.0000
  4  -4919.0920353448  -0.004306339187 0.00839523  0.00015718  0.0072747 0.0000
  5  -4919.0923766204  -0.000341275560 0.00453969  0.00008118  0.0060360 0.0000
  6  -4919.0925080984  -0.000131478049 0.00286822  0.00004720  0.0029955 0.0000
  7  -4919.0925510848  -0.000042986368 0.00204142  0.00003822  0.0009498 0.0000
  8  -4919.0925631684  -0.000012083655 0.00045794  0.00000988  0.0002138 0.0000
  9  -4919.0925640752  -0.000000906794 0.00021512  0.00000332  0.0000590 0.0000
                 **** Energy Check signals convergence ****

               *****************************************************
               *                     SUCCESS                       *
               *           SCF CONVERGED AFTER  10 CYCLES          *
               *****************************************************


----------------
TOTAL SCF ENERGY
----------------

Total Energy       :        -4919.09256417 Eh         -133855.31374 eV

Components:
Nuclear Repulsion  :          571.29693808 Eh           15545.78002 eV
Electronic Energy  :        -5490.38950225 Eh         -149401.09376 eV
One Electron Energy:        -7992.01954203 Eh         -217473.90790 eV
Two Electron Energy:         2501.63003978 Eh           68072.81414 eV

Virial components:
Potential Energy   :        -9834.71620680 Eh         -267616.23333 eV
Kinetic Energy     :         4915.62364263 Eh          133760.91959 eV
Virial Ratio       :            2.00070569


DFT components:
N(Alpha)           :       42.999999078604 electrons
N(Beta)            :       42.999999078604 electrons
N(Total)           :       85.999998157207 electrons
E(X)               :      -57.394161322968 Eh       
E(C)               :       -2.234811106778 Eh       
E(XC)              :      -59.628972429746 Eh       
DFET-embed. en.    :        0.000000000000 Eh       

---------------
SCF CONVERGENCE
---------------

  Last Energy change         ...   -9.4854e-08  Tolerance :   1.0000e-06
  Last MAX-Density change    ...    8.1776e-05  Tolerance :   1.0000e-05
  Last RMS-Density change    ...    1.1869e-06  Tolerance :   1.0000e-06
  Last DIIS Error            ...    2.1401e-05  Tolerance :   1.0000e-06

             **** THE GBW FILE WAS UPDATED (Cu03C1_D3H.gbw) ****
             **** DENSITY FILE WAS UPDATED (Cu03C1_D3H.scfp) ****
             **** ENERGY FILE WAS UPDATED (Cu03C1_D3H.en.tmp) ****
             **** THE GBW FILE WAS UPDATED (Cu03C1_D3H.gbw) ****
             **** DENSITY FILE WAS UPDATED (Cu03C1_D3H.scfp) ****
----------------
ORBITAL ENERGIES
----------------

  NO   OCC          E(Eh)            E(eV) 
   0   2.0000    -326.920364     -8895.9554 
   1   2.0000    -326.920361     -8895.9553 
   2   2.0000    -326.920350     -8895.9550 
   3   2.0000     -40.293312     -1096.4368 
   4   2.0000     -40.293307     -1096.4366 
   5   2.0000     -40.293283     -1096.4360 
   6   2.0000     -35.238915      -958.8996 
   7   2.0000     -35.238902      -958.8993 
   8   2.0000     -35.238895      -958.8991 
   9   2.0000     -35.238114      -958.8778 
  10   2.0000     -35.238113      -958.8778 
  11   2.0000     -35.238109      -958.8777 
  12   2.0000     -35.238109      -958.8777 
  13   2.0000     -35.238098      -958.8774 
  14   2.0000     -35.238096      -958.8774 
  15   2.0000      -4.952962      -134.7770 
  16   2.0000      -4.952338      -134.7600 
  17   2.0000      -4.952335      -134.7599 
  18   2.0000      -3.334580       -90.7385 
  19   2.0000      -3.332134       -90.6720 
  20   2.0000      -3.332132       -90.6719 
  21   2.0000      -3.329371       -90.5968 
  22   2.0000      -3.329041       -90.5878 
  23   2.0000      -3.329041       -90.5878 
  24   2.0000      -3.328816       -90.5817 
  25   2.0000      -3.328347       -90.5689 
  26   2.0000      -3.328345       -90.5689 
  27   2.0000      -0.653707       -17.7883 
  28   2.0000      -0.637240       -17.3402 
  29   2.0000      -0.636955       -17.3324 
  30   2.0000      -0.636949       -17.3323 
  31   2.0000      -0.625228       -17.0133 
  32   2.0000      -0.622170       -16.9301 
  33   2.0000      -0.622162       -16.9299 
  34   2.0000      -0.603648       -16.4261 
  35   2.0000      -0.603646       -16.4261 
  36   2.0000      -0.601504       -16.3678 
  37   2.0000      -0.596837       -16.2408 
  38   2.0000      -0.596816       -16.2402 
  39   2.0000      -0.595325       -16.1996 
  40   2.0000      -0.595309       -16.1992 
  41   2.0000      -0.575940       -15.6721 
  42   2.0000      -0.470976       -12.8159 
  43   0.0000      -0.196219        -5.3394 
  44   0.0000      -0.196219        -5.3394 
  45   0.0000      -0.151868        -4.1325 
  46   0.0000      -0.115222        -3.1354 
  47   0.0000      -0.092938        -2.5290 
  48   0.0000      -0.092938        -2.5290 
  49   0.0000      -0.062556        -1.7022 
  50   0.0000      -0.062556        -1.7022 
  51   0.0000      -0.041526        -1.1300 
  52   0.0000      -0.041525        -1.1299 
  53   0.0000      -0.012525        -0.3408 
  54   0.0000       0.003154         0.0858 
  55   0.0000       0.008989         0.2446 
  56   0.0000       0.024243         0.6597 
  57   0.0000       0.036288         0.9874 
  58   0.0000       0.036288         0.9875 
  59   0.0000       0.073568         2.0019 
  60   0.0000       0.073569         2.0019 
  61   0.0000       0.081894         2.2284 
  62   0.0000       0.098944         2.6924 
  63   0.0000       0.098947         2.6925 
  64   0.0000       0.103942         2.8284 
  65   0.0000       0.103943         2.8284 
  66   0.0000       0.118773         3.2320 
  67   0.0000       0.124693         3.3931 
  68   0.0000       0.124696         3.3931 
  69   0.0000       0.131192         3.5699 
  70   0.0000       0.180721         4.9177 
  71   0.0000       0.180722         4.9177 
  72   0.0000       0.200875         5.4661 
  73   0.0000       0.224028         6.0961 
  74   0.0000       0.240632         6.5479 
  75   0.0000       0.240633         6.5479 
  76   0.0000       0.242324         6.5940 
  77   0.0000       0.242324         6.5940 
  78   0.0000       0.356241         9.6938 
  79   0.0000       0.408922        11.1273 
  80   0.0000       0.408925        11.1274 
  81   0.0000       0.557223        15.1628 
  82   0.0000       0.561951        15.2915 
  83   0.0000       0.612310        16.6618 
  84   0.0000       0.612310        16.6618 
  85   0.0000       0.668343        18.1865 
  86   0.0000       0.668343        18.1865 
  87   0.0000       0.725308        19.7366 
  88   0.0000       0.733203        19.9515 
  89   0.0000       0.733204        19.9515 
  90   0.0000       0.754285        20.5251 
  91   0.0000       0.784894        21.3581 
  92   0.0000       0.784896        21.3581 
  93   0.0000       0.851446        23.1690 
  94   0.0000       0.871949        23.7269 
  95   0.0000       0.895814        24.3764 
  96   0.0000       0.895817        24.3764 
  97   0.0000       0.973237        26.4831 
  98   0.0000       0.995956        27.1013 
  99   0.0000       0.995960        27.1014 
 100   0.0000       1.039487        28.2859 
 101   0.0000       1.039490        28.2860 
 102   0.0000       1.229255        33.4497 
 103   0.0000       1.229260        33.4499 
 104   0.0000       1.238675        33.7061 
 105   0.0000       3.063839        83.3713 
 106   0.0000       3.141578        85.4867 
 107   0.0000       3.141581        85.4868 
 108   0.0000       3.142348        85.5076 
 109   0.0000       3.171645        86.3048 
 110   0.0000       3.171652        86.3050 
 111   0.0000       3.176584        86.4392 
 112   0.0000       3.176585        86.4393 
 113   0.0000       3.209434        87.3331 
 114   0.0000       3.299590        89.7864 
 115   0.0000       3.441857        93.6577 
 116   0.0000       3.467076        94.3439 
 117   0.0000       3.467079        94.3440 
 118   0.0000       3.470389        94.4341 
 119   0.0000       3.479834        94.6911 
 120   0.0000       3.479834        94.6911 
 121   0.0000       3.484214        94.8103 
 122   0.0000       3.486550        94.8739 
 123   0.0000       3.486554        94.8740 
 124   0.0000       3.487608        94.9026 
 125   0.0000       3.487611        94.9027 
 126   0.0000       3.489216        94.9464 
 127   0.0000       3.497446        95.1703 
 128   0.0000       3.498936        95.2109 
 129   0.0000       3.498942        95.2111 
 130   0.0000       3.507247        95.4370 
 131   0.0000       3.507263        95.4375 
 132   0.0000       3.532421        96.1221 
 133   0.0000       3.532426        96.1222 
 134   0.0000       3.532630        96.1278 
 135   0.0000       3.644465        99.1709 
 136   0.0000       3.723347       101.3174 
 137   0.0000       3.723355       101.3176 
 138   0.0000       3.829131       104.1960 
 139   0.0000       3.831423       104.2583 
 140   0.0000       3.831429       104.2585 
 141   0.0000       3.863716       105.1371 
 142   0.0000       3.884628       105.7061 
 143   0.0000       3.884631       105.7062 
 144   0.0000       3.903280       106.2137 
 145   0.0000       3.949652       107.4755 
 146   0.0000       3.949662       107.4758 
 147   0.0000       4.089463       111.2799 
 148   0.0000       4.089480       111.2804 
 149   0.0000       4.103034       111.6492 
 150   0.0000       4.122092       112.1678 
 151   0.0000       4.352468       118.4367 
 152   0.0000       4.352498       118.4375 
 153   0.0000      13.280720       361.3868 
 154   0.0000      13.281105       361.3972 
 155   0.0000      13.281385       361.4049 
 156   0.0000      13.281423       361.4059 
 157   0.0000      13.282051       361.4230 
 158   0.0000      13.282057       361.4231 
 159   0.0000      13.282068       361.4234 
 160   0.0000      13.282096       361.4242 
 161   0.0000      13.282143       361.4255 
 162   0.0000      13.282449       361.4338 
 163   0.0000      13.282699       361.4406 
 164   0.0000      13.282739       361.4417 
 165   0.0000      13.283259       361.4559 
 166   0.0000      13.283378       361.4591 
 167   0.0000      13.283669       361.4670 
 168   0.0000      13.283831       361.4714 
 169   0.0000      13.283884       361.4729 
 170   0.0000      13.283898       361.4733 
 171   0.0000      13.283946       361.4746 
 172   0.0000      13.284010       361.4763 
 173   0.0000      13.284049       361.4773 
 174   0.0000      13.284100       361.4787 
 175   0.0000      13.284104       361.4789 
 176   0.0000      13.284219       361.4820 
 177   0.0000      13.284231       361.4823 
 178   0.0000      13.285201       361.5087 
 179   0.0000      13.285256       361.5102 
 180   0.0000      13.504159       367.4668 
 181   0.0000      13.504185       367.4675 
 182   0.0000      13.504415       367.4738 
 183   0.0000      13.504419       367.4739 
 184   0.0000      13.504884       367.4866 
 185   0.0000      13.505179       367.4946 
 186   0.0000      13.506151       367.5210 
 187   0.0000      13.506151       367.5211 
 188   0.0000      13.506987       367.5438 
 189   0.0000      13.507701       367.5632 
 190   0.0000      13.507708       367.5634 
 191   0.0000      13.509658       367.6165 
 192   0.0000      13.515222       367.7679 
 193   0.0000      13.518024       367.8441 
 194   0.0000      13.521194       367.9304 
 195   0.0000      13.521202       367.9306 
 196   0.0000      13.523922       368.0046 
 197   0.0000      13.523929       368.0048 
 198   0.0000      13.601161       370.1064 
 199   0.0000      13.605264       370.2181 
 200   0.0000      13.605276       370.2184 

                    ********************************
                    * MULLIKEN POPULATION ANALYSIS *
                    ********************************

-----------------------
MULLIKEN ATOMIC CHARGES
-----------------------
   0 Cu:    0.333312
   1 Cu:    0.333341
   2 Cu:    0.333347
Sum of atomic charges:    1.0000000

--------------------------------
MULLIKEN REDUCED ORBITAL CHARGES
--------------------------------
  0 Cus       :     6.611103  s :     6.611103
      pz      :     4.006685  p :    12.097907
      px      :     4.005432
      py      :     4.085790
      dz2     :     1.995565  d :     9.957484
      dxz     :     1.998274
      dyz     :     1.994979
      dx2y2   :     1.990519
      dxy     :     1.978147
      f0      :     0.000019  f :     0.000194
      f+1     :     0.000009
      f-1     :     0.000034
      f+2     :     0.000017
      f-2     :     0.000026
      f+3     :     0.000042
      f-3     :     0.000047
      g0      :     0.000000  g :     0.000001
      g+1     :     0.000000
      g-1     :     0.000000
      g+2     :     0.000000
      g-2     :     0.000000
      g+3     :     0.000000
      g-3     :     0.000000
      g+4     :     0.000000
      g-4     :     0.000000
  1 Cus       :     6.611083  s :     6.611083
      pz      :     4.006685  p :    12.097897
      px      :     4.065694
      py      :     4.025518
      dz2     :     1.995564  d :     9.957485
      dxz     :     1.995803
      dyz     :     1.997450
      dx2y2   :     1.981243
      dxy     :     1.987424
      f0      :     0.000019  f :     0.000194
      f+1     :     0.000028
      f-1     :     0.000015
      f+2     :     0.000024
      f-2     :     0.000019
      f+3     :     0.000042
      f-3     :     0.000047
      g0      :     0.000000  g :     0.000001
      g+1     :     0.000000
      g-1     :     0.000000
      g+2     :     0.000000
      g-2     :     0.000000
      g+3     :     0.000000
      g-3     :     0.000000
      g+4     :     0.000000
      g-4     :     0.000000
  2 Cus       :     6.611078  s :     6.611078
      pz      :     4.006685  p :    12.097896
      px      :     4.065693
      py      :     4.025518
      dz2     :     1.995564  d :     9.957485
      dxz     :     1.995803
      dyz     :     1.997450
      dx2y2   :     1.981243
      dxy     :     1.987424
      f0      :     0.000019  f :     0.000194
      f+1     :     0.000028
      f-1     :     0.000015
      f+2     :     0.000024
      f-2     :     0.000019
      f+3     :     0.000042
      f-3     :     0.000047
      g0      :     0.000000  g :     0.000001
      g+1     :     0.000000
      g-1     :     0.000000
      g+2     :     0.000000
      g-2     :     0.000000
      g+3     :     0.000000
      g-3     :     0.000000
      g+4     :     0.000000
      g-4     :     0.000000


                     *******************************
                     * LOEWDIN POPULATION ANALYSIS *
                     *******************************

----------------------
LOEWDIN ATOMIC CHARGES
----------------------
   0 Cu:    0.333337
   1 Cu:    0.333331
   2 Cu:    0.333331

-------------------------------
LOEWDIN REDUCED ORBITAL CHARGES
-------------------------------
  0 Cus       :     6.450245  s :     6.450245
      pz      :     4.006986  p :    12.207638
      px      :     4.016586
      py      :     4.184066
      dz2     :     2.013141  d :    10.008285
      dxz     :     1.998226
      dyz     :     1.994659
      dx2y2   :     2.003066
      dxy     :     1.999193
      f0      :     0.000042  f :     0.000493
      f+1     :     0.000029
      f-1     :     0.000080
      f+2     :     0.000028
      f-2     :     0.000057
      f+3     :     0.000157
      f-3     :     0.000100
      g0      :     0.000000  g :     0.000002
      g+1     :     0.000000
      g-1     :     0.000000
      g+2     :     0.000000
      g-2     :     0.000000
      g+3     :     0.000000
      g-3     :     0.000000
      g+4     :     0.000000
      g-4     :     0.000000
  1 Cus       :     6.450249  s :     6.450249
      pz      :     4.006986  p :    12.207638
      px      :     4.142195
      py      :     4.058457
      dz2     :     2.013140  d :    10.008287
      dxz     :     1.995553
      dyz     :     1.997334
      dx2y2   :     2.000165
      dxy     :     2.002096
      f0      :     0.000042  f :     0.000493
      f+1     :     0.000067
      f-1     :     0.000042
      f+2     :     0.000050
      f-2     :     0.000035
      f+3     :     0.000157
      f-3     :     0.000100
      g0      :     0.000000  g :     0.000002
      g+1     :     0.000000
      g-1     :     0.000000
      g+2     :     0.000000
      g-2     :     0.000000
      g+3     :     0.000000
      g-3     :     0.000000
      g+4     :     0.000000
      g-4     :     0.000000
  2 Cus       :     6.450249  s :     6.450249
      pz      :     4.006986  p :    12.207638
      px      :     4.142195
      py      :     4.058457
      dz2     :     2.013140  d :    10.008287
      dxz     :     1.995553
      dyz     :     1.997334
      dx2y2   :     2.000165
      dxy     :     2.002096
      f0      :     0.000042  f :     0.000493
      f+1     :     0.000067
      f-1     :     0.000042
      f+2     :     0.000050
      f-2     :     0.000035
      f+3     :     0.000157
      f-3     :     0.000100
      g0      :     0.000000  g :     0.000002
      g+1     :     0.000000
      g-1     :     0.000000
      g+2     :     0.000000
      g-2     :     0.000000
      g+3     :     0.000000
      g-3     :     0.000000
      g+4     :     0.000000
      g-4     :     0.000000


                      *****************************
                      * MAYER POPULATION ANALYSIS *
                      *****************************

  NA   - Mulliken gross atomic population
  ZA   - Total nuclear charge
  QA   - Mulliken gross atomic charge
  VA   - Mayer's total valence
  BVA  - Mayer's bonded valence
  FA   - Mayer's free valence

  ATOM       NA         ZA         QA         VA         BVA        FA
  0 Cu    28.6667    29.0000     0.3333     0.9794     0.9794    -0.0000
  1 Cu    28.6667    29.0000     0.3333     0.9794     0.9794    -0.0000
  2 Cu    28.6667    29.0000     0.3333     0.9793     0.9793    -0.0000

  Mayer bond orders larger than 0.100000
B(  0-Cu,  1-Cu) :   0.4897 B(  0-Cu,  2-Cu) :   0.4897 B(  1-Cu,  2-Cu) :   0.4897 


-------
TIMINGS
-------

Total SCF time: 0 days 0 hours 0 min 4 sec 

Total time                  ....       4.548 sec
Sum of individual times     ....       4.417 sec  ( 97.1%)

Fock matrix formation       ....       3.935 sec  ( 86.5%)
  XC integration            ....       0.429 sec  ( 10.9% of F)
    Basis function eval.    ....       0.040 sec  (  9.4% of XC)
    Density eval.           ....       0.031 sec  (  7.1% of XC)
    XC-Functional eval.     ....       0.010 sec  (  2.3% of XC)
    XC-Potential eval.      ....       0.054 sec  ( 12.6% of XC)
Diagonalization             ....       0.062 sec  (  1.4%)
Density matrix formation    ....       0.009 sec  (  0.2%)
Population analysis         ....       0.006 sec  (  0.1%)
Initial guess               ....       0.097 sec  (  2.1%)
Orbital Transformation      ....       0.000 sec  (  0.0%)
Orbital Orthonormalization  ....       0.000 sec  (  0.0%)
DIIS solution               ....       0.029 sec  (  0.6%)
Grid generation             ....       0.279 sec  (  6.1%)


           ************************************************************
           *        Program running with 24 parallel MPI-processes    *
           *              working on a common directory               *
           ************************************************************

------------------------------------------------------------------------------
                                ORCA  MP2 
------------------------------------------------------------------------------

Freezing NCore=30 chemical core electrons

-------------
RI-MP2 ENERGY
-------------
Dimension of the basis                    ...  201
Memory devoted to MP2                     ... 5000 MB   
Data format for buffers                   ... DOUBLE
Compression type for matrix containers    ... UNCOMPRESSED
Scaling for aa/bb pairs                   ...   4.000e-01
Scaling for ab pairs                      ...   4.700e-01
Overall scaling of the MP2 energy         ...   1.000e+00
Calculating two index integrals           ... done (    0.017 sec)
Cholesky decomposition of V**-1           ... done (    0.025 sec)

-----------------
RI-TRANSFORMATION (AUX index driven)
-----------------

Dimension of the orbital-basis         ... 201
Dimension of the aux-basis             ... 675
Transformation of internal/external MOs...   15-  42 to   43- 200
Number Format for Storage              ... Double (8 Byte)
Integral mode                          ... Direct

First Phase: integral generation and transformation of MO indices
  Aux angular momentum 0               ... done (    0.002 sec)
  Aux angular momentum 1               ... done (    0.004 sec)
  Aux angular momentum 2               ... done (    0.006 sec)
  Aux angular momentum 3               ... done (    0.004 sec)
  Aux angular momentum 4               ... done (    0.006 sec)
  Aux angular momentum 5               ... done (    0.010 sec)
  Aux angular momentum 6               ... done (    0.014 sec)
Closing buffer VIA ( 0.02 GB; CompressionRatio= 1.00)
  Phase 1 completed in     0.117 sec
Second Phase: sorting and transformation of aux index

IA-Transformation
Memory available                       ... 4994 MB 
Max. # MO pairs treated in a batch     ... 2    
# of internal orbitals                 ... 28
# batches for internal orbitals        ... 1
Closing buffer IAV ( 0.00 GB; CompressionRatio= 1.00)
(ia|v) transformation done in     0.017 sec

  Phase 2 completed in     0.038 sec
RI-Integral transformation completed in     0.156 sec
Opening buffers                              ... done

Starting loop over batches of integrals:

Operator 0  - window                       ... ( 15- 42)x( 43-200)
Operator 0  - Memory available             ...  5000 MB
Operator 0  - Memory needed per MO         ...   0.8 MB
Operator 0  - Number of orbitals per batch ... 2
Operator 0  - Number of batches            ... 1

OPERATOR  0   PASS   0:  MOs    15 ...   16 +   17 ...   18 +   19 ...   20 +   21 ...   22
                            +   23 ...   24 +   25 ...   26 +   27 ...   28 +   29 ...   30
                            +   31 ...   32 +   33 ...   34 +   35 ...   36 +   37 ...   38
                            +   39 ...   40 +   41 ...   42
  Reading integrals       ... ok
Time spent in pair loops =     0.005 sec
Deleting buffer (Ka|jb)[aa] ...done

-----------------------------------------------
 RI-MP2 CORRELATION ENERGY:     -1.250053307 Eh
-----------------------------------------------


-------
TIMINGS
-------

Total time                :    0.263 sec
Integral trafo            :    0.171 sec ( 64.9%)
I/O of integrals          :    0.001 sec (  0.3%)
K(i,j) Operators          :    0.002 sec (  0.8%)
T(i,j) pair energies      :    0.000 sec (  0.1%)
V-calculation             :    0.017 sec (  6.3%)
V**(-1/2)                 :    0.025 sec (  9.4%)
Gamma(ia|P)               :    0.000 sec (  0.0%)
Gamma-Trafo               :    0.000 sec (  0.0%)
D(virtual)                :    0.000 sec (  0.0%)
D(internal)               :    0.000 sec (  0.0%)
W(virtual)                :    0.000 sec (  0.0%)
W(internal)               :    0.000 sec (  0.0%)
L(virtual)                :    0.000 sec (  0.0%)
L(internal)               :    0.000 sec (  0.0%)
G(D)                      :    0.000 sec (  0.0%)
G(Z)                      :    0.000 sec (  0.0%)
Z-Vector Solution         :    0.000 sec (  0.0%)
Z-Vector Solution         :    0.000 sec (  0.0%)
3-Index Derivative 
+ Separable RIJ part      :    0.000 sec (  0.0%)
2-Index Derivative 
+ Separable RIJ part      :    0.000 sec (  0.0%)
Separable Gradient (X)    :    0.000 sec (  0.0%)


---------------------------------------
MP2 TOTAL ENERGY:    -4920.342617477 Eh
---------------------------------------


-------------------------------------------------------------------------------
                          DFT DISPERSION CORRECTION                            
                                                                               
                              DFTD3 V3.1  Rev 1                                
                          USING Becke-Johnson damping                          
-------------------------------------------------------------------------------
The DSD-BLYP/2013 functional is recognized
Active option DFTDOPT                   ...         4   

molecular C6(AA) [au] = 1575.005828 


            DFT-D V3
 parameters
 s6 scaling factor         :     0.5700 
 a1 scaling factor         :     0.0000 
 s8 scaling factor         :     0.0000 
 a2 scaling factor         :     5.4000 
 ad hoc parameters k1-k3   :    16.0000     1.3333    -4.0000 

 Edisp/kcal,au: -5.829290406335  -0.009289564581 
 E6   /kcal   :  -5.829290406 
 E8   /kcal   :  -0.000000000 
 % E8         :   0.000000000 

-------------------------   ----------------
Dispersion correction           -0.009289565
-------------------------   ----------------


-------------------------   --------------------
FINAL SINGLE POINT ENERGY     -4920.351907041218
-------------------------   --------------------


                            ***************************************
                            *     ORCA property calculations      *
                            ***************************************


  WARNING: The energy has been calculated at the MP2 level but the densities
           used in the property calculations are still SCF densities
           MP2 response densities have not been calculated 
           use %mp2 Density relaxed end
           or  %mp2 Density unrelaxed end

                                    ---------------------
                                    Active property flags
                                    ---------------------
   (+) Dipole Moment


------------------------------------------------------------------------------
                       ORCA ELECTRIC PROPERTIES CALCULATION
------------------------------------------------------------------------------

Dipole Moment Calculation                       ... on
Quadrupole Moment Calculation                   ... off
Polarizability Calculation                      ... off
GBWName                                         ... Cu03C1_D3H.gbw
Electron density file                           ... Cu03C1_D3H.scfp
The origin for moment calculation is the CENTER OF MASS  = ( 0.000000,  0.000001  0.000000)

-------------
DIPOLE MOMENT
-------------
                                X             Y             Z
Electronic contribution:     -0.00000       0.00003      -0.00000
Nuclear contribution   :      0.00000       0.00000       0.00000
                        -----------------------------------------
Total Dipole Moment    :     -0.00000       0.00003      -0.00000
                        -----------------------------------------
Magnitude (a.u.)       :      0.00003
Magnitude (Debye)      :      0.00008



--------------------
Rotational spectrum 
--------------------
 
Rotational constants in cm-1:     0.097140     0.097140     0.048570 
Rotational constants in MHz :  2912.185801  2912.185732  1456.092883 

 Dipole components along the rotational axes: 
x,y,z [a.u.] :     0.000030    -0.000000    -0.000000 
x,y,z [Debye]:     0.000075    -0.000000    -0.000000 

 

Timings for individual modules:

Sum of individual times         ...        6.323 sec (=   0.105 min)
GTO integral calculation        ...        0.754 sec (=   0.013 min)  11.9 %
SCF iterations                  ...        4.879 sec (=   0.081 min)  77.2 %
MP2 module                      ...        0.690 sec (=   0.012 min)  10.9 %
                             ****ORCA TERMINATED NORMALLY****
TOTAL RUN TIME: 0 days 0 hours 0 minutes 6 seconds 829 msec
