
                                 *****************
                                 * O   R   C   A *
                                 *****************

           --- An Ab Initio, DFT and Semiempirical electronic structure package ---

                  #######################################################
                  #                        -***-                        #
                  #          Department of theory and spectroscopy      #
                  #               Directorship: Frank Neese             #
                  #        Max Planck Institute fuer Kohlenforschung    #
                  #                Kaiser Wilhelm Platz 1               #
                  #                 D-45470 Muelheim/Ruhr               #
                  #                      Germany                        #
                  #                                                     #
                  #                  All rights reserved                #
                  #                        -***-                        #
                  #######################################################


                         Program Version 4.2.0 -  RELEASE  -


 With contributions from (in alphabetic order):
   Daniel Aravena         : Magnetic Suceptibility
   Michael Atanasov       : Ab Initio Ligand Field Theory (pilot matlab implementation)
   Alexander A. Auer      : GIAO ZORA, VPT2
   Ute Becker             : Parallelization
   Giovanni Bistoni       : ED, misc. LED, open-shell LED, HFLED
   Martin Brehm           : Molecular dynamics
   Dmytro Bykov           : SCF Hessian
   Vijay G. Chilkuri      : MRCI spin determinant printing, contributions to CSF-ICE
   Dipayan Datta          : RHF DLPNO-CCSD density
   Achintya Kumar Dutta   : EOM-CC, STEOM-CC
   Dmitry Ganyushin       : Spin-Orbit,Spin-Spin,Magnetic field MRCI
   Miquel Garcia          : C-PCM Hessian, Gaussian charge scheme
   Yang Guo               : DLPNO-NEVPT2, CIM, IAO-localization
   Andreas Hansen         : Spin unrestricted coupled pair/coupled cluster methods
   Benjamin Helmich-Paris : CASSCF linear response (MC-RPA)
   Lee Huntington         : MR-EOM, pCC
   Robert Izsak           : Overlap fitted RIJCOSX, COSX-SCS-MP3, EOM
   Christian Kollmar      : KDIIS, OOCD, Brueckner-CCSD(T), CCSD density
   Simone Kossmann        : Meta GGA functionals, TD-DFT gradient, OOMP2, MP2 Hessian
   Martin Krupicka        : AUTO-CI
   Lucas Lang             : DCDCAS
   Dagmar Lenk            : GEPOL surface, SMD
   Dimitrios Liakos       : Extrapolation schemes; Compound Job, initial MDCI parallelization
   Dimitrios Manganas     : Further ROCIS development; embedding schemes
   Dimitrios Pantazis     : SARC Basis sets
   Taras Petrenko         : DFT Hessian,TD-DFT gradient, ASA, ECA, R-Raman, ABS, FL, XAS/XES, NRVS
   Peter Pinski           : DLPNO-MP2, DLPNO-MP2 Gradient
   Christoph Reimann      : Effective Core Potentials
   Marius Retegan         : Local ZFS, SOC
   Christoph Riplinger    : Optimizer, TS searches, QM/MM, DLPNO-CCSD(T), (RO)-DLPNO pert. Triples
   Tobias Risthaus        : Range-separated hybrids, TD-DFT gradient, RPA, STAB
   Michael Roemelt        : Original ROCIS implementation
   Masaaki Saitow         : Open-shell DLPNO-CCSD energy and density
   Barbara Sandhoefer     : DKH picture change effects
   Avijit Sen             : IP-ROCIS
   Kantharuban Sivalingam : CASSCF convergence, NEVPT2, FIC-MRCI
   Bernardo de Souza      : ESD, SOC TD-DFT
   Georgi Stoychev        : AutoAux, RI-MP2 NMR
   Willem Van den Heuvel  : Paramagnetic NMR
   Boris Wezisla          : Elementary symmetry handling
   Frank Wennmohs         : Technical directorship


 We gratefully acknowledge several colleagues who have allowed us to
 interface, adapt or use parts of their codes:
   Stefan Grimme, W. Hujo, H. Kruse,             : VdW corrections, initial TS optimization,
                  C. Bannwarth                     DFT functionals, gCP, sTDA/sTD-DF
   Ed Valeev, F. Pavosevic, A. Kumar             : LibInt (2-el integral package), F12 methods
   Garnet Chan, S. Sharma, J. Yang, R. Olivares  : DMRG
   Ulf Ekstrom                                   : XCFun DFT Library
   Mihaly Kallay                                 : mrcc  (arbitrary order and MRCC methods)
   Andreas Klamt, Michael Diedenhofen            : otool_cosmo (COSMO solvation model)
   Jiri Pittner, Ondrej Demel                    : Mk-CCSD
   Frank Weinhold                                : gennbo (NPA and NBO analysis)
   Christopher J. Cramer and Donald G. Truhlar   : smd solvation model
   Lars Goerigk                                  : TD-DFT with DH, B97 family of functionals
   V. Asgeirsson, H. Jonsson                     : NEB implementation
   FAccTs GmbH                                   : IRC, NEB, NEB-TS, Multilevel, MM, QM/MM, CI optimization
   S Lehtola, MJT Oliveira, MAL Marques          : LibXC Library


 Your calculation uses the libint2 library for the computation of 2-el integrals
 For citations please refer to: http://libint.valeyev.net

 Your ORCA version has been built with support for libXC version: 4.2.3
 For citations please refer to: https://tddft.org/programs/libxc/

 This ORCA versions uses:
   CBLAS   interface :  Fast vector & matrix operations
   LAPACKE interface :  Fast linear algebra routines
   SCALAPACK package :  Parallel linear algebra routines


Your calculation utilizes the atom-pairwise dispersion correction
with the Becke-Johnson damping scheme (D3BJ)
Cite in your paper:
S.Grimme, S.Ehrlich, L.Goerigk, J Comput Chem, (2011), 32, 1456–1465 
S.Grimme, J.Antony, S.Ehrlich and H.Krieg, J.Chem.Phys., 132, (2010), 154104 
   

----- Orbital basis set information -----
Your calculation utilizes the basis: def2-TZVPPD
   F. Weigend and R. Ahlrichs, Phys. Chem. Chem. Phys. 7, 3297 (2005).
   D. Rappoport and F. Furche, J. Chem. Phys. 133 134105 (2010).

----- AuxC basis set information -----
Your calculation utilizes the auxiliary basis: def2-TZVPPD/C
   A. Hellweg, C. Hattig, S. Hofener and W. Klopper, Theor. Chem. Acc. 117, 587 (2007).

----- AuxJK basis set information -----
Your calculation utilizes the auxiliary basis: def2/JK
   H-Ba, Hf-Rn: F. Weigend, J. Comput. Chem. 29, 167 (2008).

================================================================================
                                        WARNINGS
                       Please study these warnings very carefully!
================================================================================


WARNING: your system is open-shell and RHF/RKS was chosen
  ===> : WILL SWITCH to UHF/UKS


WARNING: No MP2 level density has been requested!
         To caclulate MP2 level properties use
         %mp2 Density relaxed end
         or
         %mp2 Density unrelaxed end
         Otherwise for double-hybrid DFT only the energy is correct!

WARNING: There are different parametrizations of Gershom Martin's DSD-DFs
         for use with and without D3(BJ)!
         You are using the D3(BJ) parametrized version,
         consistent with the 2013 article (S. Kozuch and J. M. L. Martin, JCC 2013, 34, 2327)

WARNING: The frozen-core approximation is turned on by default for 
         the MP2 part of double-hybrid DFT.

INFO   : the flag for use of LIBINT has been found!

================================================================================
                                       INPUT FILE
================================================================================
NAME = Cu03N0_LIN.in
|  1> #
|  2> # Cu03N0_LIN ri-DSD-BLYP/2013-D3BJ/Def2-TZVPPD
|  3> #
|  4> ! rijk ri-dsd-blyp/2013 d3bj def2-tzvppd def2/jk def2-tzvppd/c grid4 nofinalgrid
|  5> 
|  6> *xyz 0 2
|  7> Cu       0.000000    0.000000    0.000000 
|  8> Cu       0.000000    0.000000    2.291099 
|  9> Cu       0.000000    0.000000   -2.291099 
| 10> *
| 11> 
| 12> %maxcore 5000
| 13> 
| 14> %pal
| 15> nprocs = 24
| 16> end
| 17> 
| 18> 
| 19>                          ****END OF INPUT****
================================================================================

                       ****************************
                       * Single Point Calculation *
                       ****************************

---------------------------------
CARTESIAN COORDINATES (ANGSTROEM)
---------------------------------
  Cu     0.000000    0.000000    0.000000
  Cu     0.000000    0.000000    2.291099
  Cu     0.000000    0.000000   -2.291099

----------------------------
CARTESIAN COORDINATES (A.U.)
----------------------------
  NO LB      ZA    FRAG     MASS         X           Y           Z
   0 Cu   29.0000    0    63.550    0.000000    0.000000    0.000000
   1 Cu   29.0000    0    63.550    0.000000    0.000000    4.329550
   2 Cu   29.0000    0    63.550    0.000000    0.000000   -4.329550

--------------------------------
INTERNAL COORDINATES (ANGSTROEM)
--------------------------------
 Cu     0   0   0     0.000000000000     0.00000000     0.00000000
 Cu     1   0   0     2.291099000000     0.00000000     0.00000000
 Cu     1   2   0     2.291099000000   180.00000000     0.00000000

---------------------------
INTERNAL COORDINATES (A.U.)
---------------------------
 Cu     0   0   0     0.000000000000     0.00000000     0.00000000
 Cu     1   0   0     4.329549655701     0.00000000     0.00000000
 Cu     1   2   0     4.329549655701   180.00000000     0.00000000

---------------------
BASIS SET INFORMATION
---------------------
There are 1 groups of distinct atoms

 Group   1 Type Cu  : 17s13p7d2f1g contracted to 6s6p4d2f1g pattern {842111/631111/4111/11/1}

Atom   0Cu   basis set group =>   1
Atom   1Cu   basis set group =>   1
Atom   2Cu   basis set group =>   1
---------------------------------
AUXILIARY/C BASIS SET INFORMATION
---------------------------------
There are 1 groups of distinct atoms

 Group   1 Type Cu  : 10s10p9d7f5g3h1i contracted to 10s10p9d7f5g3h1i pattern {1111111111/1111111111/111111111/1111111/11111/111/1}

Atom   0Cu   basis set group =>   1
Atom   1Cu   basis set group =>   1
Atom   2Cu   basis set group =>   1
----------------------------------
AUXILIARY/JK BASIS SET INFORMATION
----------------------------------
There are 1 groups of distinct atoms

 Group   1 Type Cu  : 19s14p12d10f7g3h1i contracted to 16s13p11d9f5g3h1i pattern {4111111111111111/2111111111111/21111111111/211111111/31111/111/1}

Atom   0Cu   basis set group =>   1
Atom   1Cu   basis set group =>   1
Atom   2Cu   basis set group =>   1


           ************************************************************
           *        Program running with 24 parallel MPI-processes    *
           *              working on a common directory               *
           ************************************************************
------------------------------------------------------------------------------
                           ORCA GTO INTEGRAL CALCULATION
                           -- RI-GTO INTEGRALS CHOSEN --
------------------------------------------------------------------------------

                         BASIS SET STATISTICS AND STARTUP INFO

Gaussian basis set:
 # of primitive gaussian shells          ...  120
 # of primitive gaussian functions       ...  342
 # of contracted shells                  ...   57
 # of contracted basis functions         ...  201
 Highest angular momentum                ...    4
 Maximum contraction depth               ...    8
Auxiliary gaussian basis set:
 # of primitive gaussian shells          ...  198
 # of primitive gaussian functions       ...  900
 # of contracted shells                  ...  174
 # of contracted aux-basis functions     ...  792
 Highest angular momentum                ...    6
 Maximum contraction depth               ...    4
Ratio of auxiliary to basis functions    ...  3.94
Integral package used                  ... LIBINT
 One Electron integrals                  ... done
 Ordering auxiliary basis shells         ... done
 Integral threshhold             Thresh  ...  1.000e-10
 Primitive cut-off               TCut    ...  1.000e-11
 Pre-screening matrix                    ... done
 Shell pair data                         ... 
 Ordering of the shell pairs             ... done (   0.000 sec) 1434 of 1653 pairs
 Determination of significant pairs      ... done (   0.000 sec)
 Creation of shell pair data             ... done (   0.000 sec)
 Storage of shell pair data              ... done (   0.008 sec)
 Shell pair data done in (   0.008 sec)
 Computing two index integrals           ... done
 Cholesky decomposition of the V-matrix  ... done


Timings:
 Total evaluation time                   ...   0.459 sec (  0.008 min)
 One electron matrix time                ...   0.022 sec (  0.000 min) =  4.7%
 Schwartz matrix evaluation time         ...   0.195 sec (  0.003 min) = 42.5%
 Two index repulsion integral time       ...   0.113 sec (  0.002 min) = 24.6%
 Cholesky decomposition of V             ...   0.091 sec (  0.002 min) = 19.9%
 Three index repulsion integral time     ...   0.000 sec (  0.000 min) =  0.0%



           ************************************************************
           *        Program running with 24 parallel MPI-processes    *
           *              working on a common directory               *
           ************************************************************
-------------------------------------------------------------------------------
                                 ORCA SCF
-------------------------------------------------------------------------------

------------
SCF SETTINGS
------------
Hamiltonian:
 Density Functional     Method          .... DFT(GTOs)
 Exchange Functional    Exchange        .... B88
   X-Alpha parameter    XAlpha          ....  0.666667
   Becke's b parameter  XBeta           ....  0.004200
 Correlation Functional Correlation     .... LYP
 LDA part of GGA corr.  LDAOpt          .... VWN-5
 Gradients option       PostSCFGGA      .... off
 Hybrid DFT is turned on
   Fraction HF Exchange ScalHFX         ....  0.710000
   Scaling of DF-GGA-X  ScalDFX         ....  0.290000
   Scaling of DF-GGA-C  ScalDFC         ....  0.540000
   Scaling of DF-LDA-C  ScalLDAC        ....  0.540000
   Perturbative correction              ....  1.000000
   Density functional embedding theory  .... OFF
 RI-approximation to the Coulomb term is turned on
   Number of auxiliary basis functions  .... 792
   RI-JK (J+K treated both via RI)      .... on


General Settings:
 Integral files         IntName         .... Cu03N0_LIN
 Hartree-Fock type      HFTyp           .... UHF
 Total Charge           Charge          ....    0
 Multiplicity           Mult            ....    2
 Number of Electrons    NEL             ....   87
 Basis Dimension        Dim             ....  201
 Nuclear Repulsion      ENuc            ....    485.6163266846 Eh

Convergence Acceleration:
 DIIS                   CNVDIIS         .... on
   Start iteration      DIISMaxIt       ....    12
   Startup error        DIISStart       ....  0.200000
   # of expansion vecs  DIISMaxEq       ....     5
   Bias factor          DIISBfac        ....   1.050
   Max. coefficient     DIISMaxC        ....  10.000
 Newton-Raphson         CNVNR           .... off
 SOSCF                  CNVSOSCF        .... off
 Level Shifting         CNVShift        .... on
   Level shift para.    LevelShift      ....    0.2500
   Turn off err/grad.   ShiftErr        ....    0.0010
 Zerner damping         CNVZerner       .... off
 Static damping         CNVDamp         .... on
   Fraction old density DampFac         ....    0.7000
   Max. Damping (<1)    DampMax         ....    0.9800
   Min. Damping (>=0)   DampMin         ....    0.0000
   Turn off err/grad.   DampErr         ....    0.1000
 Fernandez-Rico         CNVRico         .... off

SCF Procedure:
 Maximum # iterations   MaxIter         ....   125
 SCF integral mode      SCFMode         .... Direct
   Integral package                     .... LIBINT
 Reset frequency        DirectResetFreq ....    20
 Integral Threshold     Thresh          ....  1.000e-10 Eh
 Primitive CutOff       TCut            ....  1.000e-11 Eh

Convergence Tolerance:
 Convergence Check Mode ConvCheckMode   .... Total+1el-Energy
 Convergence forced     ConvForced      .... 0
 Energy Change          TolE            ....  1.000e-06 Eh
 1-El. energy change                    ....  1.000e-03 Eh
 DIIS Error             TolErr          ....  1.000e-06


Diagonalization of the overlap matrix:
Smallest eigenvalue                        ... 3.321e-04
Time for diagonalization                   ...    0.025 sec
Threshold for overlap eigenvalues          ... 1.000e-08
Number of eigenvalues below threshold      ... 0
Time for construction of square roots      ...    0.005 sec
Total time needed                          ...    0.030 sec

-------------------
DFT GRID GENERATION
-------------------

General Integration Accuracy     IntAcc      ...  4.670
Radial Grid Type                 RadialGrid  ... Gauss-Chebyshev
Angular Grid (max. acc.)         AngularGrid ... Lebedev-302
Angular grid pruning method      GridPruning ... 3 (G Style)
Weight generation scheme         WeightScheme... Becke
Basis function cutoff            BFCut       ...    1.0000e-10
Integration weight cutoff        WCut        ...    1.0000e-14
Grids for H and He will be reduced by one unit

# of grid points (after initial pruning)     ...  28668 (   0.0 sec)
# of grid points (after weights+screening)   ...  28508 (   0.0 sec)
nearest neighbour list constructed           ...    0.0 sec
Grid point re-assignment to atoms done       ...    0.0 sec
Grid point division into batches done        ...    0.2 sec
Reduced shell lists constructed in    0.2 sec

Total number of grid points                  ...    28508
Total number of batches                      ...      447
Average number of points per batch           ...       63
Average number of grid points per atom       ...     9503
Average number of shells per batch           ...    18.10 (31.75%)
Average number of basis functions per batch  ...    52.30 (26.02%)
Average number of large shells per batch     ...    15.95 (88.12%)
Average number of large basis fcns per batch ...    46.25 (88.43%)
Average number of aux-shells per batch       ...    18.10 (10.40%)
Average number of aux functions per batch    ...    52.30 ( 6.60%)
Maximum spatial batch extension              ...  26.18, 26.18,  4.32 au
Average spatial batch extension              ...   0.42,  0.42,  0.18 au

Time for grid setup =    0.279 sec

------------------------------
INITIAL GUESS: MODEL POTENTIAL
------------------------------
Loading Hartree-Fock densities                     ... done
Calculating cut-offs                               ... done
Setting up the integral package                    ... done
Initializing the effective Hamiltonian             ... done
Starting the Coulomb interaction                   ... done (   0.0 sec)
Reading the grid                                   ... done
Mapping shells                                     ... done
Starting the XC term evaluation                    ... done (   0.0 sec)
  promolecular density results
     # of electrons  =     87.000073666
     EX              =   -197.386593093
     EC              =     -0.601807785
     EX+EC           =   -197.988400878
Transforming the Hamiltonian                       ... done (   0.0 sec)
Diagonalizing the Hamiltonian                      ... done (   0.0 sec)
Back transforming the eigenvectors                 ... done (   0.0 sec)
Now organizing SCF variables                       ... done
                      ------------------
                      INITIAL GUESS DONE (   0.4 sec)
                      ------------------
--------------
SCF ITERATIONS
--------------
ITER       Energy         Delta-E        Max-DP      RMS-DP      [F,P]     Damp
  0  -4919.1873211012   0.000000000000 0.07596607  0.00095111  0.1073899 0.7000
  1  -4918.9849830229   0.202338078305 0.07782223  0.00091688  0.0700154 0.7000
                               ***Turning on DIIS***
  2  -4919.0980430538  -0.113060030941 0.20609992  0.00234611  0.0451657 0.0000
  3  -4919.2658660881  -0.167823034289 0.02688472  0.00036272  0.0367441 0.0000
  4  -4919.2718111271  -0.005945038954 0.01333993  0.00016901  0.0224980 0.0000
  5  -4919.2730522066  -0.001241079494 0.00837432  0.00011472  0.0109747 0.0000
  6  -4919.2735743234  -0.000522116834 0.00783077  0.00009589  0.0027115 0.0000
  7  -4919.2737466587  -0.000172335249 0.00653771  0.00007340  0.0015422 0.0000
  8  -4919.2738273916  -0.000080732890 0.00730850  0.00008472  0.0009060 0.0000
  9  -4919.2738830568  -0.000055665292 0.00295624  0.00002937  0.0006123 0.0000
 10  -4919.2739000669  -0.000017010034 0.00264656  0.00001914  0.0001802 0.0000
 11  -4919.2739064124  -0.000006345509 0.00152911  0.00001127  0.0000989 0.0000
 12  -4919.2739080424  -0.000001630026 0.00071800  0.00000568  0.0001497 0.0000
 13  -4919.2739084464  -0.000000403977 0.00040571  0.00000322  0.0000386 0.0000
                 **** Energy Check signals convergence ****

               *****************************************************
               *                     SUCCESS                       *
               *           SCF CONVERGED AFTER  14 CYCLES          *
               *****************************************************


----------------
TOTAL SCF ENERGY
----------------

Total Energy       :        -4919.27390855 Eh         -133860.24838 eV

Components:
Nuclear Repulsion  :          485.61632668 Eh           13214.29205 eV
Electronic Energy  :        -5404.89023524 Eh         -147074.54043 eV
One Electron Energy:        -7838.72706266 Eh         -213302.60747 eV
Two Electron Energy:         2433.83682743 Eh           66228.06704 eV

Virial components:
Potential Energy   :        -9835.05842071 Eh         -267625.54545 eV
Kinetic Energy     :         4915.78451216 Eh          133765.29707 eV
Virial Ratio       :            2.00070984


DFT components:
N(Alpha)           :       44.000000258897 electrons
N(Beta)            :       43.000000014285 electrons
N(Total)           :       87.000000273181 electrons
E(X)               :      -57.433193310452 Eh       
E(C)               :       -2.242156275902 Eh       
E(XC)              :      -59.675349586354 Eh       
DFET-embed. en.    :        0.000000000000 Eh       

---------------
SCF CONVERGENCE
---------------

  Last Energy change         ...   -1.0516e-07  Tolerance :   1.0000e-06
  Last MAX-Density change    ...    1.4750e-04  Tolerance :   1.0000e-05
  Last RMS-Density change    ...    1.1378e-06  Tolerance :   1.0000e-06
  Last DIIS Error            ...    9.0070e-06  Tolerance :   1.0000e-06

             **** THE GBW FILE WAS UPDATED (Cu03N0_LIN.gbw) ****
             **** DENSITY FILE WAS UPDATED (Cu03N0_LIN.scfp) ****
             **** ENERGY FILE WAS UPDATED (Cu03N0_LIN.en.tmp) ****
----------------------
UHF SPIN CONTAMINATION
----------------------

Warning: in a DFT calculation there is little theoretical justification to 
         calculate <S**2> as in Hartree-Fock theory. We will do it anyways
         but you should keep in mind that the values have only limited relevance

Expectation value of <S**2>     :     0.798623
Ideal value S*(S+1) for S=0.5   :     0.750000
Deviation                       :     0.048623

             **** THE GBW FILE WAS UPDATED (Cu03N0_LIN.gbw) ****
             **** DENSITY FILE WAS UPDATED (Cu03N0_LIN.scfp) ****
----------------
ORBITAL ENERGIES
----------------
                 SPIN UP ORBITALS
  NO   OCC          E(Eh)            E(eV) 
   0   1.0000    -326.717504     -8890.4353 
   1   1.0000    -326.717501     -8890.4352 
   2   1.0000    -326.702015     -8890.0138 
   3   1.0000     -40.089894     -1090.9015 
   4   1.0000     -40.089883     -1090.9012 
   5   1.0000     -40.077222     -1090.5567 
   6   1.0000     -35.034587      -953.3396 
   7   1.0000     -35.034585      -953.3395 
   8   1.0000     -35.034259      -953.3307 
   9   1.0000     -35.034259      -953.3307 
  10   1.0000     -35.034257      -953.3306 
  11   1.0000     -35.034257      -953.3306 
  12   1.0000     -35.022435      -953.0089 
  13   1.0000     -35.021889      -952.9941 
  14   1.0000     -35.021889      -952.9941 
  15   1.0000      -4.749444      -129.2389 
  16   1.0000      -4.749438      -129.2388 
  17   1.0000      -4.734301      -128.8269 
  18   1.0000      -3.128031       -85.1181 
  19   1.0000      -3.127104       -85.0928 
  20   1.0000      -3.124295       -85.0164 
  21   1.0000      -3.124295       -85.0164 
  22   1.0000      -3.124295       -85.0164 
  23   1.0000      -3.124295       -85.0164 
  24   1.0000      -3.113990       -84.7360 
  25   1.0000      -3.109584       -84.6161 
  26   1.0000      -3.109584       -84.6161 
  27   1.0000      -0.443994       -12.0817 
  28   1.0000      -0.426456       -11.6045 
  29   1.0000      -0.426456       -11.6045 
  30   1.0000      -0.410692       -11.1755 
  31   1.0000      -0.410692       -11.1755 
  32   1.0000      -0.410074       -11.1587 
  33   1.0000      -0.408944       -11.1279 
  34   1.0000      -0.408941       -11.1279 
  35   1.0000      -0.407663       -11.0931 
  36   1.0000      -0.407659       -11.0930 
  37   1.0000      -0.390746       -10.6327 
  38   1.0000      -0.390741       -10.6326 
  39   1.0000      -0.376024       -10.2321 
  40   1.0000      -0.376024       -10.2321 
  41   1.0000      -0.368366       -10.0238 
  42   1.0000      -0.267483        -7.2786 
  43   1.0000      -0.215674        -5.8688 
  44   0.0000      -0.009741        -0.2651 
  45   0.0000       0.009131         0.2485 
  46   0.0000       0.009131         0.2485 
  47   0.0000       0.032879         0.8947 
  48   0.0000       0.043218         1.1760 
  49   0.0000       0.043218         1.1760 
  50   0.0000       0.088634         2.4119 
  51   0.0000       0.101791         2.7699 
  52   0.0000       0.101791         2.7699 
  53   0.0000       0.104171         2.8346 
  54   0.0000       0.127711         3.4752 
  55   0.0000       0.166185         4.5221 
  56   0.0000       0.166185         4.5221 
  57   0.0000       0.167272         4.5517 
  58   0.0000       0.189865         5.1665 
  59   0.0000       0.189865         5.1665 
  60   0.0000       0.210376         5.7246 
  61   0.0000       0.210376         5.7246 
  62   0.0000       0.224245         6.1020 
  63   0.0000       0.245048         6.6681 
  64   0.0000       0.245048         6.6681 
  65   0.0000       0.263766         7.1774 
  66   0.0000       0.263766         7.1774 
  67   0.0000       0.274928         7.4812 
  68   0.0000       0.280138         7.6229 
  69   0.0000       0.280138         7.6229 
  70   0.0000       0.296150         8.0586 
  71   0.0000       0.335049         9.1172 
  72   0.0000       0.335049         9.1172 
  73   0.0000       0.340933         9.2773 
  74   0.0000       0.397913        10.8278 
  75   0.0000       0.397913        10.8278 
  76   0.0000       0.435815        11.8591 
  77   0.0000       0.523170        14.2362 
  78   0.0000       0.523170        14.2362 
  79   0.0000       0.580433        15.7944 
  80   0.0000       0.649624        17.6772 
  81   0.0000       0.725272        19.7356 
  82   0.0000       0.768811        20.9204 
  83   0.0000       0.768811        20.9204 
  84   0.0000       0.797279        21.6951 
  85   0.0000       0.797279        21.6951 
  86   0.0000       0.864379        23.5210 
  87   0.0000       0.864379        23.5210 
  88   0.0000       0.881044        23.9744 
  89   0.0000       0.986010        26.8307 
  90   0.0000       0.986012        26.8308 
  91   0.0000       1.023940        27.8628 
  92   0.0000       1.023940        27.8628 
  93   0.0000       1.024772        27.8855 
  94   0.0000       1.028894        27.9976 
  95   0.0000       1.028895        27.9977 
  96   0.0000       1.095906        29.8211 
  97   0.0000       1.095906        29.8211 
  98   0.0000       1.105886        30.0927 
  99   0.0000       1.107529        30.1374 
 100   0.0000       1.107532        30.1375 
 101   0.0000       1.319635        35.9091 
 102   0.0000       1.319635        35.9091 
 103   0.0000       1.361314        37.0432 
 104   0.0000       1.659458        45.1562 
 105   0.0000       3.265253        88.8521 
 106   0.0000       3.265253        88.8521 
 107   0.0000       3.286223        89.4227 
 108   0.0000       3.345935        91.0475 
 109   0.0000       3.365895        91.5907 
 110   0.0000       3.365895        91.5907 
 111   0.0000       3.387051        92.1664 
 112   0.0000       3.387051        92.1664 
 113   0.0000       3.438336        93.5619 
 114   0.0000       3.512640        95.5838 
 115   0.0000       3.662287        99.6559 
 116   0.0000       3.666967        99.7832 
 117   0.0000       3.676029       100.0298 
 118   0.0000       3.676029       100.0298 
 119   0.0000       3.682648       100.2100 
 120   0.0000       3.682648       100.2100 
 121   0.0000       3.684067       100.2486 
 122   0.0000       3.684071       100.2487 
 123   0.0000       3.686126       100.3046 
 124   0.0000       3.686131       100.3047 
 125   0.0000       3.687991       100.3553 
 126   0.0000       3.687991       100.3553 
 127   0.0000       3.687994       100.3554 
 128   0.0000       3.687994       100.3554 
 129   0.0000       3.706737       100.8655 
 130   0.0000       3.706746       100.8657 
 131   0.0000       3.710364       100.9641 
 132   0.0000       3.710364       100.9641 
 133   0.0000       3.738428       101.7278 
 134   0.0000       3.738428       101.7278 
 135   0.0000       3.759003       102.2877 
 136   0.0000       3.923117       106.7534 
 137   0.0000       4.001876       108.8966 
 138   0.0000       4.001902       108.8973 
 139   0.0000       4.024669       109.5168 
 140   0.0000       4.024691       109.5174 
 141   0.0000       4.070902       110.7749 
 142   0.0000       4.070902       110.7749 
 143   0.0000       4.075263       110.8935 
 144   0.0000       4.075292       110.8943 
 145   0.0000       4.091438       111.3337 
 146   0.0000       4.119218       112.0896 
 147   0.0000       4.119218       112.0896 
 148   0.0000       4.220914       114.8569 
 149   0.0000       4.220914       114.8569 
 150   0.0000       4.358417       118.5985 
 151   0.0000       4.411458       120.0419 
 152   0.0000       4.776701       129.9806 
 153   0.0000      13.486245       366.9794 
 154   0.0000      13.486245       366.9794 
 155   0.0000      13.486730       366.9926 
 156   0.0000      13.486788       366.9942 
 157   0.0000      13.486998       366.9999 
 158   0.0000      13.487027       367.0007 
 159   0.0000      13.487027       367.0007 
 160   0.0000      13.487055       367.0014 
 161   0.0000      13.487273       367.0074 
 162   0.0000      13.487730       367.0198 
 163   0.0000      13.487988       367.0268 
 164   0.0000      13.487988       367.0268 
 165   0.0000      13.487992       367.0269 
 166   0.0000      13.487992       367.0269 
 167   0.0000      13.489230       367.0606 
 168   0.0000      13.489230       367.0606 
 169   0.0000      13.489299       367.0625 
 170   0.0000      13.489299       367.0625 
 171   0.0000      13.501242       367.3875 
 172   0.0000      13.501242       367.3875 
 173   0.0000      13.501436       367.3928 
 174   0.0000      13.501860       367.4043 
 175   0.0000      13.503376       367.4455 
 176   0.0000      13.503376       367.4455 
 177   0.0000      13.504712       367.4819 
 178   0.0000      13.505045       367.4910 
 179   0.0000      13.505138       367.4935 
 180   0.0000      13.709291       373.0488 
 181   0.0000      13.709291       373.0488 
 182   0.0000      13.710129       373.0716 
 183   0.0000      13.710196       373.0734 
 184   0.0000      13.711239       373.1018 
 185   0.0000      13.711306       373.1036 
 186   0.0000      13.711573       373.1109 
 187   0.0000      13.711573       373.1109 
 188   0.0000      13.711573       373.1109 
 189   0.0000      13.711573       373.1109 
 190   0.0000      13.716017       373.2318 
 191   0.0000      13.724572       373.4646 
 192   0.0000      13.724664       373.4671 
 193   0.0000      13.724937       373.4745 
 194   0.0000      13.724937       373.4745 
 195   0.0000      13.726122       373.5068 
 196   0.0000      13.726122       373.5068 
 197   0.0000      13.742116       373.9420 
 198   0.0000      13.742116       373.9420 
 199   0.0000      13.805270       375.6605 
 200   0.0000      13.844707       376.7336 

                 SPIN DOWN ORBITALS
  NO   OCC          E(Eh)            E(eV) 
   0   1.0000    -326.716341     -8890.4036 
   1   1.0000    -326.716338     -8890.4035 
   2   1.0000    -326.702159     -8890.0177 
   3   1.0000     -40.089906     -1090.9018 
   4   1.0000     -40.089895     -1090.9015 
   5   1.0000     -40.077968     -1090.5769 
   6   1.0000     -35.035691      -953.3696 
   7   1.0000     -35.035689      -953.3696 
   8   1.0000     -35.035154      -953.3550 
   9   1.0000     -35.035154      -953.3550 
  10   1.0000     -35.035152      -953.3550 
  11   1.0000     -35.035152      -953.3550 
  12   1.0000     -35.022548      -953.0120 
  13   1.0000     -35.022176      -953.0019 
  14   1.0000     -35.022176      -953.0019 
  15   1.0000      -4.748072      -129.2016 
  16   1.0000      -4.748069      -129.2015 
  17   1.0000      -4.735971      -128.8723 
  18   1.0000      -3.129317       -85.1530 
  19   1.0000      -3.128546       -85.1321 
  20   1.0000      -3.126114       -85.0659 
  21   1.0000      -3.126114       -85.0659 
  22   1.0000      -3.126104       -85.0656 
  23   1.0000      -3.126104       -85.0656 
  24   1.0000      -3.113823       -84.7314 
  25   1.0000      -3.110902       -84.6520 
  26   1.0000      -3.110902       -84.6520 
  27   1.0000      -0.442823       -12.0498 
  28   1.0000      -0.426179       -11.5969 
  29   1.0000      -0.426179       -11.5969 
  30   1.0000      -0.411706       -11.2031 
  31   1.0000      -0.410893       -11.1810 
  32   1.0000      -0.410893       -11.1810 
  33   1.0000      -0.409451       -11.1417 
  34   1.0000      -0.409447       -11.1416 
  35   1.0000      -0.408236       -11.1087 
  36   1.0000      -0.408233       -11.1086 
  37   1.0000      -0.391715       -10.6591 
  38   1.0000      -0.391710       -10.6590 
  39   1.0000      -0.378535       -10.3005 
  40   1.0000      -0.378535       -10.3005 
  41   1.0000      -0.368645       -10.0314 
  42   1.0000      -0.231359        -6.2956 
  43   0.0000      -0.056705        -1.5430 
  44   0.0000       0.008226         0.2238 
  45   0.0000       0.016333         0.4445 
  46   0.0000       0.016333         0.4445 
  47   0.0000       0.043711         1.1894 
  48   0.0000       0.054912         1.4942 
  49   0.0000       0.054912         1.4942 
  50   0.0000       0.094478         2.5709 
  51   0.0000       0.100060         2.7228 
  52   0.0000       0.100060         2.7228 
  53   0.0000       0.115797         3.1510 
  54   0.0000       0.135171         3.6782 
  55   0.0000       0.175618         4.7788 
  56   0.0000       0.175618         4.7788 
  57   0.0000       0.176744         4.8094 
  58   0.0000       0.206333         5.6146 
  59   0.0000       0.206333         5.6146 
  60   0.0000       0.212519         5.7829 
  61   0.0000       0.212520         5.7830 
  62   0.0000       0.230447         6.2708 
  63   0.0000       0.250113         6.8059 
  64   0.0000       0.250114         6.8059 
  65   0.0000       0.267098         7.2681 
  66   0.0000       0.267098         7.2681 
  67   0.0000       0.280749         7.6396 
  68   0.0000       0.283921         7.7259 
  69   0.0000       0.283921         7.7259 
  70   0.0000       0.306373         8.3368 
  71   0.0000       0.334997         9.1157 
  72   0.0000       0.334997         9.1157 
  73   0.0000       0.344448         9.3729 
  74   0.0000       0.401270        10.9191 
  75   0.0000       0.401270        10.9191 
  76   0.0000       0.441366        12.0102 
  77   0.0000       0.526742        14.3334 
  78   0.0000       0.526742        14.3334 
  79   0.0000       0.583010        15.8645 
  80   0.0000       0.657832        17.9005 
  81   0.0000       0.732578        19.9345 
  82   0.0000       0.774832        21.0843 
  83   0.0000       0.774832        21.0843 
  84   0.0000       0.808027        21.9875 
  85   0.0000       0.808027        21.9875 
  86   0.0000       0.867631        23.6094 
  87   0.0000       0.867631        23.6094 
  88   0.0000       0.888710        24.1830 
  89   0.0000       0.991217        26.9724 
  90   0.0000       0.991220        26.9725 
  91   0.0000       1.030767        28.0486 
  92   0.0000       1.030767        28.0486 
  93   0.0000       1.031735        28.0749 
  94   0.0000       1.038946        28.2712 
  95   0.0000       1.038950        28.2713 
  96   0.0000       1.104175        30.0461 
  97   0.0000       1.104175        30.0461 
  98   0.0000       1.109117        30.1806 
  99   0.0000       1.109120        30.1807 
 100   0.0000       1.113471        30.2991 
 101   0.0000       1.323470        36.0134 
 102   0.0000       1.323470        36.0134 
 103   0.0000       1.367998        37.2251 
 104   0.0000       1.663965        45.2788 
 105   0.0000       3.267919        88.9246 
 106   0.0000       3.267919        88.9246 
 107   0.0000       3.293142        89.6110 
 108   0.0000       3.348335        91.1128 
 109   0.0000       3.369861        91.6986 
 110   0.0000       3.369861        91.6986 
 111   0.0000       3.387250        92.1718 
 112   0.0000       3.387250        92.1718 
 113   0.0000       3.441581        93.6502 
 114   0.0000       3.515624        95.6650 
 115   0.0000       3.664899        99.7270 
 116   0.0000       3.671808        99.9150 
 117   0.0000       3.677157       100.0605 
 118   0.0000       3.677157       100.0605 
 119   0.0000       3.685770       100.2949 
 120   0.0000       3.685770       100.2949 
 121   0.0000       3.687589       100.3444 
 122   0.0000       3.687595       100.3446 
 123   0.0000       3.689876       100.4066 
 124   0.0000       3.689882       100.4068 
 125   0.0000       3.692074       100.4665 
 126   0.0000       3.692074       100.4665 
 127   0.0000       3.692078       100.4665 
 128   0.0000       3.692078       100.4665 
 129   0.0000       3.706009       100.8456 
 130   0.0000       3.706018       100.8459 
 131   0.0000       3.709371       100.9371 
 132   0.0000       3.709371       100.9371 
 133   0.0000       3.740105       101.7734 
 134   0.0000       3.740105       101.7734 
 135   0.0000       3.761350       102.3515 
 136   0.0000       3.923347       106.7597 
 137   0.0000       4.002994       108.9270 
 138   0.0000       4.003022       108.9278 
 139   0.0000       4.026778       109.5742 
 140   0.0000       4.026804       109.5749 
 141   0.0000       4.072736       110.8248 
 142   0.0000       4.072736       110.8248 
 143   0.0000       4.075164       110.8908 
 144   0.0000       4.075194       110.8917 
 145   0.0000       4.093051       111.3776 
 146   0.0000       4.120956       112.1369 
 147   0.0000       4.120956       112.1369 
 148   0.0000       4.220408       114.8431 
 149   0.0000       4.220408       114.8431 
 150   0.0000       4.359728       118.6342 
 151   0.0000       4.412850       120.0798 
 152   0.0000       4.777457       130.0012 
 153   0.0000      13.485195       366.9508 
 154   0.0000      13.485195       366.9508 
 155   0.0000      13.485768       366.9664 
 156   0.0000      13.485825       366.9680 
 157   0.0000      13.485970       366.9719 
 158   0.0000      13.485970       366.9719 
 159   0.0000      13.486037       366.9737 
 160   0.0000      13.486094       366.9753 
 161   0.0000      13.486168       366.9773 
 162   0.0000      13.486623       366.9897 
 163   0.0000      13.487085       367.0023 
 164   0.0000      13.487085       367.0023 
 165   0.0000      13.487089       367.0023 
 166   0.0000      13.487089       367.0023 
 167   0.0000      13.488228       367.0333 
 168   0.0000      13.488228       367.0333 
 169   0.0000      13.488297       367.0352 
 170   0.0000      13.488297       367.0352 
 171   0.0000      13.500758       367.3743 
 172   0.0000      13.500758       367.3743 
 173   0.0000      13.500906       367.3783 
 174   0.0000      13.501331       367.3899 
 175   0.0000      13.502903       367.4327 
 176   0.0000      13.502903       367.4327 
 177   0.0000      13.504238       367.4690 
 178   0.0000      13.504929       367.4878 
 179   0.0000      13.505023       367.4904 
 180   0.0000      13.707957       373.0125 
 181   0.0000      13.707957       373.0125 
 182   0.0000      13.708792       373.0352 
 183   0.0000      13.708860       373.0370 
 184   0.0000      13.709753       373.0614 
 185   0.0000      13.709753       373.0614 
 186   0.0000      13.709754       373.0614 
 187   0.0000      13.709754       373.0614 
 188   0.0000      13.709897       373.0653 
 189   0.0000      13.709964       373.0671 
 190   0.0000      13.714851       373.2001 
 191   0.0000      13.723599       373.4381 
 192   0.0000      13.723692       373.4406 
 193   0.0000      13.724236       373.4554 
 194   0.0000      13.724236       373.4554 
 195   0.0000      13.724665       373.4671 
 196   0.0000      13.724665       373.4671 
 197   0.0000      13.741482       373.9247 
 198   0.0000      13.741482       373.9247 
 199   0.0000      13.803729       375.6186 
 200   0.0000      13.844051       376.7158 

                    ********************************
                    * MULLIKEN POPULATION ANALYSIS *
                    ********************************

--------------------------------------------
MULLIKEN ATOMIC CHARGES AND SPIN POPULATIONS
--------------------------------------------
   0 Cu:   -0.256155   -0.262402
   1 Cu:    0.128081    0.631217
   2 Cu:    0.128074    0.631186
Sum of atomic charges         :   -0.0000000
Sum of atomic spin populations:    1.0000000

-----------------------------------------------------
MULLIKEN REDUCED ORBITAL CHARGES AND SPIN POPULATIONS
-----------------------------------------------------
CHARGE
  0 Cus       :     7.202253  s :     7.202253
      pz      :     4.077662  p :    12.091743
      px      :     4.007041
      py      :     4.007040
      dz2     :     1.988767  d :     9.961944
      dxz     :     1.986730
      dyz     :     1.986730
      dx2y2   :     1.999859
      dxy     :     1.999859
      f0      :     0.000100  f :     0.000214
      f+1     :     0.000051
      f-1     :     0.000051
      f+2     :     0.000006
      f-2     :     0.000006
      f+3     :     0.000000
      f-3     :     0.000000
      g0      :     0.000000  g :     0.000001
      g+1     :     0.000000
      g-1     :     0.000000
      g+2     :     0.000000
      g-2     :     0.000000
      g+3     :     0.000000
      g-3     :     0.000000
      g+4     :     0.000000
      g-4     :     0.000000
  1 Cus       :     6.875809  s :     6.875809
      pz      :     4.004099  p :    12.015419
      px      :     4.005660
      py      :     4.005660
      dz2     :     1.985648  d :     9.980568
      dxz     :     1.997399
      dyz     :     1.997399
      dx2y2   :     2.000061
      dxy     :     2.000061
      f0      :     0.000050  f :     0.000123
      f+1     :     0.000030
      f-1     :     0.000030
      f+2     :     0.000006
      f-2     :     0.000006
      f+3     :     0.000000
      f-3     :     0.000000
      g0      :     0.000000  g :     0.000000
      g+1     :     0.000000
      g-1     :     0.000000
      g+2     :     0.000000
      g-2     :     0.000000
      g+3     :     0.000000
      g-3     :     0.000000
      g+4     :     0.000000
      g-4     :     0.000000
  2 Cus       :     6.875812  s :     6.875812
      pz      :     4.004102  p :    12.015423
      px      :     4.005660
      py      :     4.005660
      dz2     :     1.985648  d :     9.980568
      dxz     :     1.997399
      dyz     :     1.997399
      dx2y2   :     2.000061
      dxy     :     2.000061
      f0      :     0.000050  f :     0.000123
      f+1     :     0.000030
      f-1     :     0.000030
      f+2     :     0.000006
      f-2     :     0.000006
      f+3     :     0.000000
      f-3     :     0.000000
      g0      :     0.000000  g :     0.000000
      g+1     :     0.000000
      g-1     :     0.000000
      g+2     :     0.000000
      g-2     :     0.000000
      g+3     :     0.000000
      g-3     :     0.000000
      g+4     :     0.000000
      g-4     :     0.000000

SPIN
  0 Cus       :    -0.343917  s :    -0.343917
      pz      :     0.086546  p :     0.085877
      px      :    -0.000335
      py      :    -0.000335
      dz2     :    -0.000050  d :    -0.004380
      dxz     :    -0.002069
      dyz     :    -0.002069
      dx2y2   :    -0.000096
      dxy     :    -0.000096
      f0      :     0.000012  f :     0.000017
      f+1     :     0.000002
      f-1     :     0.000002
      f+2     :     0.000000
      f-2     :     0.000000
      f+3     :    -0.000000
      f-3     :    -0.000000
      g0      :     0.000000  g :     0.000000
      g+1     :     0.000000
      g-1     :     0.000000
      g+2     :    -0.000000
      g-2     :    -0.000000
      g+3     :    -0.000000
      g-3     :    -0.000000
      g+4     :     0.000000
      g-4     :    -0.000000
  1 Cus       :     0.629693  s :     0.629693
      pz      :     0.001530  p :     0.003517
      px      :     0.000994
      py      :     0.000994
      dz2     :    -0.002504  d :    -0.001996
      dxz     :     0.000206
      dyz     :     0.000206
      dx2y2   :     0.000048
      dxy     :     0.000048
      f0      :     0.000001  f :     0.000003
      f+1     :     0.000001
      f-1     :     0.000001
      f+2     :    -0.000000
      f-2     :    -0.000000
      f+3     :    -0.000000
      f-3     :    -0.000000
      g0      :    -0.000000  g :     0.000000
      g+1     :    -0.000000
      g-1     :    -0.000000
      g+2     :     0.000000
      g-2     :     0.000000
      g+3     :    -0.000000
      g-3     :    -0.000000
      g+4     :     0.000000
      g-4     :    -0.000000
  2 Cus       :     0.629668  s :     0.629668
      pz      :     0.001525  p :     0.003512
      px      :     0.000994
      py      :     0.000994
      dz2     :    -0.002504  d :    -0.001997
      dxz     :     0.000206
      dyz     :     0.000206
      dx2y2   :     0.000048
      dxy     :     0.000048
      f0      :     0.000001  f :     0.000003
      f+1     :     0.000001
      f-1     :     0.000001
      f+2     :    -0.000000
      f-2     :    -0.000000
      f+3     :    -0.000000
      f-3     :    -0.000000
      g0      :    -0.000000  g :     0.000000
      g+1     :    -0.000000
      g-1     :    -0.000000
      g+2     :     0.000000
      g-2     :     0.000000
      g+3     :    -0.000000
      g-3     :    -0.000000
      g+4     :     0.000000
      g-4     :    -0.000000


                     *******************************
                     * LOEWDIN POPULATION ANALYSIS *
                     *******************************

-------------------------------------------
LOEWDIN ATOMIC CHARGES AND SPIN POPULATIONS
-------------------------------------------
   0 Cu:   -0.245984    0.389098
   1 Cu:    0.122992    0.305451
   2 Cu:    0.122992    0.305451

----------------------------------------------------
LOEWDIN REDUCED ORBITAL CHARGES AND SPIN POPULATIONS
----------------------------------------------------
CHARGE
  0 Cus       :     6.731345  s :     6.731345
      pz      :     4.460342  p :    12.476126
      px      :     4.007892
      py      :     4.007892
      dz2     :     2.061049  d :    10.037912
      dxz     :     1.988553
      dyz     :     1.988553
      dx2y2   :     1.999878
      dxy     :     1.999878
      f0      :     0.000329  f :     0.000599
      f+1     :     0.000126
      f-1     :     0.000126
      f+2     :     0.000008
      f-2     :     0.000008
      f+3     :     0.000000
      f-3     :     0.000000
      g0      :     0.000001  g :     0.000002
      g+1     :     0.000001
      g-1     :     0.000001
      g+2     :     0.000000
      g-2     :     0.000000
      g+3     :     0.000000
      g-3     :     0.000000
      g+4     :     0.000000
      g-4     :     0.000000
  1 Cus       :     6.710348  s :     6.710348
      pz      :     4.137575  p :    12.149420
      px      :     4.005922
      py      :     4.005922
      dz2     :     2.025395  d :    10.016927
      dxz     :     1.995717
      dyz     :     1.995717
      dx2y2   :     2.000049
      dxy     :     2.000049
      f0      :     0.000149  f :     0.000313
      f+1     :     0.000074
      f-1     :     0.000074
      f+2     :     0.000008
      f-2     :     0.000008
      f+3     :     0.000000
      f-3     :     0.000000
      g0      :     0.000000  g :     0.000001
      g+1     :     0.000000
      g-1     :     0.000000
      g+2     :     0.000000
      g-2     :     0.000000
      g+3     :     0.000000
      g-3     :     0.000000
      g+4     :     0.000000
      g-4     :     0.000000
  2 Cus       :     6.710348  s :     6.710348
      pz      :     4.137575  p :    12.149420
      px      :     4.005922
      py      :     4.005922
      dz2     :     2.025395  d :    10.016927
      dxz     :     1.995717
      dyz     :     1.995717
      dx2y2   :     2.000049
      dxy     :     2.000049
      f0      :     0.000149  f :     0.000313
      f+1     :     0.000074
      f-1     :     0.000074
      f+2     :     0.000008
      f-2     :     0.000008
      f+3     :     0.000000
      f-3     :     0.000000
      g0      :     0.000000  g :     0.000001
      g+1     :     0.000000
      g-1     :     0.000000
      g+2     :     0.000000
      g-2     :     0.000000
      g+3     :     0.000000
      g-3     :     0.000000
      g+4     :     0.000000
      g-4     :     0.000000

SPIN
  0 Cus       :    -0.066301  s :    -0.066301
      pz      :     0.429476  p :     0.429827
      px      :     0.000176
      py      :     0.000176
      dz2     :     0.028163  d :     0.025490
      dxz     :    -0.001420
      dyz     :    -0.001420
      dx2y2   :     0.000084
      dxy     :     0.000084
      f0      :     0.000070  f :     0.000082
      f+1     :     0.000006
      f-1     :     0.000006
      f+2     :     0.000000
      f-2     :     0.000000
      f+3     :    -0.000000
      f-3     :    -0.000000
      g0      :     0.000000  g :     0.000000
      g+1     :     0.000000
      g-1     :     0.000000
      g+2     :    -0.000000
      g-2     :    -0.000000
      g+3     :    -0.000000
      g-3     :    -0.000000
      g+4     :     0.000000
      g-4     :    -0.000000
  1 Cus       :     0.334820  s :     0.334820
      pz      :    -0.026721  p :    -0.025069
      px      :     0.000826
      py      :     0.000826
      dz2     :    -0.003793  d :    -0.004291
      dxz     :    -0.000207
      dyz     :    -0.000207
      dx2y2   :    -0.000042
      dxy     :    -0.000042
      f0      :    -0.000010  f :    -0.000009
      f+1     :     0.000001
      f-1     :     0.000001
      f+2     :    -0.000000
      f-2     :    -0.000000
      f+3     :    -0.000000
      f-3     :    -0.000000
      g0      :    -0.000000  g :    -0.000000
      g+1     :    -0.000000
      g-1     :    -0.000000
      g+2     :     0.000000
      g-2     :     0.000000
      g+3     :    -0.000000
      g-3     :    -0.000000
      g+4     :     0.000000
      g-4     :    -0.000000
  2 Cus       :     0.334820  s :     0.334820
      pz      :    -0.026721  p :    -0.025069
      px      :     0.000826
      py      :     0.000826
      dz2     :    -0.003793  d :    -0.004291
      dxz     :    -0.000207
      dyz     :    -0.000207
      dx2y2   :    -0.000042
      dxy     :    -0.000042
      f0      :    -0.000010  f :    -0.000009
      f+1     :     0.000001
      f-1     :     0.000001
      f+2     :    -0.000000
      f-2     :    -0.000000
      f+3     :    -0.000000
      f-3     :    -0.000000
      g0      :    -0.000000  g :    -0.000000
      g+1     :    -0.000000
      g-1     :    -0.000000
      g+2     :     0.000000
      g-2     :     0.000000
      g+3     :    -0.000000
      g-3     :    -0.000000
      g+4     :     0.000000
      g-4     :    -0.000000


                      *****************************
                      * MAYER POPULATION ANALYSIS *
                      *****************************

  NA   - Mulliken gross atomic population
  ZA   - Total nuclear charge
  QA   - Mulliken gross atomic charge
  VA   - Mayer's total valence
  BVA  - Mayer's bonded valence
  FA   - Mayer's free valence

  ATOM       NA         ZA         QA         VA         BVA        FA
  0 Cu    29.2562    29.0000    -0.2562     1.1788     1.0557     0.1232
  1 Cu    28.8719    29.0000     0.1281     0.9835     0.5874     0.3961
  2 Cu    28.8719    29.0000     0.1281     0.9835     0.5874     0.3961

  Mayer bond orders larger than 0.100000
B(  0-Cu,  1-Cu) :   0.5278 B(  0-Cu,  2-Cu) :   0.5278 

-------
TIMINGS
-------

Total SCF time: 0 days 0 hours 0 min 9 sec 

Total time                  ....       9.115 sec
Sum of individual times     ....       8.923 sec  ( 97.9%)

Fock matrix formation       ....       8.273 sec  ( 90.8%)
  XC integration            ....       0.735 sec  (  8.9% of F)
    Basis function eval.    ....       0.050 sec  (  6.8% of XC)
    Density eval.           ....       0.057 sec  (  7.8% of XC)
    XC-Functional eval.     ....       0.023 sec  (  3.1% of XC)
    XC-Potential eval.      ....       0.111 sec  ( 15.1% of XC)
Diagonalization             ....       0.174 sec  (  1.9%)
Density matrix formation    ....       0.022 sec  (  0.2%)
Population analysis         ....       0.013 sec  (  0.1%)
Initial guess               ....       0.101 sec  (  1.1%)
Orbital Transformation      ....       0.000 sec  (  0.0%)
Orbital Orthonormalization  ....       0.000 sec  (  0.0%)
DIIS solution               ....       0.060 sec  (  0.7%)
Grid generation             ....       0.279 sec  (  3.1%)


           ************************************************************
           *        Program running with 24 parallel MPI-processes    *
           *              working on a common directory               *
           ************************************************************

------------------------------------------------------------------------------
                                ORCA  MP2 
------------------------------------------------------------------------------

Freezing NCore=30 chemical core electrons

-------------
RI-MP2 ENERGY
-------------
Dimension of the basis                    ...  201
Memory devoted to MP2                     ... 5000 MB   
Data format for buffers                   ... DOUBLE
Compression type for matrix containers    ... UNCOMPRESSED
Scaling for aa/bb pairs                   ...   4.000e-01
Scaling for ab pairs                      ...   4.700e-01
Overall scaling of the MP2 energy         ...   1.000e+00
Calculating two index integrals           ... done (    0.011 sec)
Cholesky decomposition of V**-1           ... done (    0.083 sec)

-----------------
RI-TRANSFORMATION (AUX index driven)
-----------------

Dimension of the orbital-basis         ... 201
Dimension of the aux-basis             ... 675
Transformation of internal/external MOs...   15-  43 to   44- 200
Number Format for Storage              ... Double (8 Byte)
Integral mode                          ... Direct

First Phase: integral generation and transformation of MO indices
  Aux angular momentum 0               ... done (    0.002 sec)
  Aux angular momentum 1               ... done (    0.003 sec)
  Aux angular momentum 2               ... done (    0.006 sec)
  Aux angular momentum 3               ... done (    0.004 sec)
  Aux angular momentum 4               ... done (    0.006 sec)
  Aux angular momentum 5               ... done (    0.009 sec)
  Aux angular momentum 6               ... done (    0.014 sec)
Closing buffer VIA ( 0.02 GB; CompressionRatio= 1.00)
  Phase 1 completed in     0.134 sec
Second Phase: sorting and transformation of aux index

IA-Transformation
Memory available                       ... 4993 MB 
Max. # MO pairs treated in a batch     ... 2    
# of internal orbitals                 ... 29
# batches for internal orbitals        ... 1
Closing buffer IAV ( 0.00 GB; CompressionRatio= 1.00)
(ia|v) transformation done in     0.016 sec

  Phase 2 completed in     0.049 sec
RI-Integral transformation completed in     0.184 sec

-----------------
RI-TRANSFORMATION (AUX index driven)
-----------------

Dimension of the orbital-basis         ... 201
Dimension of the aux-basis             ... 675
Transformation of internal/external MOs...   15-  42 to   43- 200
Number Format for Storage              ... Double (8 Byte)
Integral mode                          ... Direct

First Phase: integral generation and transformation of MO indices
  Aux angular momentum 0               ... done (    0.002 sec)
  Aux angular momentum 1               ... done (    0.003 sec)
  Aux angular momentum 2               ... done (    0.005 sec)
  Aux angular momentum 3               ... done (    0.004 sec)
  Aux angular momentum 4               ... done (    0.006 sec)
  Aux angular momentum 5               ... done (    0.009 sec)
  Aux angular momentum 6               ... done (    0.013 sec)
Closing buffer VIA ( 0.02 GB; CompressionRatio= 1.00)
  Phase 1 completed in     0.133 sec
Second Phase: sorting and transformation of aux index

IA-Transformation
Memory available                       ... 4993 MB 
Max. # MO pairs treated in a batch     ... 2    
# of internal orbitals                 ... 28
# batches for internal orbitals        ... 1
Closing buffer IAV ( 0.00 GB; CompressionRatio= 1.00)
(ia|v) transformation done in     0.024 sec

  Phase 2 completed in     0.052 sec
RI-Integral transformation completed in     0.186 sec
Opening buffers                              ... done

Starting loop over batches of integrals:

Operator 0  - window                       ... ( 15- 43)x( 44-200)
Operator 0  - Memory available             ...  5000 MB
Operator 0  - Memory needed per MO         ...   0.8 MB
Operator 0  - Number of orbitals per batch ... 2
Operator 0  - Number of batches            ... 1

OPERATOR  0   PASS   0:  MOs    15 ...   16 +   17 ...   18 +   19 ...   20 +   21 ...   22
                            +   23 ...   24 +   25 ...   26 +   27 ...   28 +   29 ...   30
                            +   31 ...   32 +   33 ...   34 +   35 ...   36 +   37 ...   38
                            +   39 ...   40 +   41 ...   42 +   43 ...   43
  Reading integrals       ... ok

Operator 1  - window                       ... ( 15- 42)x( 43-200)
Operator 1  - Memory available             ...  5000 MB
Operator 1  - Memory needed per MO         ...   0.8 MB
Operator 1  - Number of orbitals per batch ... 2
Operator 1  - Number of batches            ... 1

OPERATOR  1   PASS   0:  MOs    15 ...   16 +   17 ...   18 +   19 ...   20 +   21 ...   22
                            +   23 ...   24 +   25 ...   26 +   27 ...   28 +   29 ...   30
                            +   31 ...   32 +   33 ...   34 +   35 ...   36 +   37 ...   38
                            +   39 ...   40 +   41 ...   42
  Reading integrals       ... ok
Time spent in pair loops =     0.145 sec
Deleting buffer (Ka|jb)[aa] ...done
Deleting buffer (Ka|jb)[ab] ...done
Deleting buffer (Ka|jb)[ba] ...done
Deleting buffer (Ka|jb)[bb] ...done

Spin-scaled correlation energy components}
 E2 and T2 for alpha/alpha pairs :     -0.200014420 Eh      0.000000000
 E2 and T2 for beta/beta   pairs :     -0.191444969 Eh      0.000000000
 E2 and T2 for alpha/beta  pairs :     -0.871069794 Eh      0.000000000


-----------------------------------------------
 RI-MP2 CORRELATION ENERGY:     -1.262529183 Eh
-----------------------------------------------


-------
TIMINGS
-------

Total time                :    0.690 sec
Integral trafo            :    0.402 sec ( 58.3%)
I/O of integrals          :    0.002 sec (  0.2%)
K(i,j) Operators          :    0.088 sec ( 12.7%)
T(i,j) pair energies      :    0.005 sec (  0.8%)
V-calculation             :    0.011 sec (  1.7%)
V**(-1/2)                 :    0.083 sec ( 12.0%)
Gamma(ia|P)               :    0.000 sec (  0.0%)
Gamma-Trafo               :    0.000 sec (  0.0%)
D(virtual)                :    0.000 sec (  0.0%)
D(internal)               :    0.000 sec (  0.0%)
W(virtual)                :    0.000 sec (  0.0%)
W(internal)               :    0.000 sec (  0.0%)
L(virtual)                :    0.000 sec (  0.0%)
L(internal)               :    0.000 sec (  0.0%)
G(D)                      :    0.000 sec (  0.0%)
G(Z)                      :    0.000 sec (  0.0%)
Z-Vector Solution         :    0.000 sec (  0.0%)
Z-Vector Solution         :    0.000 sec (  0.0%)
3-Index Derivative 
+ Separable RIJ part      :    0.000 sec (  0.0%)
2-Index Derivative 
+ Separable RIJ part      :    0.000 sec (  0.0%)
Separable Gradient (X)    :    0.000 sec (  0.0%)


---------------------------------------
MP2 TOTAL ENERGY:    -4920.536437734 Eh
---------------------------------------


-------------------------------------------------------------------------------
                          DFT DISPERSION CORRECTION                            
                                                                               
                              DFTD3 V3.1  Rev 1                                
                          USING Becke-Johnson damping                          
-------------------------------------------------------------------------------
The DSD-BLYP/2013 functional is recognized
Active option DFTDOPT                   ...         4   

molecular C6(AA) [au] = 1595.875645 


            DFT-D V3
 parameters
 s6 scaling factor         :     0.5700 
 a1 scaling factor         :     0.0000 
 s8 scaling factor         :     0.0000 
 a2 scaling factor         :     5.4000 
 ad hoc parameters k1-k3   :    16.0000     1.3333    -4.0000 

 Edisp/kcal,au: -4.171726952511  -0.006648069360 
 E6   /kcal   :  -4.171726953 
 E8   /kcal   :  -0.000000000 
 % E8         :   0.000000000 

-------------------------   ----------------
Dispersion correction           -0.006648069
-------------------------   ----------------


-------------------------   --------------------
FINAL SINGLE POINT ENERGY     -4920.543085803827
-------------------------   --------------------


                            ***************************************
                            *     ORCA property calculations      *
                            ***************************************


  WARNING: The energy has been calculated at the MP2 level but the densities
           used in the property calculations are still SCF densities
           MP2 response densities have not been calculated 
           use %mp2 Density relaxed end
           or  %mp2 Density unrelaxed end

                                    ---------------------
                                    Active property flags
                                    ---------------------
   (+) Dipole Moment


------------------------------------------------------------------------------
                       ORCA ELECTRIC PROPERTIES CALCULATION
------------------------------------------------------------------------------

Dipole Moment Calculation                       ... on
Quadrupole Moment Calculation                   ... off
Polarizability Calculation                      ... off
GBWName                                         ... Cu03N0_LIN.gbw
Electron density file                           ... Cu03N0_LIN.scfp
The origin for moment calculation is the CENTER OF MASS  = ( 0.000000,  0.000000  0.000000)

-------------
DIPOLE MOMENT
-------------
                                X             Y             Z
Electronic contribution:      0.00000       0.00000      -0.00000
Nuclear contribution   :      0.00000       0.00000       0.00000
                        -----------------------------------------
Total Dipole Moment    :      0.00000       0.00000      -0.00000
                        -----------------------------------------
Magnitude (a.u.)       :      0.00000
Magnitude (Debye)      :      0.00000



--------------------
Rotational spectrum 
--------------------
 
Rotational constants in cm-1:     0.000000     0.025268     0.025268 
Rotational constants in MHz :     0.000000   757.502973   757.502973 

 Dipole components along the rotational axes: 
x,y,z [a.u.] :    -0.000000     0.000000     0.000000 
x,y,z [Debye]:    -0.000000     0.000000     0.000000 

 

Timings for individual modules:

Sum of individual times         ...       12.236 sec (=   0.204 min)
GTO integral calculation        ...        1.210 sec (=   0.020 min)   9.9 %
SCF iterations                  ...        9.635 sec (=   0.161 min)  78.7 %
MP2 module                      ...        1.391 sec (=   0.023 min)  11.4 %
                             ****ORCA TERMINATED NORMALLY****
TOTAL RUN TIME: 0 days 0 hours 0 minutes 12 seconds 848 msec
