
                                 *****************
                                 * O   R   C   A *
                                 *****************

           --- An Ab Initio, DFT and Semiempirical electronic structure package ---

                  #######################################################
                  #                        -***-                        #
                  #          Department of theory and spectroscopy      #
                  #               Directorship: Frank Neese             #
                  #        Max Planck Institute fuer Kohlenforschung    #
                  #                Kaiser Wilhelm Platz 1               #
                  #                 D-45470 Muelheim/Ruhr               #
                  #                      Germany                        #
                  #                                                     #
                  #                  All rights reserved                #
                  #                        -***-                        #
                  #######################################################


                         Program Version 4.2.0 -  RELEASE  -


 With contributions from (in alphabetic order):
   Daniel Aravena         : Magnetic Suceptibility
   Michael Atanasov       : Ab Initio Ligand Field Theory (pilot matlab implementation)
   Alexander A. Auer      : GIAO ZORA, VPT2
   Ute Becker             : Parallelization
   Giovanni Bistoni       : ED, misc. LED, open-shell LED, HFLED
   Martin Brehm           : Molecular dynamics
   Dmytro Bykov           : SCF Hessian
   Vijay G. Chilkuri      : MRCI spin determinant printing, contributions to CSF-ICE
   Dipayan Datta          : RHF DLPNO-CCSD density
   Achintya Kumar Dutta   : EOM-CC, STEOM-CC
   Dmitry Ganyushin       : Spin-Orbit,Spin-Spin,Magnetic field MRCI
   Miquel Garcia          : C-PCM Hessian, Gaussian charge scheme
   Yang Guo               : DLPNO-NEVPT2, CIM, IAO-localization
   Andreas Hansen         : Spin unrestricted coupled pair/coupled cluster methods
   Benjamin Helmich-Paris : CASSCF linear response (MC-RPA)
   Lee Huntington         : MR-EOM, pCC
   Robert Izsak           : Overlap fitted RIJCOSX, COSX-SCS-MP3, EOM
   Christian Kollmar      : KDIIS, OOCD, Brueckner-CCSD(T), CCSD density
   Simone Kossmann        : Meta GGA functionals, TD-DFT gradient, OOMP2, MP2 Hessian
   Martin Krupicka        : AUTO-CI
   Lucas Lang             : DCDCAS
   Dagmar Lenk            : GEPOL surface, SMD
   Dimitrios Liakos       : Extrapolation schemes; Compound Job, initial MDCI parallelization
   Dimitrios Manganas     : Further ROCIS development; embedding schemes
   Dimitrios Pantazis     : SARC Basis sets
   Taras Petrenko         : DFT Hessian,TD-DFT gradient, ASA, ECA, R-Raman, ABS, FL, XAS/XES, NRVS
   Peter Pinski           : DLPNO-MP2, DLPNO-MP2 Gradient
   Christoph Reimann      : Effective Core Potentials
   Marius Retegan         : Local ZFS, SOC
   Christoph Riplinger    : Optimizer, TS searches, QM/MM, DLPNO-CCSD(T), (RO)-DLPNO pert. Triples
   Tobias Risthaus        : Range-separated hybrids, TD-DFT gradient, RPA, STAB
   Michael Roemelt        : Original ROCIS implementation
   Masaaki Saitow         : Open-shell DLPNO-CCSD energy and density
   Barbara Sandhoefer     : DKH picture change effects
   Avijit Sen             : IP-ROCIS
   Kantharuban Sivalingam : CASSCF convergence, NEVPT2, FIC-MRCI
   Bernardo de Souza      : ESD, SOC TD-DFT
   Georgi Stoychev        : AutoAux, RI-MP2 NMR
   Willem Van den Heuvel  : Paramagnetic NMR
   Boris Wezisla          : Elementary symmetry handling
   Frank Wennmohs         : Technical directorship


 We gratefully acknowledge several colleagues who have allowed us to
 interface, adapt or use parts of their codes:
   Stefan Grimme, W. Hujo, H. Kruse,             : VdW corrections, initial TS optimization,
                  C. Bannwarth                     DFT functionals, gCP, sTDA/sTD-DF
   Ed Valeev, F. Pavosevic, A. Kumar             : LibInt (2-el integral package), F12 methods
   Garnet Chan, S. Sharma, J. Yang, R. Olivares  : DMRG
   Ulf Ekstrom                                   : XCFun DFT Library
   Mihaly Kallay                                 : mrcc  (arbitrary order and MRCC methods)
   Andreas Klamt, Michael Diedenhofen            : otool_cosmo (COSMO solvation model)
   Jiri Pittner, Ondrej Demel                    : Mk-CCSD
   Frank Weinhold                                : gennbo (NPA and NBO analysis)
   Christopher J. Cramer and Donald G. Truhlar   : smd solvation model
   Lars Goerigk                                  : TD-DFT with DH, B97 family of functionals
   V. Asgeirsson, H. Jonsson                     : NEB implementation
   FAccTs GmbH                                   : IRC, NEB, NEB-TS, Multilevel, MM, QM/MM, CI optimization
   S Lehtola, MJT Oliveira, MAL Marques          : LibXC Library


 Your calculation uses the libint2 library for the computation of 2-el integrals
 For citations please refer to: http://libint.valeyev.net

 Your ORCA version has been built with support for libXC version: 4.2.3
 For citations please refer to: https://tddft.org/programs/libxc/

 This ORCA versions uses:
   CBLAS   interface :  Fast vector & matrix operations
   LAPACKE interface :  Fast linear algebra routines
   SCALAPACK package :  Parallel linear algebra routines


Your calculation utilizes the atom-pairwise dispersion correction
with the Becke-Johnson damping scheme (D3BJ)
Cite in your paper:
S.Grimme, S.Ehrlich, L.Goerigk, J Comput Chem, (2011), 32, 1456–1465 
S.Grimme, J.Antony, S.Ehrlich and H.Krieg, J.Chem.Phys., 132, (2010), 154104 
   

----- Orbital basis set information -----
Your calculation utilizes the basis: def2-TZVPPD
   F. Weigend and R. Ahlrichs, Phys. Chem. Chem. Phys. 7, 3297 (2005).
   D. Rappoport and F. Furche, J. Chem. Phys. 133 134105 (2010).

----- AuxC basis set information -----
Your calculation utilizes the auxiliary basis: def2-TZVPPD/C
   A. Hellweg, C. Hattig, S. Hofener and W. Klopper, Theor. Chem. Acc. 117, 587 (2007).

----- AuxJK basis set information -----
Your calculation utilizes the auxiliary basis: def2/JK
   H-Ba, Hf-Rn: F. Weigend, J. Comput. Chem. 29, 167 (2008).

================================================================================
                                        WARNINGS
                       Please study these warnings very carefully!
================================================================================


WARNING: your system is open-shell and RHF/RKS was chosen
  ===> : WILL SWITCH to UHF/UKS


WARNING: No MP2 level density has been requested!
         To caclulate MP2 level properties use
         %mp2 Density relaxed end
         or
         %mp2 Density unrelaxed end
         Otherwise for double-hybrid DFT only the energy is correct!

WARNING: There are different parametrizations of Gershom Martin's DSD-DFs
         for use with and without D3(BJ)!
         You are using the D3(BJ) parametrized version,
         consistent with the 2013 article (S. Kozuch and J. M. L. Martin, JCC 2013, 34, 2327)

WARNING: The frozen-core approximation is turned on by default for 
         the MP2 part of double-hybrid DFT.

INFO   : the flag for use of LIBINT has been found!

================================================================================
                                       INPUT FILE
================================================================================
NAME = Cu04C2_H_F.in
|  1> #
|  2> # Cu04C2_H_F ri-DSD-BLYP/2013-D3BJ/Def2-TZVPPD
|  3> #
|  4> ! rijk ri-dsd-blyp/2013 d3bj def2-tzvppd def2/jk def2-tzvppd/c grid4 nofinalgrid
|  5> 
|  6> *xyz 2 2
|  7> Cu      -0.000000    1.387730   -0.507533 
|  8> Cu       1.201809   -0.693865   -0.507533 
|  9> Cu      -1.201809   -0.693865   -0.507533 
| 10> Cu       0.000000    0.000000    1.576640 
| 11> H        0.000000    0.000000   -1.567185 
| 12> *
| 13> 
| 14> %maxcore 5000
| 15> 
| 16> %pal
| 17> nprocs = 24
| 18> end
| 19> 
| 20> 
| 21>                          ****END OF INPUT****
================================================================================

                       ****************************
                       * Single Point Calculation *
                       ****************************

---------------------------------
CARTESIAN COORDINATES (ANGSTROEM)
---------------------------------
  Cu    -0.000000    1.387730   -0.507533
  Cu     1.201809   -0.693865   -0.507533
  Cu    -1.201809   -0.693865   -0.507533
  Cu     0.000000    0.000000    1.576640
  H      0.000000    0.000000   -1.567185

----------------------------
CARTESIAN COORDINATES (A.U.)
----------------------------
  NO LB      ZA    FRAG     MASS         X           Y           Z
   0 Cu   29.0000    0    63.550   -0.000000    2.622430   -0.959098
   1 Cu   29.0000    0    63.550    2.271090   -1.311215   -0.959098
   2 Cu   29.0000    0    63.550   -2.271090   -1.311215   -0.959098
   3 Cu   29.0000    0    63.550    0.000000    0.000000    2.979418
   4 H     1.0000    0     1.008    0.000000    0.000000   -2.961550

--------------------------------
INTERNAL COORDINATES (ANGSTROEM)
--------------------------------
 Cu     0   0   0     0.000000000000     0.00000000     0.00000000
 Cu     1   0   0     2.403618650391     0.00000000     0.00000000
 Cu     2   1   0     2.403618000000    60.00000895     0.00000000
 Cu     2   1   3     2.503911061646    61.31637692   288.41368009
 H      2   1   3     1.746040054469    46.50387012    56.78304359

---------------------------
INTERNAL COORDINATES (A.U.)
---------------------------
 Cu     0   0   0     0.000000000000     0.00000000     0.00000000
 Cu     1   0   0     4.542180979624     0.00000000     0.00000000
 Cu     2   1   0     4.542179750564    60.00000895     0.00000000
 Cu     2   1   3     4.731706170208    61.31637692   288.41368009
 H      2   1   3     3.299537521803    46.50387012    56.78304359

---------------------
BASIS SET INFORMATION
---------------------
There are 2 groups of distinct atoms

 Group   1 Type Cu  : 17s13p7d2f1g contracted to 6s6p4d2f1g pattern {842111/631111/4111/11/1}
 Group   2 Type H   : 5s3p1d contracted to 3s3p1d pattern {311/111/1}

Atom   0Cu   basis set group =>   1
Atom   1Cu   basis set group =>   1
Atom   2Cu   basis set group =>   1
Atom   3Cu   basis set group =>   1
Atom   4H    basis set group =>   2
---------------------------------
AUXILIARY/C BASIS SET INFORMATION
---------------------------------
There are 2 groups of distinct atoms

 Group   1 Type Cu  : 10s10p9d7f5g3h1i contracted to 10s10p9d7f5g3h1i pattern {1111111111/1111111111/111111111/1111111/11111/111/1}
 Group   2 Type H   : 5s4p3d1f contracted to 5s4p3d1f pattern {11111/1111/111/1}

Atom   0Cu   basis set group =>   1
Atom   1Cu   basis set group =>   1
Atom   2Cu   basis set group =>   1
Atom   3Cu   basis set group =>   1
Atom   4H    basis set group =>   2
----------------------------------
AUXILIARY/JK BASIS SET INFORMATION
----------------------------------
There are 2 groups of distinct atoms

 Group   1 Type Cu  : 19s14p12d10f7g3h1i contracted to 16s13p11d9f5g3h1i pattern {4111111111111111/2111111111111/21111111111/211111111/31111/111/1}
 Group   2 Type H   : 4s2p2d contracted to 2s2p2d pattern {31/11/11}

Atom   0Cu   basis set group =>   1
Atom   1Cu   basis set group =>   1
Atom   2Cu   basis set group =>   1
Atom   3Cu   basis set group =>   1
Atom   4H    basis set group =>   2


           ************************************************************
           *        Program running with 24 parallel MPI-processes    *
           *              working on a common directory               *
           ************************************************************
------------------------------------------------------------------------------
                           ORCA GTO INTEGRAL CALCULATION
                           -- RI-GTO INTEGRALS CHOSEN --
------------------------------------------------------------------------------

                         BASIS SET STATISTICS AND STARTUP INFO

Gaussian basis set:
 # of primitive gaussian shells          ...  169
 # of primitive gaussian functions       ...  475
 # of contracted shells                  ...   83
 # of contracted basis functions         ...  285
 Highest angular momentum                ...    4
 Maximum contraction depth               ...    8
Auxiliary gaussian basis set:
 # of primitive gaussian shells          ...  272
 # of primitive gaussian functions       ... 1220
 # of contracted shells                  ...  238
 # of contracted aux-basis functions     ... 1074
 Highest angular momentum                ...    6
 Maximum contraction depth               ...    4
Ratio of auxiliary to basis functions    ...  3.77
Integral package used                  ... LIBINT
 One Electron integrals                  ... done
 Ordering auxiliary basis shells         ... done
 Integral threshhold             Thresh  ...  1.000e-10
 Primitive cut-off               TCut    ...  1.000e-11
 Pre-screening matrix                    ... done
 Shell pair data                         ... 
 Ordering of the shell pairs             ... done (   0.000 sec) 3203 of 3486 pairs
 Determination of significant pairs      ... done (   0.000 sec)
 Creation of shell pair data             ... done (   0.000 sec)
 Storage of shell pair data              ... done (   0.001 sec)
 Shell pair data done in (   0.001 sec)
 Computing two index integrals           ... done
 Cholesky decomposition of the V-matrix  ... done


Timings:
 Total evaluation time                   ...   0.593 sec (  0.010 min)
 One electron matrix time                ...   0.044 sec (  0.001 min) =  7.3%
 Schwartz matrix evaluation time         ...   0.272 sec (  0.005 min) = 45.8%
 Two index repulsion integral time       ...   0.194 sec (  0.003 min) = 32.7%
 Cholesky decomposition of V             ...   0.051 sec (  0.001 min) =  8.7%
 Three index repulsion integral time     ...   0.000 sec (  0.000 min) =  0.0%



           ************************************************************
           *        Program running with 24 parallel MPI-processes    *
           *              working on a common directory               *
           ************************************************************
-------------------------------------------------------------------------------
                                 ORCA SCF
-------------------------------------------------------------------------------

------------
SCF SETTINGS
------------
Hamiltonian:
 Density Functional     Method          .... DFT(GTOs)
 Exchange Functional    Exchange        .... B88
   X-Alpha parameter    XAlpha          ....  0.666667
   Becke's b parameter  XBeta           ....  0.004200
 Correlation Functional Correlation     .... LYP
 LDA part of GGA corr.  LDAOpt          .... VWN-5
 Gradients option       PostSCFGGA      .... off
 Hybrid DFT is turned on
   Fraction HF Exchange ScalHFX         ....  0.710000
   Scaling of DF-GGA-X  ScalDFX         ....  0.290000
   Scaling of DF-GGA-C  ScalDFC         ....  0.540000
   Scaling of DF-LDA-C  ScalLDAC        ....  0.540000
   Perturbative correction              ....  1.000000
   Density functional embedding theory  .... OFF
 RI-approximation to the Coulomb term is turned on
   Number of auxiliary basis functions  .... 1074
   RI-JK (J+K treated both via RI)      .... on


General Settings:
 Integral files         IntName         .... Cu04C2_H_F
 Hartree-Fock type      HFTyp           .... UHF
 Total Charge           Charge          ....    2
 Multiplicity           Mult            ....    2
 Number of Electrons    NEL             ....  115
 Basis Dimension        Dim             ....  285
 Nuclear Repulsion      ENuc            ....   1119.9202277639 Eh

Convergence Acceleration:
 DIIS                   CNVDIIS         .... on
   Start iteration      DIISMaxIt       ....    12
   Startup error        DIISStart       ....  0.200000
   # of expansion vecs  DIISMaxEq       ....     5
   Bias factor          DIISBfac        ....   1.050
   Max. coefficient     DIISMaxC        ....  10.000
 Newton-Raphson         CNVNR           .... off
 SOSCF                  CNVSOSCF        .... off
 Level Shifting         CNVShift        .... on
   Level shift para.    LevelShift      ....    0.2500
   Turn off err/grad.   ShiftErr        ....    0.0010
 Zerner damping         CNVZerner       .... off
 Static damping         CNVDamp         .... on
   Fraction old density DampFac         ....    0.7000
   Max. Damping (<1)    DampMax         ....    0.9800
   Min. Damping (>=0)   DampMin         ....    0.0000
   Turn off err/grad.   DampErr         ....    0.1000
 Fernandez-Rico         CNVRico         .... off

SCF Procedure:
 Maximum # iterations   MaxIter         ....   125
 SCF integral mode      SCFMode         .... Direct
   Integral package                     .... LIBINT
 Reset frequency        DirectResetFreq ....    20
 Integral Threshold     Thresh          ....  1.000e-10 Eh
 Primitive CutOff       TCut            ....  1.000e-11 Eh

Convergence Tolerance:
 Convergence Check Mode ConvCheckMode   .... Total+1el-Energy
 Convergence forced     ConvForced      .... 0
 Energy Change          TolE            ....  1.000e-06 Eh
 1-El. energy change                    ....  1.000e-03 Eh
 DIIS Error             TolErr          ....  1.000e-06


Diagonalization of the overlap matrix:
Smallest eigenvalue                        ... 6.380e-04
Time for diagonalization                   ...    0.012 sec
Threshold for overlap eigenvalues          ... 1.000e-08
Number of eigenvalues below threshold      ... 0
Time for construction of square roots      ...    0.007 sec
Total time needed                          ...    0.020 sec

-------------------
DFT GRID GENERATION
-------------------

General Integration Accuracy     IntAcc      ...  4.670
Radial Grid Type                 RadialGrid  ... Gauss-Chebyshev
Angular Grid (max. acc.)         AngularGrid ... Lebedev-302
Angular grid pruning method      GridPruning ... 3 (G Style)
Weight generation scheme         WeightScheme... Becke
Basis function cutoff            BFCut       ...    1.0000e-10
Integration weight cutoff        WCut        ...    1.0000e-14
Grids for H and He will be reduced by one unit

# of grid points (after initial pruning)     ...  41618 (   0.0 sec)
# of grid points (after weights+screening)   ...  40798 (   0.0 sec)
nearest neighbour list constructed           ...    0.0 sec
Grid point re-assignment to atoms done       ...    0.0 sec
Grid point division into batches done        ...    0.2 sec
Reduced shell lists constructed in    0.3 sec

Total number of grid points                  ...    40798
Total number of batches                      ...      640
Average number of points per batch           ...       63
Average number of grid points per atom       ...     8160
Average number of shells per batch           ...    23.54 (28.36%)
Average number of basis functions per batch  ...    65.96 (23.15%)
Average number of large shells per batch     ...    17.86 (75.87%)
Average number of large basis fcns per batch ...    49.07 (74.39%)
Average number of aux-shells per batch       ...    23.54 ( 9.89%)
Average number of aux functions per batch    ...    65.96 ( 6.14%)
Maximum spatial batch extension              ...  20.21, 15.25, 22.17 au
Average spatial batch extension              ...   0.39,  0.33,  0.38 au

Time for grid setup =    0.361 sec

------------------------------
INITIAL GUESS: MODEL POTENTIAL
------------------------------
Loading Hartree-Fock densities                     ... done
Calculating cut-offs                               ... done
Setting up the integral package                    ... done
Initializing the effective Hamiltonian             ... done
Starting the Coulomb interaction                   ... done (   0.0 sec)
Reading the grid                                   ... done
Mapping shells                                     ... done
Starting the XC term evaluation                    ... done (   0.0 sec)
  promolecular density results
     # of electrons  =    116.999555128
     EX              =   -263.621129203
     EC              =     -0.823847088
     EX+EC           =   -264.444976291
Transforming the Hamiltonian                       ... done (   0.0 sec)
Diagonalizing the Hamiltonian                      ... done (   0.0 sec)
Back transforming the eigenvectors                 ... done (   0.0 sec)
Now organizing SCF variables                       ... done
                      ------------------
                      INITIAL GUESS DONE (   0.5 sec)
                      ------------------
--------------
SCF ITERATIONS
--------------
ITER       Energy         Delta-E        Max-DP      RMS-DP      [F,P]     Damp
  0  -6558.8249992510   0.000000000000 0.04155865  0.00051957  0.1204416 0.7000
  1  -6559.3665104233  -0.541511172310 0.04442010  0.00056112  0.0791714 0.7000
                               ***Turning on DIIS***
  2  -6559.2986536771   0.067856746229 0.12127751  0.00156397  0.0519100 0.0000
  3  -6558.9931162887   0.305537388416 0.01669439  0.00027328  0.0656962 0.0000
  4  -6559.0074392062  -0.014322917476 0.00538067  0.00013740  0.0384359 0.0000
  5  -6559.0111148748  -0.003675668599 0.00366341  0.00005772  0.0108531 0.0000
  6  -6559.0117396337  -0.000624758905 0.00220012  0.00003543  0.0025340 0.0000
  7  -6559.0119198046  -0.000180170900 0.00176997  0.00002234  0.0029442 0.0000
  8  -6559.0119994447  -0.000079640158 0.00183704  0.00001894  0.0030506 0.0000
  9  -6559.0120522778  -0.000052833063 0.00290819  0.00002438  0.0006309 0.0000
 10  -6559.0120863640  -0.000034086208 0.00129047  0.00000771  0.0002837 0.0000
 11  -6559.0120899690  -0.000003604961 0.00062119  0.00000360  0.0002738 0.0000
 12  -6559.0120909227  -0.000000953705 0.00055720  0.00000300  0.0001344 0.0000
                 **** Energy Check signals convergence ****

               *****************************************************
               *                     SUCCESS                       *
               *           SCF CONVERGED AFTER  13 CYCLES          *
               *****************************************************


----------------
TOTAL SCF ENERGY
----------------

Total Energy       :        -6559.01209136 Eh         -178479.79274 eV

Components:
Nuclear Repulsion  :         1119.92022776 Eh           30474.57870 eV
Electronic Energy  :        -7678.93231913 Eh         -208954.37144 eV
One Electron Energy:       -11347.40407532 Eh         -308778.56289 eV
Two Electron Energy:         3668.47175619 Eh           99824.19145 eV

Virial components:
Potential Energy   :       -13113.46696887 Eh         -356835.57739 eV
Kinetic Energy     :         6554.45487751 Eh          178355.78465 eV
Virial Ratio       :            2.00069528


DFT components:
N(Alpha)           :       57.999978271883 electrons
N(Beta)            :       56.999975414977 electrons
N(Total)           :      114.999953686860 electrons
E(X)               :      -76.583033201798 Eh       
E(C)               :       -2.985887972084 Eh       
E(XC)              :      -79.568921173883 Eh       
DFET-embed. en.    :        0.000000000000 Eh       

---------------
SCF CONVERGENCE
---------------

  Last Energy change         ...   -4.3926e-07  Tolerance :   1.0000e-06
  Last MAX-Density change    ...    3.4348e-04  Tolerance :   1.0000e-05
  Last RMS-Density change    ...    1.9560e-06  Tolerance :   1.0000e-06
  Last DIIS Error            ...    6.4083e-05  Tolerance :   1.0000e-06

             **** THE GBW FILE WAS UPDATED (Cu04C2_H_F.gbw) ****
             **** DENSITY FILE WAS UPDATED (Cu04C2_H_F.scfp) ****
             **** ENERGY FILE WAS UPDATED (Cu04C2_H_F.en.tmp) ****
----------------------
UHF SPIN CONTAMINATION
----------------------

Warning: in a DFT calculation there is little theoretical justification to 
         calculate <S**2> as in Hartree-Fock theory. We will do it anyways
         but you should keep in mind that the values have only limited relevance

Expectation value of <S**2>     :     0.767603
Ideal value S*(S+1) for S=0.5   :     0.750000
Deviation                       :     0.017603

             **** THE GBW FILE WAS UPDATED (Cu04C2_H_F.gbw) ****
             **** DENSITY FILE WAS UPDATED (Cu04C2_H_F.scfp) ****
----------------
ORBITAL ENERGIES
----------------
                 SPIN UP ORBITALS
  NO   OCC          E(Eh)            E(eV) 
   0   1.0000    -327.143186     -8902.0187 
   1   1.0000    -327.143185     -8902.0186 
   2   1.0000    -327.143179     -8902.0185 
   3   1.0000    -327.123138     -8901.4731 
   4   1.0000     -40.516662     -1102.5144 
   5   1.0000     -40.516661     -1102.5144 
   6   1.0000     -40.516644     -1102.5139 
   7   1.0000     -40.494268     -1101.9050 
   8   1.0000     -35.462385      -964.9806 
   9   1.0000     -35.462384      -964.9805 
  10   1.0000     -35.462377      -964.9803 
  11   1.0000     -35.461946      -964.9686 
  12   1.0000     -35.461945      -964.9686 
  13   1.0000     -35.461934      -964.9683 
  14   1.0000     -35.461758      -964.9635 
  15   1.0000     -35.461745      -964.9631 
  16   1.0000     -35.461744      -964.9631 
  17   1.0000     -35.439151      -964.3483 
  18   1.0000     -35.439151      -964.3483 
  19   1.0000     -35.439048      -964.3455 
  20   1.0000      -5.177194      -140.8786 
  21   1.0000      -5.176727      -140.8659 
  22   1.0000      -5.176726      -140.8659 
  23   1.0000      -5.153669      -140.2385 
  24   1.0000      -3.559943       -96.8710 
  25   1.0000      -3.556828       -96.7862 
  26   1.0000      -3.556828       -96.7862 
  27   1.0000      -3.556026       -96.7644 
  28   1.0000      -3.555632       -96.7537 
  29   1.0000      -3.555630       -96.7536 
  30   1.0000      -3.553343       -96.6914 
  31   1.0000      -3.553341       -96.6913 
  32   1.0000      -3.552314       -96.6634 
  33   1.0000      -3.530833       -96.0788 
  34   1.0000      -3.529582       -96.0448 
  35   1.0000      -3.529581       -96.0448 
  36   1.0000      -0.944139       -25.6913 
  37   1.0000      -0.885101       -24.0848 
  38   1.0000      -0.859184       -23.3796 
  39   1.0000      -0.859178       -23.3794 
  40   1.0000      -0.853620       -23.2282 
  41   1.0000      -0.853618       -23.2281 
  42   1.0000      -0.849223       -23.1085 
  43   1.0000      -0.837794       -22.7975 
  44   1.0000      -0.837790       -22.7974 
  45   1.0000      -0.828975       -22.5576 
  46   1.0000      -0.828972       -22.5575 
  47   1.0000      -0.826079       -22.4788 
  48   1.0000      -0.822389       -22.3783 
  49   1.0000      -0.822384       -22.3782 
  50   1.0000      -0.818703       -22.2780 
  51   1.0000      -0.809964       -22.0402 
  52   1.0000      -0.809961       -22.0401 
  53   1.0000      -0.801414       -21.8076 
  54   1.0000      -0.794260       -21.6129 
  55   1.0000      -0.794250       -21.6126 
  56   1.0000      -0.790614       -21.5137 
  57   1.0000      -0.633243       -17.2314 
  58   0.0000      -0.391213       -10.6454 
  59   0.0000      -0.391212       -10.6454 
  60   0.0000      -0.310000        -8.4355 
  61   0.0000      -0.290344        -7.9007 
  62   0.0000      -0.264494        -7.1973 
  63   0.0000      -0.264494        -7.1972 
  64   0.0000      -0.257492        -7.0067 
  65   0.0000      -0.257492        -7.0067 
  66   0.0000      -0.181152        -4.9294 
  67   0.0000      -0.166836        -4.5398 
  68   0.0000      -0.166836        -4.5398 
  69   0.0000      -0.145732        -3.9656 
  70   0.0000      -0.145731        -3.9656 
  71   0.0000      -0.142363        -3.8739 
  72   0.0000      -0.139579        -3.7981 
  73   0.0000      -0.124037        -3.3752 
  74   0.0000      -0.109459        -2.9785 
  75   0.0000      -0.104379        -2.8403 
  76   0.0000      -0.104378        -2.8403 
  77   0.0000      -0.099334        -2.7030 
  78   0.0000      -0.099334        -2.7030 
  79   0.0000      -0.090088        -2.4514 
  80   0.0000      -0.082483        -2.2445 
  81   0.0000      -0.082483        -2.2445 
  82   0.0000      -0.033321        -0.9067 
  83   0.0000      -0.030176        -0.8211 
  84   0.0000      -0.030175        -0.8211 
  85   0.0000      -0.024997        -0.6802 
  86   0.0000      -0.024996        -0.6802 
  87   0.0000      -0.022644        -0.6162 
  88   0.0000       0.001421         0.0387 
  89   0.0000       0.011287         0.3071 
  90   0.0000       0.011287         0.3071 
  91   0.0000       0.022029         0.5994 
  92   0.0000       0.028759         0.7826 
  93   0.0000       0.028760         0.7826 
  94   0.0000       0.035238         0.9589 
  95   0.0000       0.035239         0.9589 
  96   0.0000       0.040431         1.1002 
  97   0.0000       0.055503         1.5103 
  98   0.0000       0.073723         2.0061 
  99   0.0000       0.100576         2.7368 
 100   0.0000       0.100577         2.7368 
 101   0.0000       0.103447         2.8149 
 102   0.0000       0.103448         2.8150 
 103   0.0000       0.130930         3.5628 
 104   0.0000       0.168928         4.5968 
 105   0.0000       0.168930         4.5968 
 106   0.0000       0.187514         5.1025 
 107   0.0000       0.187515         5.1025 
 108   0.0000       0.191254         5.2043 
 109   0.0000       0.192994         5.2516 
 110   0.0000       0.215333         5.8595 
 111   0.0000       0.215337         5.8596 
 112   0.0000       0.362163         9.8550 
 113   0.0000       0.442823        12.0498 
 114   0.0000       0.457815        12.4578 
 115   0.0000       0.457817        12.4578 
 116   0.0000       0.472889        12.8680 
 117   0.0000       0.472890        12.8680 
 118   0.0000       0.478861        13.0305 
 119   0.0000       0.535681        14.5766 
 120   0.0000       0.535682        14.5767 
 121   0.0000       0.566627        15.4187 
 122   0.0000       0.574493        15.6327 
 123   0.0000       0.574494        15.6328 
 124   0.0000       0.618989        16.8436 
 125   0.0000       0.651410        17.7258 
 126   0.0000       0.655161        17.8278 
 127   0.0000       0.655162        17.8279 
 128   0.0000       0.666102        18.1256 
 129   0.0000       0.666102        18.1256 
 130   0.0000       0.698768        19.0145 
 131   0.0000       0.720684        19.6108 
 132   0.0000       0.720686        19.6109 
 133   0.0000       0.758419        20.6376 
 134   0.0000       0.773512        21.0483 
 135   0.0000       0.773514        21.0484 
 136   0.0000       0.808384        21.9973 
 137   0.0000       0.813734        22.1428 
 138   0.0000       0.813736        22.1429 
 139   0.0000       0.966123        26.2895 
 140   0.0000       0.966125        26.2896 
 141   0.0000       0.975344        26.5405 
 142   0.0000       0.990504        26.9530 
 143   0.0000       0.990512        26.9532 
 144   0.0000       1.021271        27.7902 
 145   0.0000       1.143726        31.1224 
 146   0.0000       1.143741        31.1228 
 147   0.0000       1.199710        32.6458 
 148   0.0000       2.493879        67.8619 
 149   0.0000       2.792837        75.9970 
 150   0.0000       2.792839        75.9970 
 151   0.0000       2.826526        76.9137 
 152   0.0000       2.846560        77.4588 
 153   0.0000       2.846574        77.4592 
 154   0.0000       2.914161        79.2983 
 155   0.0000       2.919046        79.4313 
 156   0.0000       2.919050        79.4314 
 157   0.0000       3.011809        81.9555 
 158   0.0000       3.011814        81.9556 
 159   0.0000       3.042993        82.8040 
 160   0.0000       3.042994        82.8041 
 161   0.0000       3.053033        83.0773 
 162   0.0000       3.089836        84.0787 
 163   0.0000       3.153976        85.8240 
 164   0.0000       3.153977        85.8241 
 165   0.0000       3.156059        85.8807 
 166   0.0000       3.221301        87.6560 
 167   0.0000       3.254885        88.5699 
 168   0.0000       3.254888        88.5700 
 169   0.0000       3.266177        88.8772 
 170   0.0000       3.266190        88.8776 
 171   0.0000       3.266983        88.8991 
 172   0.0000       3.267425        88.9112 
 173   0.0000       3.269588        88.9700 
 174   0.0000       3.273267        89.0701 
 175   0.0000       3.273276        89.0704 
 176   0.0000       3.283120        89.3382 
 177   0.0000       3.283125        89.3384 
 178   0.0000       3.283955        89.3610 
 179   0.0000       3.284790        89.3837 
 180   0.0000       3.289182        89.5032 
 181   0.0000       3.289185        89.5033 
 182   0.0000       3.317882        90.2842 
 183   0.0000       3.354683        91.2856 
 184   0.0000       3.354683        91.2856 
 185   0.0000       3.359884        91.4271 
 186   0.0000       3.359887        91.4272 
 187   0.0000       3.362724        91.5044 
 188   0.0000       3.382218        92.0348 
 189   0.0000       3.473060        94.5068 
 190   0.0000       3.494970        95.1030 
 191   0.0000       3.498445        95.1975 
 192   0.0000       3.498452        95.1977 
 193   0.0000       3.533996        96.1649 
 194   0.0000       3.533997        96.1649 
 195   0.0000       3.604458        98.0823 
 196   0.0000       3.604466        98.0825 
 197   0.0000       3.673206        99.9530 
 198   0.0000       3.684297       100.2548 
 199   0.0000       3.686052       100.3026 
 200   0.0000       3.686071       100.3031 
 201   0.0000       3.714149       101.0671 
 202   0.0000       3.714154       101.0673 
 203   0.0000       3.735567       101.6499 
 204   0.0000       3.735582       101.6503 
 205   0.0000       3.782796       102.9351 
 206   0.0000       3.809323       103.6569 
 207   0.0000       3.848271       104.7168 
 208   0.0000       3.848282       104.7171 
 209   0.0000       3.887849       105.7937 
 210   0.0000       3.887851       105.7938 
 211   0.0000       3.888178       105.8027 
 212   0.0000       3.934859       107.0730 
 213   0.0000       3.934871       107.0733 
 214   0.0000       3.951929       107.5374 
 215   0.0000       4.244278       115.4927 
 216   0.0000       4.379738       119.1787 
 217   0.0000       4.379814       119.1808 
 218   0.0000       4.524905       123.1289 
 219   0.0000       4.661918       126.8572 
 220   0.0000       4.661937       126.8578 
 221   0.0000      13.057657       355.3169 
 222   0.0000      13.058053       355.3277 
 223   0.0000      13.058082       355.3285 
 224   0.0000      13.058431       355.3380 
 225   0.0000      13.058514       355.3402 
 226   0.0000      13.058674       355.3446 
 227   0.0000      13.058693       355.3451 
 228   0.0000      13.058805       355.3482 
 229   0.0000      13.058888       355.3504 
 230   0.0000      13.059198       355.3588 
 231   0.0000      13.059210       355.3592 
 232   0.0000      13.059490       355.3668 
 233   0.0000      13.059537       355.3681 
 234   0.0000      13.059664       355.3715 
 235   0.0000      13.059812       355.3756 
 236   0.0000      13.060465       355.3933 
 237   0.0000      13.060466       355.3933 
 238   0.0000      13.060642       355.3981 
 239   0.0000      13.060998       355.4078 
 240   0.0000      13.061130       355.4114 
 241   0.0000      13.061138       355.4116 
 242   0.0000      13.061358       355.4176 
 243   0.0000      13.061429       355.4196 
 244   0.0000      13.061488       355.4212 
 245   0.0000      13.064967       355.5158 
 246   0.0000      13.064974       355.5160 
 247   0.0000      13.066099       355.5466 
 248   0.0000      13.081366       355.9621 
 249   0.0000      13.081500       355.9657 
 250   0.0000      13.081571       355.9676 
 251   0.0000      13.081960       355.9782 
 252   0.0000      13.082282       355.9870 
 253   0.0000      13.082410       355.9905 
 254   0.0000      13.082429       355.9910 
 255   0.0000      13.082668       355.9975 
 256   0.0000      13.082678       355.9978 
 257   0.0000      13.282625       361.4386 
 258   0.0000      13.284633       361.4932 
 259   0.0000      13.284644       361.4935 
 260   0.0000      13.285967       361.5295 
 261   0.0000      13.286357       361.5402 
 262   0.0000      13.289275       361.6196 
 263   0.0000      13.289279       361.6197 
 264   0.0000      13.291325       361.6753 
 265   0.0000      13.291337       361.6757 
 266   0.0000      13.292920       361.7188 
 267   0.0000      13.292921       361.7188 
 268   0.0000      13.299695       361.9031 
 269   0.0000      13.301928       361.9639 
 270   0.0000      13.301931       361.9639 
 271   0.0000      13.307393       362.1126 
 272   0.0000      13.307676       362.1203 
 273   0.0000      13.311269       362.2180 
 274   0.0000      13.311286       362.2185 
 275   0.0000      13.312542       362.2527 
 276   0.0000      13.341565       363.0424 
 277   0.0000      13.347573       363.2059 
 278   0.0000      13.347595       363.2065 
 279   0.0000      13.355235       363.4144 
 280   0.0000      13.365237       363.6866 
 281   0.0000      13.365246       363.6868 
 282   0.0000      13.441860       365.7716 
 283   0.0000      13.441868       365.7718 
 284   0.0000      13.525721       368.0536 

                 SPIN DOWN ORBITALS
  NO   OCC          E(Eh)            E(eV) 
   0   1.0000    -327.142972     -8902.0128 
   1   1.0000    -327.142971     -8902.0128 
   2   1.0000    -327.142965     -8902.0127 
   3   1.0000    -327.121964     -8901.4412 
   4   1.0000     -40.514803     -1102.4638 
   5   1.0000     -40.514802     -1102.4638 
   6   1.0000     -40.514784     -1102.4633 
   7   1.0000     -40.495086     -1101.9273 
   8   1.0000     -35.461289      -964.9507 
   9   1.0000     -35.461276      -964.9504 
  10   1.0000     -35.461275      -964.9504 
  11   1.0000     -35.460133      -964.9193 
  12   1.0000     -35.460132      -964.9193 
  13   1.0000     -35.460121      -964.9189 
  14   1.0000     -35.459000      -964.8885 
  15   1.0000     -35.459000      -964.8884 
  16   1.0000     -35.458986      -964.8881 
  17   1.0000     -35.440820      -964.3937 
  18   1.0000     -35.440673      -964.3897 
  19   1.0000     -35.440673      -964.3897 
  20   1.0000      -5.173153      -140.7687 
  21   1.0000      -5.172687      -140.7560 
  22   1.0000      -5.172686      -140.7560 
  23   1.0000      -5.153935      -140.2457 
  24   1.0000      -3.553862       -96.7055 
  25   1.0000      -3.553041       -96.6832 
  26   1.0000      -3.553040       -96.6831 
  27   1.0000      -3.551178       -96.6325 
  28   1.0000      -3.549968       -96.5995 
  29   1.0000      -3.549966       -96.5995 
  30   1.0000      -3.548843       -96.5689 
  31   1.0000      -3.548475       -96.5589 
  32   1.0000      -3.548473       -96.5589 
  33   1.0000      -3.534631       -96.1822 
  34   1.0000      -3.532685       -96.1293 
  35   1.0000      -3.532685       -96.1292 
  36   1.0000      -0.911613       -24.8063 
  37   1.0000      -0.874126       -23.7862 
  38   1.0000      -0.857905       -23.3448 
  39   1.0000      -0.857899       -23.3446 
  40   1.0000      -0.848353       -23.0849 
  41   1.0000      -0.848349       -23.0847 
  42   1.0000      -0.845963       -23.0198 
  43   1.0000      -0.836475       -22.7616 
  44   1.0000      -0.836471       -22.7615 
  45   1.0000      -0.825009       -22.4496 
  46   1.0000      -0.821949       -22.3664 
  47   1.0000      -0.821940       -22.3661 
  48   1.0000      -0.813977       -22.1494 
  49   1.0000      -0.811628       -22.0855 
  50   1.0000      -0.811624       -22.0854 
  51   1.0000      -0.809692       -22.0328 
  52   1.0000      -0.809691       -22.0328 
  53   1.0000      -0.799629       -21.7590 
  54   1.0000      -0.791002       -21.5243 
  55   1.0000      -0.790993       -21.5240 
  56   1.0000      -0.763965       -20.7885 
  57   0.0000      -0.428654       -11.6643 
  58   0.0000      -0.378214       -10.2917 
  59   0.0000      -0.378214       -10.2917 
  60   0.0000      -0.296232        -8.0609 
  61   0.0000      -0.276543        -7.5251 
  62   0.0000      -0.255373        -6.9491 
  63   0.0000      -0.255373        -6.9490 
  64   0.0000      -0.250413        -6.8141 
  65   0.0000      -0.250412        -6.8141 
  66   0.0000      -0.173766        -4.7284 
  67   0.0000      -0.165389        -4.5005 
  68   0.0000      -0.165389        -4.5005 
  69   0.0000      -0.143673        -3.9095 
  70   0.0000      -0.143672        -3.9095 
  71   0.0000      -0.142583        -3.8799 
  72   0.0000      -0.132292        -3.5999 
  73   0.0000      -0.121828        -3.3151 
  74   0.0000      -0.107064        -2.9134 
  75   0.0000      -0.100891        -2.7454 
  76   0.0000      -0.100890        -2.7454 
  77   0.0000      -0.096899        -2.6368 
  78   0.0000      -0.096899        -2.6368 
  79   0.0000      -0.087509        -2.3813 
  80   0.0000      -0.079570        -2.1652 
  81   0.0000      -0.079570        -2.1652 
  82   0.0000      -0.027578        -0.7504 
  83   0.0000      -0.027577        -0.7504 
  84   0.0000      -0.025821        -0.7026 
  85   0.0000      -0.022639        -0.6160 
  86   0.0000      -0.022638        -0.6160 
  87   0.0000      -0.022412        -0.6099 
  88   0.0000       0.003698         0.1006 
  89   0.0000       0.011259         0.3064 
  90   0.0000       0.011259         0.3064 
  91   0.0000       0.028706         0.7811 
  92   0.0000       0.028707         0.7811 
  93   0.0000       0.035428         0.9641 
  94   0.0000       0.035899         0.9769 
  95   0.0000       0.035899         0.9769 
  96   0.0000       0.040765         1.1093 
  97   0.0000       0.057566         1.5665 
  98   0.0000       0.078485         2.1357 
  99   0.0000       0.102231         2.7818 
 100   0.0000       0.102231         2.7819 
 101   0.0000       0.106219         2.8904 
 102   0.0000       0.106220         2.8904 
 103   0.0000       0.133038         3.6201 
 104   0.0000       0.170884         4.6500 
 105   0.0000       0.170886         4.6501 
 106   0.0000       0.191132         5.2010 
 107   0.0000       0.191134         5.2010 
 108   0.0000       0.193267         5.2591 
 109   0.0000       0.203142         5.5278 
 110   0.0000       0.216134         5.8813 
 111   0.0000       0.216136         5.8814 
 112   0.0000       0.372356        10.1323 
 113   0.0000       0.447929        12.1888 
 114   0.0000       0.464412        12.6373 
 115   0.0000       0.464414        12.6373 
 116   0.0000       0.475946        12.9512 
 117   0.0000       0.475946        12.9512 
 118   0.0000       0.486219        13.2307 
 119   0.0000       0.541556        14.7365 
 120   0.0000       0.541557        14.7365 
 121   0.0000       0.570292        15.5184 
 122   0.0000       0.576813        15.6959 
 123   0.0000       0.576815        15.6959 
 124   0.0000       0.623180        16.9576 
 125   0.0000       0.651326        17.7235 
 126   0.0000       0.660429        17.9712 
 127   0.0000       0.660432        17.9713 
 128   0.0000       0.670402        18.2426 
 129   0.0000       0.670403        18.2426 
 130   0.0000       0.711299        19.3554 
 131   0.0000       0.727482        19.7958 
 132   0.0000       0.727484        19.7958 
 133   0.0000       0.761473        20.7207 
 134   0.0000       0.776237        21.1225 
 135   0.0000       0.776239        21.1225 
 136   0.0000       0.812730        22.1155 
 137   0.0000       0.819361        22.2959 
 138   0.0000       0.819364        22.2960 
 139   0.0000       0.971292        26.4302 
 140   0.0000       0.971292        26.4302 
 141   0.0000       0.987926        26.8828 
 142   0.0000       0.995644        27.0928 
 143   0.0000       0.995653        27.0931 
 144   0.0000       1.021892        27.8071 
 145   0.0000       1.152449        31.3597 
 146   0.0000       1.152464        31.3601 
 147   0.0000       1.209830        32.9211 
 148   0.0000       2.521123        68.6033 
 149   0.0000       2.799757        76.1853 
 150   0.0000       2.799762        76.1854 
 151   0.0000       2.836040        77.1726 
 152   0.0000       2.855287        77.6963 
 153   0.0000       2.855302        77.6967 
 154   0.0000       2.919417        79.4414 
 155   0.0000       2.924310        79.5745 
 156   0.0000       2.924314        79.5746 
 157   0.0000       3.015313        82.0508 
 158   0.0000       3.015317        82.0510 
 159   0.0000       3.044525        82.8457 
 160   0.0000       3.044527        82.8458 
 161   0.0000       3.059070        83.2415 
 162   0.0000       3.090224        84.0893 
 163   0.0000       3.157327        85.9152 
 164   0.0000       3.157327        85.9152 
 165   0.0000       3.157794        85.9280 
 166   0.0000       3.223185        87.7073 
 167   0.0000       3.255453        88.5854 
 168   0.0000       3.255456        88.5854 
 169   0.0000       3.267388        88.9101 
 170   0.0000       3.268296        88.9349 
 171   0.0000       3.268308        88.9352 
 172   0.0000       3.270223        88.9873 
 173   0.0000       3.270772        89.0022 
 174   0.0000       3.273350        89.0724 
 175   0.0000       3.273359        89.0726 
 176   0.0000       3.285747        89.4097 
 177   0.0000       3.285753        89.4099 
 178   0.0000       3.287095        89.4464 
 179   0.0000       3.288135        89.4747 
 180   0.0000       3.290092        89.5280 
 181   0.0000       3.290095        89.5280 
 182   0.0000       3.320165        90.3463 
 183   0.0000       3.356750        91.3418 
 184   0.0000       3.356750        91.3418 
 185   0.0000       3.362801        91.5065 
 186   0.0000       3.362803        91.5065 
 187   0.0000       3.363985        91.5387 
 188   0.0000       3.382082        92.0311 
 189   0.0000       3.481978        94.7495 
 190   0.0000       3.498014        95.1858 
 191   0.0000       3.506736        95.4231 
 192   0.0000       3.506743        95.4233 
 193   0.0000       3.536374        96.2296 
 194   0.0000       3.536375        96.2296 
 195   0.0000       3.606252        98.1311 
 196   0.0000       3.606261        98.1314 
 197   0.0000       3.683754       100.2400 
 198   0.0000       3.686002       100.3012 
 199   0.0000       3.689403       100.3938 
 200   0.0000       3.689424       100.3943 
 201   0.0000       3.717249       101.1515 
 202   0.0000       3.717253       101.1516 
 203   0.0000       3.749571       102.0310 
 204   0.0000       3.749587       102.0315 
 205   0.0000       3.788517       103.0908 
 206   0.0000       3.815305       103.8197 
 207   0.0000       3.851003       104.7911 
 208   0.0000       3.851013       104.7914 
 209   0.0000       3.888750       105.8183 
 210   0.0000       3.888751       105.8183 
 211   0.0000       3.889052       105.8265 
 212   0.0000       3.940218       107.2188 
 213   0.0000       3.940228       107.2191 
 214   0.0000       3.956793       107.6698 
 215   0.0000       4.248653       115.6117 
 216   0.0000       4.391729       119.5050 
 217   0.0000       4.391792       119.5067 
 218   0.0000       4.541548       123.5818 
 219   0.0000       4.668934       127.0482 
 220   0.0000       4.668953       127.0487 
 221   0.0000      13.058879       355.3502 
 222   0.0000      13.058918       355.3512 
 223   0.0000      13.059102       355.3562 
 224   0.0000      13.059114       355.3565 
 225   0.0000      13.059849       355.3766 
 226   0.0000      13.059878       355.3773 
 227   0.0000      13.060342       355.3900 
 228   0.0000      13.060717       355.4002 
 229   0.0000      13.060750       355.4011 
 230   0.0000      13.061146       355.4118 
 231   0.0000      13.061250       355.4147 
 232   0.0000      13.061289       355.4157 
 233   0.0000      13.061308       355.4163 
 234   0.0000      13.061356       355.4176 
 235   0.0000      13.061377       355.4181 
 236   0.0000      13.061492       355.4213 
 237   0.0000      13.061532       355.4224 
 238   0.0000      13.061578       355.4236 
 239   0.0000      13.062112       355.4381 
 240   0.0000      13.062167       355.4396 
 241   0.0000      13.062429       355.4468 
 242   0.0000      13.062513       355.4491 
 243   0.0000      13.062565       355.4505 
 244   0.0000      13.063659       355.4802 
 245   0.0000      13.068474       355.6113 
 246   0.0000      13.068475       355.6113 
 247   0.0000      13.069792       355.6471 
 248   0.0000      13.079615       355.9144 
 249   0.0000      13.079783       355.9190 
 250   0.0000      13.079857       355.9210 
 251   0.0000      13.080090       355.9273 
 252   0.0000      13.080377       355.9352 
 253   0.0000      13.080517       355.9390 
 254   0.0000      13.080528       355.9393 
 255   0.0000      13.081455       355.9645 
 256   0.0000      13.081462       355.9647 
 257   0.0000      13.284359       361.4858 
 258   0.0000      13.286991       361.5574 
 259   0.0000      13.287001       361.5577 
 260   0.0000      13.287145       361.5616 
 261   0.0000      13.290577       361.6550 
 262   0.0000      13.290580       361.6551 
 263   0.0000      13.291432       361.6783 
 264   0.0000      13.292708       361.7130 
 265   0.0000      13.292719       361.7133 
 266   0.0000      13.295821       361.7977 
 267   0.0000      13.295825       361.7978 
 268   0.0000      13.301154       361.9428 
 269   0.0000      13.305578       362.0632 
 270   0.0000      13.306136       362.0784 
 271   0.0000      13.306611       362.0913 
 272   0.0000      13.306613       362.0913 
 273   0.0000      13.308232       362.1354 
 274   0.0000      13.308247       362.1358 
 275   0.0000      13.310690       362.2023 
 276   0.0000      13.346920       363.1882 
 277   0.0000      13.346943       363.1888 
 278   0.0000      13.347023       363.1910 
 279   0.0000      13.355675       363.4264 
 280   0.0000      13.367140       363.7384 
 281   0.0000      13.367148       363.7386 
 282   0.0000      13.447849       365.9346 
 283   0.0000      13.447856       365.9348 
 284   0.0000      13.531904       368.2218 

                    ********************************
                    * MULLIKEN POPULATION ANALYSIS *
                    ********************************

--------------------------------------------
MULLIKEN ATOMIC CHARGES AND SPIN POPULATIONS
--------------------------------------------
   0 Cu:    0.492480    0.032612
   1 Cu:    0.492420    0.032584
   2 Cu:    0.492421    0.032593
   3 Cu:    0.414279    0.585963
   4 H :    0.108401    0.316248
Sum of atomic charges         :    2.0000000
Sum of atomic spin populations:    1.0000000

-----------------------------------------------------
MULLIKEN REDUCED ORBITAL CHARGES AND SPIN POPULATIONS
-----------------------------------------------------
CHARGE
  0 Cus       :     6.369764  s :     6.369764
      pz      :     4.075135  p :    12.225958
      px      :     4.008930
      py      :     4.141892
      dz2     :     1.986614  d :     9.911532
      dxz     :     1.995935
      dyz     :     1.959288
      dx2y2   :     1.996510
      dxy     :     1.973185
      f0      :     0.000042  f :     0.000266
      f+1     :     0.000012
      f-1     :     0.000029
      f+2     :     0.000081
      f-2     :     0.000025
      f+3     :     0.000028
      f-3     :     0.000049
      g0      :     0.000000  g :     0.000001
      g+1     :     0.000000
      g-1     :     0.000000
      g+2     :     0.000000
      g-2     :     0.000000
      g+3     :     0.000000
      g-3     :     0.000000
      g+4     :     0.000000
      g-4     :     0.000000
  1 Cus       :     6.369810  s :     6.369810
      pz      :     4.075127  p :    12.225973
      px      :     4.108667
      py      :     4.042179
      dz2     :     1.986615  d :     9.911530
      dxz     :     1.968445
      dyz     :     1.986771
      dx2y2   :     1.979019
      dxy     :     1.990680
      f0      :     0.000042  f :     0.000266
      f+1     :     0.000024
      f-1     :     0.000016
      f+2     :     0.000039
      f-2     :     0.000067
      f+3     :     0.000028
      f-3     :     0.000049
      g0      :     0.000000  g :     0.000001
      g+1     :     0.000000
      g-1     :     0.000000
      g+2     :     0.000000
      g-2     :     0.000000
      g+3     :     0.000000
      g-3     :     0.000000
      g+4     :     0.000000
      g-4     :     0.000000
  2 Cus       :     6.369809  s :     6.369809
      pz      :     4.075127  p :    12.225973
      px      :     4.108667
      py      :     4.042179
      dz2     :     1.986615  d :     9.911530
      dxz     :     1.968446
      dyz     :     1.986771
      dx2y2   :     1.979019
      dxy     :     1.990680
      f0      :     0.000042  f :     0.000266
      f+1     :     0.000024
      f-1     :     0.000016
      f+2     :     0.000039
      f-2     :     0.000067
      f+3     :     0.000028
      f-3     :     0.000049
      g0      :     0.000000  g :     0.000001
      g+1     :     0.000000
      g-1     :     0.000000
      g+2     :     0.000000
      g-2     :     0.000000
      g+3     :     0.000000
      g-3     :     0.000000
      g+4     :     0.000000
      g-4     :     0.000000
  3 Cus       :     6.574295  s :     6.574295
      pz      :     4.069176  p :    12.086261
      px      :     4.008542
      py      :     4.008542
      dz2     :     1.982150  d :     9.925053
      dxz     :     1.975881
      dyz     :     1.975885
      dx2y2   :     1.995569
      dxy     :     1.995569
      f0      :     0.000031  f :     0.000112
      f+1     :     0.000020
      f-1     :     0.000020
      f+2     :     0.000017
      f-2     :     0.000017
      f+3     :     0.000004
      f-3     :     0.000004
      g0      :     0.000000  g :     0.000000
      g+1     :     0.000000
      g-1     :     0.000000
      g+2     :     0.000000
      g-2     :     0.000000
      g+3     :     0.000000
      g-3     :     0.000000
      g+4     :     0.000000
      g-4     :     0.000000
  4 H s       :     0.908876  s :     0.908876
      pz      :    -0.023512  p :    -0.019910
      px      :     0.001802
      py      :     0.001800
      dz2     :     0.000357  d :     0.002633
      dxz     :     0.000736
      dyz     :     0.000735
      dx2y2   :     0.000402
      dxy     :     0.000402

SPIN
  0 Cus       :    -0.033134  s :    -0.033134
      pz      :     0.059391  p :     0.041669
      px      :     0.000233
      py      :    -0.017955
      dz2     :    -0.002168  d :     0.024042
      dxz     :    -0.000756
      dyz     :     0.025979
      dx2y2   :     0.001085
      dxy     :    -0.000098
      f0      :     0.000004  f :     0.000036
      f+1     :     0.000001
      f-1     :     0.000002
      f+2     :     0.000027
      f-2     :    -0.000000
      f+3     :    -0.000000
      f-3     :     0.000002
      g0      :     0.000000  g :     0.000000
      g+1     :     0.000000
      g-1     :    -0.000000
      g+2     :     0.000000
      g-2     :    -0.000000
      g+3     :     0.000000
      g-3     :     0.000000
      g+4     :     0.000000
      g-4     :     0.000000
  1 Cus       :    -0.033151  s :    -0.033151
      pz      :     0.059385  p :     0.041656
      px      :    -0.013413
      py      :    -0.004316
      dz2     :    -0.002168  d :     0.024043
      dxz     :     0.019296
      dyz     :     0.005928
      dx2y2   :     0.000198
      dxy     :     0.000789
      f0      :     0.000004  f :     0.000036
      f+1     :     0.000002
      f-1     :     0.000001
      f+2     :     0.000006
      f-2     :     0.000020
      f+3     :    -0.000000
      f-3     :     0.000002
      g0      :     0.000000  g :     0.000000
      g+1     :    -0.000000
      g-1     :    -0.000000
      g+2     :    -0.000000
      g-2     :     0.000000
      g+3     :     0.000000
      g-3     :     0.000000
      g+4     :     0.000000
      g-4     :     0.000000
  2 Cus       :    -0.033145  s :    -0.033145
      pz      :     0.059385  p :     0.041659
      px      :    -0.013411
      py      :    -0.004315
      dz2     :    -0.002168  d :     0.024044
      dxz     :     0.019297
      dyz     :     0.005928
      dx2y2   :     0.000198
      dxy     :     0.000789
      f0      :     0.000004  f :     0.000036
      f+1     :     0.000002
      f-1     :     0.000001
      f+2     :     0.000006
      f-2     :     0.000020
      f+3     :    -0.000000
      f-3     :     0.000002
      g0      :     0.000000  g :     0.000000
      g+1     :    -0.000000
      g-1     :    -0.000000
      g+2     :    -0.000000
      g-2     :     0.000000
      g+3     :     0.000000
      g-3     :     0.000000
      g+4     :     0.000000
      g-4     :     0.000000
  3 Cus       :     0.528581  s :     0.528581
      pz      :     0.067877  p :     0.074357
      px      :     0.003240
      py      :     0.003240
      dz2     :    -0.003525  d :    -0.016985
      dxz     :    -0.005891
      dyz     :    -0.005890
      dx2y2   :    -0.000839
      dxy     :    -0.000839
      f0      :     0.000004  f :     0.000009
      f+1     :     0.000001
      f-1     :     0.000001
      f+2     :     0.000001
      f-2     :     0.000001
      f+3     :     0.000000
      f-3     :     0.000001
      g0      :     0.000000  g :     0.000000
      g+1     :    -0.000000
      g-1     :    -0.000000
      g+2     :    -0.000000
      g-2     :    -0.000000
      g+3     :     0.000000
      g-3     :     0.000000
      g+4     :     0.000000
      g-4     :     0.000000
  4 H s       :     0.336969  s :     0.336969
      pz      :    -0.022005  p :    -0.020671
      px      :     0.000667
      py      :     0.000667
      dz2     :     0.000016  d :    -0.000049
      dxz     :    -0.000032
      dyz     :    -0.000032
      dx2y2   :    -0.000001
      dxy     :    -0.000001


                     *******************************
                     * LOEWDIN POPULATION ANALYSIS *
                     *******************************

-------------------------------------------
LOEWDIN ATOMIC CHARGES AND SPIN POPULATIONS
-------------------------------------------
   0 Cu:    0.474377    0.214306
   1 Cu:    0.474374    0.214306
   2 Cu:    0.474374    0.214306
   3 Cu:    0.556670    0.199134
   4 H :    0.020205    0.157949

----------------------------------------------------
LOEWDIN REDUCED ORBITAL CHARGES AND SPIN POPULATIONS
----------------------------------------------------
CHARGE
  0 Cus       :     6.166872  s :     6.166872
      pz      :     4.162582  p :    12.356049
      px      :     4.015354
      py      :     4.178112
      dz2     :     1.995622  d :    10.001913
      dxz     :     1.994567
      dyz     :     2.015710
      dx2y2   :     2.006023
      dxy     :     1.989992
      f0      :     0.000092  f :     0.000787
      f+1     :     0.000033
      f-1     :     0.000118
      f+2     :     0.000270
      f-2     :     0.000045
      f+3     :     0.000115
      f-3     :     0.000115
      g0      :     0.000000  g :     0.000002
      g+1     :     0.000000
      g-1     :     0.000000
      g+2     :     0.000000
      g-2     :     0.000000
      g+3     :     0.000000
      g-3     :     0.000000
      g+4     :     0.000000
      g-4     :     0.000000
  1 Cus       :     6.166876  s :     6.166876
      pz      :     4.162581  p :    12.356049
      px      :     4.137423
      py      :     4.056044
      dz2     :     1.995622  d :    10.001912
      dxz     :     2.010422
      dyz     :     1.999851
      dx2y2   :     1.994003
      dxy     :     2.002014
      f0      :     0.000092  f :     0.000787
      f+1     :     0.000096
      f-1     :     0.000054
      f+2     :     0.000101
      f-2     :     0.000213
      f+3     :     0.000115
      f-3     :     0.000115
      g0      :     0.000000  g :     0.000002
      g+1     :     0.000000
      g-1     :     0.000000
      g+2     :     0.000000
      g-2     :     0.000000
      g+3     :     0.000000
      g-3     :     0.000000
      g+4     :     0.000000
      g-4     :     0.000000
  2 Cus       :     6.166876  s :     6.166876
      pz      :     4.162581  p :    12.356049
      px      :     4.137423
      py      :     4.056044
      dz2     :     1.995622  d :    10.001912
      dxz     :     2.010422
      dyz     :     1.999851
      dx2y2   :     1.994003
      dxy     :     2.002014
      f0      :     0.000092  f :     0.000787
      f+1     :     0.000096
      f-1     :     0.000054
      f+2     :     0.000101
      f-2     :     0.000213
      f+3     :     0.000115
      f-3     :     0.000115
      g0      :     0.000000  g :     0.000002
      g+1     :     0.000000
      g-1     :     0.000000
      g+2     :     0.000000
      g-2     :     0.000000
      g+3     :     0.000000
      g-3     :     0.000000
      g+4     :     0.000000
      g-4     :     0.000000
  3 Cus       :     6.266416  s :     6.266416
      pz      :     4.143298  p :    12.169761
      px      :     4.013232
      py      :     4.013232
      dz2     :     2.029326  d :    10.006822
      dxz     :     1.990906
      dyz     :     1.990910
      dx2y2   :     1.997840
      dxy     :     1.997840
      f0      :     0.000061  f :     0.000330
      f+1     :     0.000082
      f-1     :     0.000082
      f+2     :     0.000045
      f-2     :     0.000045
      f+3     :     0.000008
      f-3     :     0.000007
      g0      :     0.000000  g :     0.000001
      g+1     :     0.000000
      g-1     :     0.000000
      g+2     :     0.000000
      g-2     :     0.000000
      g+3     :     0.000000
      g-3     :     0.000000
      g+4     :     0.000000
      g-4     :     0.000000
  4 H s       :     0.763335  s :     0.763335
      pz      :     0.103509  p :     0.202173
      px      :     0.049333
      py      :     0.049331
      dz2     :     0.002293  d :     0.014287
      dxz     :     0.003574
      dyz     :     0.003573
      dx2y2   :     0.002423
      dxy     :     0.002423

SPIN
  0 Cus       :     0.008343  s :     0.008343
      pz      :     0.132905  p :     0.135821
      px      :     0.000509
      py      :     0.002407
      dz2     :    -0.000708  d :     0.069978
      dxz     :    -0.000476
      dyz     :     0.067688
      dx2y2   :     0.003119
      dxy     :     0.000356
      f0      :     0.000015  f :     0.000164
      f+1     :     0.000001
      f-1     :     0.000016
      f+2     :     0.000116
      f-2     :    -0.000000
      f+3     :     0.000000
      f-3     :     0.000016
      g0      :     0.000000  g :     0.000000
      g+1     :     0.000000
      g-1     :    -0.000000
      g+2     :     0.000000
      g-2     :    -0.000000
      g+3     :    -0.000000
      g-3     :     0.000000
      g+4     :     0.000000
      g-4     :     0.000000
  1 Cus       :     0.008341  s :     0.008341
      pz      :     0.132903  p :     0.135819
      px      :     0.001932
      py      :     0.000984
      dz2     :    -0.000708  d :     0.069982
      dxz     :     0.050649
      dyz     :     0.016566
      dx2y2   :     0.001047
      dxy     :     0.002429
      f0      :     0.000015  f :     0.000164
      f+1     :     0.000012
      f-1     :     0.000005
      f+2     :     0.000029
      f-2     :     0.000087
      f+3     :     0.000000
      f-3     :     0.000016
      g0      :     0.000000  g :     0.000000
      g+1     :    -0.000000
      g-1     :    -0.000000
      g+2     :     0.000000
      g-2     :     0.000000
      g+3     :    -0.000000
      g-3     :     0.000000
      g+4     :     0.000000
      g-4     :     0.000000
  2 Cus       :     0.008341  s :     0.008341
      pz      :     0.132903  p :     0.135819
      px      :     0.001932
      py      :     0.000984
      dz2     :    -0.000708  d :     0.069982
      dxz     :     0.050649
      dyz     :     0.016566
      dx2y2   :     0.001047
      dxy     :     0.002429
      f0      :     0.000015  f :     0.000164
      f+1     :     0.000012
      f-1     :     0.000005
      f+2     :     0.000029
      f-2     :     0.000087
      f+3     :     0.000000
      f-3     :     0.000016
      g0      :     0.000000  g :     0.000000
      g+1     :    -0.000000
      g-1     :    -0.000000
      g+2     :     0.000000
      g-2     :     0.000000
      g+3     :    -0.000000
      g-3     :     0.000000
      g+4     :     0.000000
      g-4     :     0.000000
  3 Cus       :     0.204569  s :     0.204569
      pz      :     0.005244  p :     0.009287
      px      :     0.002021
      py      :     0.002021
      dz2     :    -0.000936  d :    -0.014715
      dxz     :    -0.006503
      dyz     :    -0.006502
      dx2y2   :    -0.000387
      dxy     :    -0.000387
      f0      :     0.000005  f :    -0.000006
      f+1     :    -0.000006
      f-1     :    -0.000006
      f+2     :    -0.000000
      f-2     :    -0.000000
      f+3     :     0.000000
      f-3     :     0.000001
      g0      :     0.000000  g :    -0.000000
      g+1     :    -0.000000
      g-1     :    -0.000000
      g+2     :    -0.000000
      g-2     :    -0.000000
      g+3     :     0.000000
      g-3     :    -0.000000
      g+4     :     0.000000
      g-4     :     0.000000
  4 H s       :     0.141194  s :     0.141194
      pz      :     0.017999  p :     0.016803
      px      :    -0.000598
      py      :    -0.000598
      dz2     :     0.000055  d :    -0.000048
      dxz     :    -0.000031
      dyz     :    -0.000031
      dx2y2   :    -0.000020
      dxy     :    -0.000020


                      *****************************
                      * MAYER POPULATION ANALYSIS *
                      *****************************

  NA   - Mulliken gross atomic population
  ZA   - Total nuclear charge
  QA   - Mulliken gross atomic charge
  VA   - Mayer's total valence
  BVA  - Mayer's bonded valence
  FA   - Mayer's free valence

  ATOM       NA         ZA         QA         VA         BVA        FA
  0 Cu    28.5075    29.0000     0.4925     1.0726     1.0369     0.0356
  1 Cu    28.5076    29.0000     0.4924     1.0726     1.0370     0.0356
  2 Cu    28.5076    29.0000     0.4924     1.0726     1.0370     0.0356
  3 Cu    28.5857    29.0000     0.4143     0.9649     0.6205     0.3443
  4 H      0.8916     1.0000     0.1084     0.8173     0.7186     0.0987

  Mayer bond orders larger than 0.100000
B(  0-Cu,  1-Cu) :   0.2907 B(  0-Cu,  2-Cu) :   0.2907 B(  0-Cu,  3-Cu) :   0.2114 
B(  0-Cu,  4-H ) :   0.2441 B(  1-Cu,  2-Cu) :   0.2908 B(  1-Cu,  3-Cu) :   0.2114 
B(  1-Cu,  4-H ) :   0.2441 B(  2-Cu,  3-Cu) :   0.2114 B(  2-Cu,  4-H ) :   0.2441 


-------
TIMINGS
-------

Total SCF time: 0 days 0 hours 0 min 17 sec 

Total time                  ....      17.081 sec
Sum of individual times     ....      16.846 sec  ( 98.6%)

Fock matrix formation       ....      15.796 sec  ( 92.5%)
  XC integration            ....       0.956 sec  (  6.1% of F)
    Basis function eval.    ....       0.096 sec  ( 10.0% of XC)
    Density eval.           ....       0.158 sec  ( 16.5% of XC)
    XC-Functional eval.     ....       0.032 sec  (  3.4% of XC)
    XC-Potential eval.      ....       0.290 sec  ( 30.4% of XC)
Diagonalization             ....       0.368 sec  (  2.2%)
Density matrix formation    ....       0.032 sec  (  0.2%)
Population analysis         ....       0.024 sec  (  0.1%)
Initial guess               ....       0.127 sec  (  0.7%)
Orbital Transformation      ....       0.000 sec  (  0.0%)
Orbital Orthonormalization  ....       0.000 sec  (  0.0%)
DIIS solution               ....       0.137 sec  (  0.8%)
Grid generation             ....       0.361 sec  (  2.1%)


           ************************************************************
           *        Program running with 24 parallel MPI-processes    *
           *              working on a common directory               *
           ************************************************************

------------------------------------------------------------------------------
                                ORCA  MP2 
------------------------------------------------------------------------------

Freezing NCore=40 chemical core electrons

-------------
RI-MP2 ENERGY
-------------
Dimension of the basis                    ...  285
Memory devoted to MP2                     ... 5000 MB   
Data format for buffers                   ... DOUBLE
Compression type for matrix containers    ... UNCOMPRESSED
Scaling for aa/bb pairs                   ...   4.000e-01
Scaling for ab pairs                      ...   4.700e-01
Overall scaling of the MP2 energy         ...   1.000e+00
Calculating two index integrals           ... done (    0.015 sec)
Cholesky decomposition of V**-1           ... done (    0.043 sec)

-----------------
RI-TRANSFORMATION (AUX index driven)
-----------------

Dimension of the orbital-basis         ... 285
Dimension of the aux-basis             ... 939
Transformation of internal/external MOs...   20-  57 to   58- 284
Number Format for Storage              ... Double (8 Byte)
Integral mode                          ... Direct

First Phase: integral generation and transformation of MO indices
  Aux angular momentum 0               ... done (    0.004 sec)
  Aux angular momentum 1               ... done (    0.007 sec)
  Aux angular momentum 2               ... done (    0.013 sec)
  Aux angular momentum 3               ... done (    0.021 sec)
  Aux angular momentum 4               ... done (    0.014 sec)
  Aux angular momentum 5               ... done (    0.020 sec)
  Aux angular momentum 6               ... done (    0.028 sec)
Closing buffer VIA ( 0.06 GB; CompressionRatio= 1.00)
  Phase 1 completed in     0.180 sec
Second Phase: sorting and transformation of aux index

IA-Transformation
Memory available                       ... 4986 MB 
Max. # MO pairs treated in a batch     ... 2    
# of internal orbitals                 ... 38
# batches for internal orbitals        ... 1
Closing buffer IAV ( 0.00 GB; CompressionRatio= 1.00)
(ia|v) transformation done in     0.039 sec

  Phase 2 completed in     0.096 sec
RI-Integral transformation completed in     0.278 sec

-----------------
RI-TRANSFORMATION (AUX index driven)
-----------------

Dimension of the orbital-basis         ... 285
Dimension of the aux-basis             ... 939
Transformation of internal/external MOs...   20-  56 to   57- 284
Number Format for Storage              ... Double (8 Byte)
Integral mode                          ... Direct

First Phase: integral generation and transformation of MO indices
  Aux angular momentum 0               ... done (    0.004 sec)
  Aux angular momentum 1               ... done (    0.008 sec)
  Aux angular momentum 2               ... done (    0.013 sec)
  Aux angular momentum 3               ... done (    0.021 sec)
  Aux angular momentum 4               ... done (    0.014 sec)
  Aux angular momentum 5               ... done (    0.021 sec)
  Aux angular momentum 6               ... done (    0.028 sec)
Closing buffer VIA ( 0.06 GB; CompressionRatio= 1.00)
  Phase 1 completed in     0.183 sec
Second Phase: sorting and transformation of aux index

IA-Transformation
Memory available                       ... 4986 MB 
Max. # MO pairs treated in a batch     ... 2    
# of internal orbitals                 ... 37
# batches for internal orbitals        ... 1
Closing buffer IAV ( 0.00 GB; CompressionRatio= 1.00)
(ia|v) transformation done in     0.038 sec

  Phase 2 completed in     0.092 sec
RI-Integral transformation completed in     0.276 sec
Opening buffers                              ... done

Starting loop over batches of integrals:

Operator 0  - window                       ... ( 20- 57)x( 58-284)
Operator 0  - Memory available             ...  5000 MB
Operator 0  - Memory needed per MO         ...   1.6 MB
Operator 0  - Number of orbitals per batch ... 2
Operator 0  - Number of batches            ... 1

OPERATOR  0   PASS   0:  MOs    20 ...   21 +   22 ...   23 +   24 ...   25 +   26 ...   27
                            +   28 ...   29 +   30 ...   31 +   32 ...   33 +   34 ...   35
                            +   36 ...   37 +   38 ...   39 +   40 ...   41 +   42 ...   43
                            +   44 ...   45 +   46 ...   47 +   48 ...   49 +   50 ...   51
                            +   52 ...   53 +   54 ...   55 +   56 ...   57
  Reading integrals       ... ok

Operator 1  - window                       ... ( 20- 56)x( 57-284)
Operator 1  - Memory available             ...  5000 MB
Operator 1  - Memory needed per MO         ...   1.6 MB
Operator 1  - Number of orbitals per batch ... 2
Operator 1  - Number of batches            ... 1

OPERATOR  1   PASS   0:  MOs    20 ...   21 +   22 ...   23 +   24 ...   25 +   26 ...   27
                            +   28 ...   29 +   30 ...   31 +   32 ...   33 +   34 ...   35
                            +   36 ...   37 +   38 ...   39 +   40 ...   41 +   42 ...   43
                            +   44 ...   45 +   46 ...   47 +   48 ...   49 +   50 ...   51
                            +   52 ...   53 +   54 ...   55 +   56 ...   56
  Reading integrals       ... ok
Time spent in pair loops =     0.630 sec
Deleting buffer (Ka|jb)[aa] ...done
Deleting buffer (Ka|jb)[ab] ...done
Deleting buffer (Ka|jb)[ba] ...done
Deleting buffer (Ka|jb)[bb] ...done

Spin-scaled correlation energy components}
 E2 and T2 for alpha/alpha pairs :     -0.260850017 Eh      0.000000000
 E2 and T2 for beta/beta   pairs :     -0.258761686 Eh      0.000000000
 E2 and T2 for alpha/beta  pairs :     -1.153685427 Eh      0.000000000


-----------------------------------------------
 RI-MP2 CORRELATION ENERGY:     -1.673297130 Eh
-----------------------------------------------


-------
TIMINGS
-------

Total time                :    1.414 sec
Integral trafo            :    0.567 sec ( 40.1%)
I/O of integrals          :    0.004 sec (  0.3%)
K(i,j) Operators          :    0.322 sec ( 22.8%)
T(i,j) pair energies      :    0.016 sec (  1.1%)
V-calculation             :    0.015 sec (  1.1%)
V**(-1/2)                 :    0.043 sec (  3.1%)
Gamma(ia|P)               :    0.000 sec (  0.0%)
Gamma-Trafo               :    0.000 sec (  0.0%)
D(virtual)                :    0.000 sec (  0.0%)
D(internal)               :    0.000 sec (  0.0%)
W(virtual)                :    0.000 sec (  0.0%)
W(internal)               :    0.000 sec (  0.0%)
L(virtual)                :    0.000 sec (  0.0%)
L(internal)               :    0.000 sec (  0.0%)
G(D)                      :    0.000 sec (  0.0%)
G(Z)                      :    0.000 sec (  0.0%)
Z-Vector Solution         :    0.000 sec (  0.0%)
Z-Vector Solution         :    0.000 sec (  0.0%)
3-Index Derivative 
+ Separable RIJ part      :    0.000 sec (  0.0%)
2-Index Derivative 
+ Separable RIJ part      :    0.000 sec (  0.0%)
Separable Gradient (X)    :    0.000 sec (  0.0%)


---------------------------------------
MP2 TOTAL ENERGY:    -6560.685388492 Eh
---------------------------------------


-------------------------------------------------------------------------------
                          DFT DISPERSION CORRECTION                            
                                                                               
                              DFTD3 V3.1  Rev 1                                
                          USING Becke-Johnson damping                          
-------------------------------------------------------------------------------
The DSD-BLYP/2013 functional is recognized
Active option DFTDOPT                   ...         4   

molecular C6(AA) [au] = 2980.231818 


            DFT-D V3
 parameters
 s6 scaling factor         :     0.5700 
 a1 scaling factor         :     0.0000 
 s8 scaling factor         :     0.0000 
 a2 scaling factor         :     5.4000 
 ad hoc parameters k1-k3   :    16.0000     1.3333    -4.0000 

 Edisp/kcal,au: -11.832708403925  -0.018856619112 
 E6   /kcal   : -11.832708404 
 E8   /kcal   :  -0.000000000 
 % E8         :   0.000000000 

-------------------------   ----------------
Dispersion correction           -0.018856619
-------------------------   ----------------


-------------------------   --------------------
FINAL SINGLE POINT ENERGY     -6560.704245111066
-------------------------   --------------------


                            ***************************************
                            *     ORCA property calculations      *
                            ***************************************


  WARNING: The energy has been calculated at the MP2 level but the densities
           used in the property calculations are still SCF densities
           MP2 response densities have not been calculated 
           use %mp2 Density relaxed end
           or  %mp2 Density unrelaxed end

                                    ---------------------
                                    Active property flags
                                    ---------------------
   (+) Dipole Moment


------------------------------------------------------------------------------
                       ORCA ELECTRIC PROPERTIES CALCULATION
------------------------------------------------------------------------------

Dipole Moment Calculation                       ... on
Quadrupole Moment Calculation                   ... off
Polarizability Calculation                      ... off
GBWName                                         ... Cu04C2_H_F.gbw
Electron density file                           ... Cu04C2_H_F.scfp
The origin for moment calculation is the CENTER OF MASS  = ( 0.000000,  0.000000  0.013733)

-------------
DIPOLE MOMENT
-------------
                                X             Y             Z
Electronic contribution:      0.00000       0.00001       1.77437
Nuclear contribution   :      0.00000       0.00000      -1.60670
                        -----------------------------------------
Total Dipole Moment    :      0.00000       0.00001       0.16767
                        -----------------------------------------
Magnitude (a.u.)       :      0.16767
Magnitude (Debye)      :      0.42619



--------------------
Rotational spectrum 
--------------------
 
Rotational constants in cm-1:     0.045915     0.042882     0.042882 
Rotational constants in MHz :  1376.483459  1285.559854  1285.559421 

 Dipole components along the rotational axes: 
x,y,z [a.u.] :     0.167672     0.000005     0.000000 
x,y,z [Debye]:     0.426189     0.000013     0.000000 

 

Timings for individual modules:

Sum of individual times         ...       20.269 sec (=   0.338 min)
GTO integral calculation        ...        0.970 sec (=   0.016 min)   4.8 %
SCF iterations                  ...       17.394 sec (=   0.290 min)  85.8 %
MP2 module                      ...        1.905 sec (=   0.032 min)   9.4 %
                             ****ORCA TERMINATED NORMALLY****
TOTAL RUN TIME: 0 days 0 hours 0 minutes 20 seconds 790 msec
