
                                 *****************
                                 * O   R   C   A *
                                 *****************

           --- An Ab Initio, DFT and Semiempirical electronic structure package ---

                  #######################################################
                  #                        -***-                        #
                  #          Department of theory and spectroscopy      #
                  #               Directorship: Frank Neese             #
                  #        Max Planck Institute fuer Kohlenforschung    #
                  #                Kaiser Wilhelm Platz 1               #
                  #                 D-45470 Muelheim/Ruhr               #
                  #                      Germany                        #
                  #                                                     #
                  #                  All rights reserved                #
                  #                        -***-                        #
                  #######################################################


                         Program Version 4.2.0 -  RELEASE  -


 With contributions from (in alphabetic order):
   Daniel Aravena         : Magnetic Suceptibility
   Michael Atanasov       : Ab Initio Ligand Field Theory (pilot matlab implementation)
   Alexander A. Auer      : GIAO ZORA, VPT2
   Ute Becker             : Parallelization
   Giovanni Bistoni       : ED, misc. LED, open-shell LED, HFLED
   Martin Brehm           : Molecular dynamics
   Dmytro Bykov           : SCF Hessian
   Vijay G. Chilkuri      : MRCI spin determinant printing, contributions to CSF-ICE
   Dipayan Datta          : RHF DLPNO-CCSD density
   Achintya Kumar Dutta   : EOM-CC, STEOM-CC
   Dmitry Ganyushin       : Spin-Orbit,Spin-Spin,Magnetic field MRCI
   Miquel Garcia          : C-PCM Hessian, Gaussian charge scheme
   Yang Guo               : DLPNO-NEVPT2, CIM, IAO-localization
   Andreas Hansen         : Spin unrestricted coupled pair/coupled cluster methods
   Benjamin Helmich-Paris : CASSCF linear response (MC-RPA)
   Lee Huntington         : MR-EOM, pCC
   Robert Izsak           : Overlap fitted RIJCOSX, COSX-SCS-MP3, EOM
   Christian Kollmar      : KDIIS, OOCD, Brueckner-CCSD(T), CCSD density
   Simone Kossmann        : Meta GGA functionals, TD-DFT gradient, OOMP2, MP2 Hessian
   Martin Krupicka        : AUTO-CI
   Lucas Lang             : DCDCAS
   Dagmar Lenk            : GEPOL surface, SMD
   Dimitrios Liakos       : Extrapolation schemes; Compound Job, initial MDCI parallelization
   Dimitrios Manganas     : Further ROCIS development; embedding schemes
   Dimitrios Pantazis     : SARC Basis sets
   Taras Petrenko         : DFT Hessian,TD-DFT gradient, ASA, ECA, R-Raman, ABS, FL, XAS/XES, NRVS
   Peter Pinski           : DLPNO-MP2, DLPNO-MP2 Gradient
   Christoph Reimann      : Effective Core Potentials
   Marius Retegan         : Local ZFS, SOC
   Christoph Riplinger    : Optimizer, TS searches, QM/MM, DLPNO-CCSD(T), (RO)-DLPNO pert. Triples
   Tobias Risthaus        : Range-separated hybrids, TD-DFT gradient, RPA, STAB
   Michael Roemelt        : Original ROCIS implementation
   Masaaki Saitow         : Open-shell DLPNO-CCSD energy and density
   Barbara Sandhoefer     : DKH picture change effects
   Avijit Sen             : IP-ROCIS
   Kantharuban Sivalingam : CASSCF convergence, NEVPT2, FIC-MRCI
   Bernardo de Souza      : ESD, SOC TD-DFT
   Georgi Stoychev        : AutoAux, RI-MP2 NMR
   Willem Van den Heuvel  : Paramagnetic NMR
   Boris Wezisla          : Elementary symmetry handling
   Frank Wennmohs         : Technical directorship


 We gratefully acknowledge several colleagues who have allowed us to
 interface, adapt or use parts of their codes:
   Stefan Grimme, W. Hujo, H. Kruse,             : VdW corrections, initial TS optimization,
                  C. Bannwarth                     DFT functionals, gCP, sTDA/sTD-DF
   Ed Valeev, F. Pavosevic, A. Kumar             : LibInt (2-el integral package), F12 methods
   Garnet Chan, S. Sharma, J. Yang, R. Olivares  : DMRG
   Ulf Ekstrom                                   : XCFun DFT Library
   Mihaly Kallay                                 : mrcc  (arbitrary order and MRCC methods)
   Andreas Klamt, Michael Diedenhofen            : otool_cosmo (COSMO solvation model)
   Jiri Pittner, Ondrej Demel                    : Mk-CCSD
   Frank Weinhold                                : gennbo (NPA and NBO analysis)
   Christopher J. Cramer and Donald G. Truhlar   : smd solvation model
   Lars Goerigk                                  : TD-DFT with DH, B97 family of functionals
   V. Asgeirsson, H. Jonsson                     : NEB implementation
   FAccTs GmbH                                   : IRC, NEB, NEB-TS, Multilevel, MM, QM/MM, CI optimization
   S Lehtola, MJT Oliveira, MAL Marques          : LibXC Library


 Your calculation uses the libint2 library for the computation of 2-el integrals
 For citations please refer to: http://libint.valeyev.net

 Your ORCA version has been built with support for libXC version: 4.2.3
 For citations please refer to: https://tddft.org/programs/libxc/

 This ORCA versions uses:
   CBLAS   interface :  Fast vector & matrix operations
   LAPACKE interface :  Fast linear algebra routines
   SCALAPACK package :  Parallel linear algebra routines


Your calculation utilizes the atom-pairwise dispersion correction
with the Becke-Johnson damping scheme (D3BJ)
Cite in your paper:
S.Grimme, S.Ehrlich, L.Goerigk, J Comput Chem, (2011), 32, 1456–1465 
S.Grimme, J.Antony, S.Ehrlich and H.Krieg, J.Chem.Phys., 132, (2010), 154104 
   

----- Orbital basis set information -----
Your calculation utilizes the basis: def2-TZVPPD
   F. Weigend and R. Ahlrichs, Phys. Chem. Chem. Phys. 7, 3297 (2005).
   D. Rappoport and F. Furche, J. Chem. Phys. 133 134105 (2010).

----- AuxC basis set information -----
Your calculation utilizes the auxiliary basis: def2-TZVPPD/C
   A. Hellweg, C. Hattig, S. Hofener and W. Klopper, Theor. Chem. Acc. 117, 587 (2007).

----- AuxJK basis set information -----
Your calculation utilizes the auxiliary basis: def2/JK
   H-Ba, Hf-Rn: F. Weigend, J. Comput. Chem. 29, 167 (2008).

================================================================================
                                        WARNINGS
                       Please study these warnings very carefully!
================================================================================


WARNING: your system is open-shell and RHF/RKS was chosen
  ===> : WILL SWITCH to UHF/UKS


WARNING: No MP2 level density has been requested!
         To caclulate MP2 level properties use
         %mp2 Density relaxed end
         or
         %mp2 Density unrelaxed end
         Otherwise for double-hybrid DFT only the energy is correct!

WARNING: There are different parametrizations of Gershom Martin's DSD-DFs
         for use with and without D3(BJ)!
         You are using the D3(BJ) parametrized version,
         consistent with the 2013 article (S. Kozuch and J. M. L. Martin, JCC 2013, 34, 2327)

WARNING: The frozen-core approximation is turned on by default for 
         the MP2 part of double-hybrid DFT.

INFO   : the flag for use of LIBINT has been found!

================================================================================
                                       INPUT FILE
================================================================================
NAME = Cu04C2_H_A.in
|  1> #
|  2> # Cu04C2_H_A ri-DSD-BLYP/2013-D3BJ/Def2-TZVPPD
|  3> #
|  4> ! rijk ri-dsd-blyp/2013 d3bj def2-tzvppd def2/jk def2-tzvppd/c grid4 nofinalgrid
|  5> 
|  6> *xyz 2 2
|  7> Cu      -0.000000    1.401870   -0.545062 
|  8> Cu       1.214055   -0.700935   -0.545062 
|  9> Cu      -1.214055   -0.700935   -0.545062 
| 10> Cu       0.000000    0.000000    1.530006 
| 11> H        0.000000    0.000000    3.050192 
| 12> *
| 13> 
| 14> %maxcore 5000
| 15> 
| 16> %pal
| 17> nprocs = 24
| 18> end
| 19> 
| 20> 
| 21>                          ****END OF INPUT****
================================================================================

                       ****************************
                       * Single Point Calculation *
                       ****************************

---------------------------------
CARTESIAN COORDINATES (ANGSTROEM)
---------------------------------
  Cu    -0.000000    1.401870   -0.545062
  Cu     1.214055   -0.700935   -0.545062
  Cu    -1.214055   -0.700935   -0.545062
  Cu     0.000000    0.000000    1.530006
  H      0.000000    0.000000    3.050192

----------------------------
CARTESIAN COORDINATES (A.U.)
----------------------------
  NO LB      ZA    FRAG     MASS         X           Y           Z
   0 Cu   29.0000    0    63.550   -0.000000    2.649150   -1.030018
   1 Cu   29.0000    0    63.550    2.294231   -1.324575   -1.030018
   2 Cu   29.0000    0    63.550   -2.294231   -1.324575   -1.030018
   3 Cu   29.0000    0    63.550    0.000000    0.000000    2.891292
   4 H     1.0000    0     1.008    0.000000    0.000000    5.764028

--------------------------------
INTERNAL COORDINATES (ANGSTROEM)
--------------------------------
 Cu     0   0   0     0.000000000000     0.00000000     0.00000000
 Cu     1   0   0     2.428110049205     0.00000000     0.00000000
 Cu     2   1   0     2.428110000000    60.00000067     0.00000000
 Cu     2   1   3     2.504225752977    61.00046376   288.66439875
 H      4   2   1     1.520186000000   145.95791111   214.86707431

---------------------------
INTERNAL COORDINATES (A.U.)
---------------------------
 Cu     0   0   0     0.000000000000     0.00000000     0.00000000
 Cu     1   0   0     4.588463016019     0.00000000     0.00000000
 Cu     2   1   0     4.588462923036    60.00000067     0.00000000
 Cu     2   1   3     4.732300850640    61.00046376   288.66439875
 H      4   2   1     2.872735212621   145.95791111   214.86707431

---------------------
BASIS SET INFORMATION
---------------------
There are 2 groups of distinct atoms

 Group   1 Type Cu  : 17s13p7d2f1g contracted to 6s6p4d2f1g pattern {842111/631111/4111/11/1}
 Group   2 Type H   : 5s3p1d contracted to 3s3p1d pattern {311/111/1}

Atom   0Cu   basis set group =>   1
Atom   1Cu   basis set group =>   1
Atom   2Cu   basis set group =>   1
Atom   3Cu   basis set group =>   1
Atom   4H    basis set group =>   2
---------------------------------
AUXILIARY/C BASIS SET INFORMATION
---------------------------------
There are 2 groups of distinct atoms

 Group   1 Type Cu  : 10s10p9d7f5g3h1i contracted to 10s10p9d7f5g3h1i pattern {1111111111/1111111111/111111111/1111111/11111/111/1}
 Group   2 Type H   : 5s4p3d1f contracted to 5s4p3d1f pattern {11111/1111/111/1}

Atom   0Cu   basis set group =>   1
Atom   1Cu   basis set group =>   1
Atom   2Cu   basis set group =>   1
Atom   3Cu   basis set group =>   1
Atom   4H    basis set group =>   2
----------------------------------
AUXILIARY/JK BASIS SET INFORMATION
----------------------------------
There are 2 groups of distinct atoms

 Group   1 Type Cu  : 19s14p12d10f7g3h1i contracted to 16s13p11d9f5g3h1i pattern {4111111111111111/2111111111111/21111111111/211111111/31111/111/1}
 Group   2 Type H   : 4s2p2d contracted to 2s2p2d pattern {31/11/11}

Atom   0Cu   basis set group =>   1
Atom   1Cu   basis set group =>   1
Atom   2Cu   basis set group =>   1
Atom   3Cu   basis set group =>   1
Atom   4H    basis set group =>   2


           ************************************************************
           *        Program running with 24 parallel MPI-processes    *
           *              working on a common directory               *
           ************************************************************
------------------------------------------------------------------------------
                           ORCA GTO INTEGRAL CALCULATION
                           -- RI-GTO INTEGRALS CHOSEN --
------------------------------------------------------------------------------

                         BASIS SET STATISTICS AND STARTUP INFO

Gaussian basis set:
 # of primitive gaussian shells          ...  169
 # of primitive gaussian functions       ...  475
 # of contracted shells                  ...   83
 # of contracted basis functions         ...  285
 Highest angular momentum                ...    4
 Maximum contraction depth               ...    8
Auxiliary gaussian basis set:
 # of primitive gaussian shells          ...  272
 # of primitive gaussian functions       ... 1220
 # of contracted shells                  ...  238
 # of contracted aux-basis functions     ... 1074
 Highest angular momentum                ...    6
 Maximum contraction depth               ...    4
Ratio of auxiliary to basis functions    ...  3.77
Integral package used                  ... LIBINT
 One Electron integrals                  ... done
 Ordering auxiliary basis shells         ... done
 Integral threshhold             Thresh  ...  1.000e-10
 Primitive cut-off               TCut    ...  1.000e-11
 Pre-screening matrix                    ... done
 Shell pair data                         ... 
 Ordering of the shell pairs             ... done (   0.000 sec) 3135 of 3486 pairs
 Determination of significant pairs      ... done (   0.000 sec)
 Creation of shell pair data             ... done (   0.000 sec)
 Storage of shell pair data              ... done (   0.013 sec)
 Shell pair data done in (   0.014 sec)
 Computing two index integrals           ... done
 Cholesky decomposition of the V-matrix  ... done


Timings:
 Total evaluation time                   ...   0.584 sec (  0.010 min)
 One electron matrix time                ...   0.043 sec (  0.001 min) =  7.4%
 Schwartz matrix evaluation time         ...   0.247 sec (  0.004 min) = 42.3%
 Two index repulsion integral time       ...   0.197 sec (  0.003 min) = 33.7%
 Cholesky decomposition of V             ...   0.052 sec (  0.001 min) =  8.9%
 Three index repulsion integral time     ...   0.000 sec (  0.000 min) =  0.0%



           ************************************************************
           *        Program running with 24 parallel MPI-processes    *
           *              working on a common directory               *
           ************************************************************
-------------------------------------------------------------------------------
                                 ORCA SCF
-------------------------------------------------------------------------------

------------
SCF SETTINGS
------------
Hamiltonian:
 Density Functional     Method          .... DFT(GTOs)
 Exchange Functional    Exchange        .... B88
   X-Alpha parameter    XAlpha          ....  0.666667
   Becke's b parameter  XBeta           ....  0.004200
 Correlation Functional Correlation     .... LYP
 LDA part of GGA corr.  LDAOpt          .... VWN-5
 Gradients option       PostSCFGGA      .... off
 Hybrid DFT is turned on
   Fraction HF Exchange ScalHFX         ....  0.710000
   Scaling of DF-GGA-X  ScalDFX         ....  0.290000
   Scaling of DF-GGA-C  ScalDFC         ....  0.540000
   Scaling of DF-LDA-C  ScalLDAC        ....  0.540000
   Perturbative correction              ....  1.000000
   Density functional embedding theory  .... OFF
 RI-approximation to the Coulomb term is turned on
   Number of auxiliary basis functions  .... 1074
   RI-JK (J+K treated both via RI)      .... on


General Settings:
 Integral files         IntName         .... Cu04C2_H_A
 Hartree-Fock type      HFTyp           .... UHF
 Total Charge           Charge          ....    2
 Multiplicity           Mult            ....    2
 Number of Electrons    NEL             ....  115
 Basis Dimension        Dim             ....  285
 Nuclear Repulsion      ENuc            ....   1105.0271586451 Eh

Convergence Acceleration:
 DIIS                   CNVDIIS         .... on
   Start iteration      DIISMaxIt       ....    12
   Startup error        DIISStart       ....  0.200000
   # of expansion vecs  DIISMaxEq       ....     5
   Bias factor          DIISBfac        ....   1.050
   Max. coefficient     DIISMaxC        ....  10.000
 Newton-Raphson         CNVNR           .... off
 SOSCF                  CNVSOSCF        .... off
 Level Shifting         CNVShift        .... on
   Level shift para.    LevelShift      ....    0.2500
   Turn off err/grad.   ShiftErr        ....    0.0010
 Zerner damping         CNVZerner       .... off
 Static damping         CNVDamp         .... on
   Fraction old density DampFac         ....    0.7000
   Max. Damping (<1)    DampMax         ....    0.9800
   Min. Damping (>=0)   DampMin         ....    0.0000
   Turn off err/grad.   DampErr         ....    0.1000
 Fernandez-Rico         CNVRico         .... off

SCF Procedure:
 Maximum # iterations   MaxIter         ....   125
 SCF integral mode      SCFMode         .... Direct
   Integral package                     .... LIBINT
 Reset frequency        DirectResetFreq ....    20
 Integral Threshold     Thresh          ....  1.000e-10 Eh
 Primitive CutOff       TCut            ....  1.000e-11 Eh

Convergence Tolerance:
 Convergence Check Mode ConvCheckMode   .... Total+1el-Energy
 Convergence forced     ConvForced      .... 0
 Energy Change          TolE            ....  1.000e-06 Eh
 1-El. energy change                    ....  1.000e-03 Eh
 DIIS Error             TolErr          ....  1.000e-06


Diagonalization of the overlap matrix:
Smallest eigenvalue                        ... 4.269e-04
Time for diagonalization                   ...    0.014 sec
Threshold for overlap eigenvalues          ... 1.000e-08
Number of eigenvalues below threshold      ... 0
Time for construction of square roots      ...    0.010 sec
Total time needed                          ...    0.025 sec

-------------------
DFT GRID GENERATION
-------------------

General Integration Accuracy     IntAcc      ...  4.670
Radial Grid Type                 RadialGrid  ... Gauss-Chebyshev
Angular Grid (max. acc.)         AngularGrid ... Lebedev-302
Angular grid pruning method      GridPruning ... 3 (G Style)
Weight generation scheme         WeightScheme... Becke
Basis function cutoff            BFCut       ...    1.0000e-10
Integration weight cutoff        WCut        ...    1.0000e-14
Grids for H and He will be reduced by one unit

# of grid points (after initial pruning)     ...  41618 (   0.0 sec)
# of grid points (after weights+screening)   ...  41057 (   0.0 sec)
nearest neighbour list constructed           ...    0.0 sec
Grid point re-assignment to atoms done       ...    0.0 sec
Grid point division into batches done        ...    0.3 sec
Reduced shell lists constructed in    0.3 sec

Total number of grid points                  ...    41057
Total number of batches                      ...      644
Average number of points per batch           ...       63
Average number of grid points per atom       ...     8211
Average number of shells per batch           ...    20.93 (25.22%)
Average number of basis functions per batch  ...    57.79 (20.28%)
Average number of large shells per batch     ...    15.54 (74.23%)
Average number of large basis fcns per batch ...    42.89 (74.23%)
Average number of aux-shells per batch       ...    20.93 ( 8.79%)
Average number of aux functions per batch    ...    57.79 ( 5.38%)
Maximum spatial batch extension              ...  20.26, 16.80, 17.24 au
Average spatial batch extension              ...   0.41,  0.35,  0.38 au

Time for grid setup =    0.387 sec

------------------------------
INITIAL GUESS: MODEL POTENTIAL
------------------------------
Loading Hartree-Fock densities                     ... done
Calculating cut-offs                               ... done
Setting up the integral package                    ... done
Initializing the effective Hamiltonian             ... done
Starting the Coulomb interaction                   ... done (   0.0 sec)
Reading the grid                                   ... done
Mapping shells                                     ... done
Starting the XC term evaluation                    ... done (   0.0 sec)
  promolecular density results
     # of electrons  =    116.999566998
     EX              =   -263.583080859
     EC              =     -0.818675048
     EX+EC           =   -264.401755907
Transforming the Hamiltonian                       ... done (   0.0 sec)
Diagonalizing the Hamiltonian                      ... done (   0.0 sec)
Back transforming the eigenvectors                 ... done (   0.0 sec)
Now organizing SCF variables                       ... done
                      ------------------
                      INITIAL GUESS DONE (   0.5 sec)
                      ------------------
--------------
SCF ITERATIONS
--------------
ITER       Energy         Delta-E        Max-DP      RMS-DP      [F,P]     Damp
  0  -6558.7765989761   0.000000000000 0.08425654  0.00068291  0.2746066 0.7000
  1  -6559.4138847158  -0.637285739771 0.09718100  0.00078419  0.1625419 0.7000
                               ***Turning on DIIS***
  2  -6559.3214748057   0.092409910107 0.29436100  0.00247060  0.0856081 0.0000
  3  -6558.9581593582   0.363315447525 0.02547293  0.00017200  0.1332800 0.7000
  4  -6558.8023417728   0.155817585440 0.02731621  0.00016464  0.1088042 0.7000
  5  -6558.8348065457  -0.032464772923 0.07577628  0.00041476  0.0659063 0.0000
  6  -6558.9860679604  -0.151261414718 0.00729223  0.00005201  0.0244366 0.0000
  7  -6558.9870381156  -0.000970155223 0.00548922  0.00003810  0.0051897 0.0000
  8  -6558.9872490794  -0.000210963773 0.00550936  0.00003437  0.0037062 0.0000
  9  -6558.9874164690  -0.000167389649 0.00418822  0.00002955  0.0037603 0.0000
 10  -6558.9875630396  -0.000146570584 0.00445359  0.00003253  0.0033112 0.0000
 11  -6558.9877100560  -0.000147016350 0.00646492  0.00004645  0.0032518 0.0000
 12  -6558.9879003497  -0.000190293769 0.00492458  0.00003252  0.0033480 0.0000
 13  -6558.9880293513  -0.000129001584 0.00886230  0.00006659  0.0027117 0.0000
 14  -6558.9882314285  -0.000202077191 0.00278279  0.00001762  0.0032501 0.0000
 15  -6558.9882968102  -0.000065381712 0.01147731  0.00009031  0.0020392 0.0000
 16  -6558.9884486412  -0.000151830975 0.00223005  0.00001406  0.0039152 0.0000
 17  -6558.9884928151  -0.000044173892 0.00418878  0.00002767  0.0011563 0.0000
 18  -6558.9885196590  -0.000026843933 0.00307114  0.00001954  0.0012518 0.0000
 19  -6558.9885328224  -0.000013163346 0.00159323  0.00000904  0.0010373 0.0000
 20  -6558.9885390098  -0.000006187466 0.00231830  0.00001405  0.0003990 0.0000
 21  -6558.9885422446  -0.000003234787 0.00050593  0.00000341  0.0000932 0.0000
                 **** Energy Check signals convergence ****

               *****************************************************
               *                     SUCCESS                       *
               *           SCF CONVERGED AFTER  22 CYCLES          *
               *****************************************************


----------------
TOTAL SCF ENERGY
----------------

Total Energy       :        -6558.98854285 Eh         -178479.15196 eV

Components:
Nuclear Repulsion  :         1105.02715865 Eh           30069.31768 eV
Electronic Energy  :        -7664.01570150 Eh         -208548.46964 eV
One Electron Energy:       -11318.53581376 Eh         -307993.01755 eV
Two Electron Energy:         3654.52011226 Eh           99444.54792 eV

Virial components:
Potential Energy   :       -13113.42829439 Eh         -356834.52501 eV
Kinetic Energy     :         6554.43975154 Eh          178355.37305 eV
Virial Ratio       :            2.00069400


DFT components:
N(Alpha)           :       57.999980427973 electrons
N(Beta)            :       56.999978640369 electrons
N(Total)           :      114.999959068342 electrons
E(X)               :      -76.571924045664 Eh       
E(C)               :       -2.981270720506 Eh       
E(XC)              :      -79.553194766170 Eh       
DFET-embed. en.    :        0.000000000000 Eh       

---------------
SCF CONVERGENCE
---------------

  Last Energy change         ...   -6.0732e-07  Tolerance :   1.0000e-06
  Last MAX-Density change    ...    2.4887e-04  Tolerance :   1.0000e-05
  Last RMS-Density change    ...    2.2433e-06  Tolerance :   1.0000e-06
  Last DIIS Error            ...    7.3654e-05  Tolerance :   1.0000e-06

             **** THE GBW FILE WAS UPDATED (Cu04C2_H_A.gbw) ****
             **** DENSITY FILE WAS UPDATED (Cu04C2_H_A.scfp) ****
             **** ENERGY FILE WAS UPDATED (Cu04C2_H_A.en.tmp) ****
----------------------
UHF SPIN CONTAMINATION
----------------------

Warning: in a DFT calculation there is little theoretical justification to 
         calculate <S**2> as in Hartree-Fock theory. We will do it anyways
         but you should keep in mind that the values have only limited relevance

Expectation value of <S**2>     :     0.759705
Ideal value S*(S+1) for S=0.5   :     0.750000
Deviation                       :     0.009705

             **** THE GBW FILE WAS UPDATED (Cu04C2_H_A.gbw) ****
             **** DENSITY FILE WAS UPDATED (Cu04C2_H_A.scfp) ****
----------------
ORBITAL ENERGIES
----------------
                 SPIN UP ORBITALS
  NO   OCC          E(Eh)            E(eV) 
   0   1.0000    -327.150844     -8902.2271 
   1   1.0000    -327.124105     -8901.4994 
   2   1.0000    -327.124094     -8901.4991 
   3   1.0000    -327.124090     -8901.4990 
   4   1.0000     -40.530290     -1102.8853 
   5   1.0000     -40.496124     -1101.9555 
   6   1.0000     -40.496115     -1101.9553 
   7   1.0000     -40.496101     -1101.9549 
   8   1.0000     -35.479202      -965.4382 
   9   1.0000     -35.472390      -965.2528 
  10   1.0000     -35.472390      -965.2528 
  11   1.0000     -35.441673      -964.4170 
  12   1.0000     -35.441664      -964.4167 
  13   1.0000     -35.441657      -964.4165 
  14   1.0000     -35.441600      -964.4150 
  15   1.0000     -35.441586      -964.4146 
  16   1.0000     -35.441581      -964.4144 
  17   1.0000     -35.440974      -964.3979 
  18   1.0000     -35.440965      -964.3977 
  19   1.0000     -35.440956      -964.3974 
  20   1.0000      -5.188502      -141.1863 
  21   1.0000      -5.155574      -140.2903 
  22   1.0000      -5.155174      -140.2794 
  23   1.0000      -5.155170      -140.2793 
  24   1.0000      -3.578421       -97.3738 
  25   1.0000      -3.558422       -96.8296 
  26   1.0000      -3.558421       -96.8295 
  27   1.0000      -3.536325       -96.2283 
  28   1.0000      -3.534230       -96.1713 
  29   1.0000      -3.534230       -96.1713 
  30   1.0000      -3.533041       -96.1389 
  31   1.0000      -3.532857       -96.1339 
  32   1.0000      -3.532852       -96.1338 
  33   1.0000      -3.532122       -96.1139 
  34   1.0000      -3.532120       -96.1139 
  35   1.0000      -3.531996       -96.1105 
  36   1.0000      -0.914088       -24.8736 
  37   1.0000      -0.857536       -23.3347 
  38   1.0000      -0.857524       -23.3344 
  39   1.0000      -0.851010       -23.1572 
  40   1.0000      -0.845142       -22.9975 
  41   1.0000      -0.845142       -22.9975 
  42   1.0000      -0.837929       -22.8012 
  43   1.0000      -0.832893       -22.6642 
  44   1.0000      -0.832892       -22.6641 
  45   1.0000      -0.826683       -22.4952 
  46   1.0000      -0.818275       -22.2664 
  47   1.0000      -0.818271       -22.2663 
  48   1.0000      -0.807146       -21.9636 
  49   1.0000      -0.806217       -21.9383 
  50   1.0000      -0.806217       -21.9383 
  51   1.0000      -0.802145       -21.8275 
  52   1.0000      -0.802133       -21.8272 
  53   1.0000      -0.792857       -21.5747 
  54   1.0000      -0.792852       -21.5746 
  55   1.0000      -0.781780       -21.2733 
  56   1.0000      -0.768604       -20.9148 
  57   1.0000      -0.700321       -19.0567 
  58   0.0000      -0.379595       -10.3293 
  59   0.0000      -0.379594       -10.3293 
  60   0.0000      -0.353027        -9.6064 
  61   0.0000      -0.272939        -7.4271 
  62   0.0000      -0.257330        -7.0023 
  63   0.0000      -0.257330        -7.0023 
  64   0.0000      -0.249363        -6.7855 
  65   0.0000      -0.249363        -6.7855 
  66   0.0000      -0.174048        -4.7361 
  67   0.0000      -0.163754        -4.4560 
  68   0.0000      -0.163753        -4.4559 
  69   0.0000      -0.163163        -4.4399 
  70   0.0000      -0.148982        -4.0540 
  71   0.0000      -0.148982        -4.0540 
  72   0.0000      -0.139538        -3.7970 
  73   0.0000      -0.124155        -3.3784 
  74   0.0000      -0.106008        -2.8846 
  75   0.0000      -0.097759        -2.6602 
  76   0.0000      -0.097759        -2.6602 
  77   0.0000      -0.095813        -2.6072 
  78   0.0000      -0.095812        -2.6072 
  79   0.0000      -0.086061        -2.3418 
  80   0.0000      -0.076965        -2.0943 
  81   0.0000      -0.076964        -2.0943 
  82   0.0000      -0.048830        -1.3287 
  83   0.0000      -0.030349        -0.8258 
  84   0.0000      -0.030346        -0.8258 
  85   0.0000      -0.022527        -0.6130 
  86   0.0000      -0.019531        -0.5315 
  87   0.0000      -0.019525        -0.5313 
  88   0.0000      -0.018946        -0.5156 
  89   0.0000      -0.007302        -0.1987 
  90   0.0000      -0.007301        -0.1987 
  91   0.0000       0.027932         0.7601 
  92   0.0000       0.027933         0.7601 
  93   0.0000       0.036336         0.9888 
  94   0.0000       0.036337         0.9888 
  95   0.0000       0.038723         1.0537 
  96   0.0000       0.042768         1.1638 
  97   0.0000       0.070600         1.9211 
  98   0.0000       0.093616         2.5474 
  99   0.0000       0.094475         2.5708 
 100   0.0000       0.094475         2.5708 
 101   0.0000       0.108433         2.9506 
 102   0.0000       0.108434         2.9506 
 103   0.0000       0.154709         4.2098 
 104   0.0000       0.154710         4.2099 
 105   0.0000       0.181656         4.9431 
 106   0.0000       0.195061         5.3079 
 107   0.0000       0.195061         5.3079 
 108   0.0000       0.196375         5.3436 
 109   0.0000       0.232667         6.3312 
 110   0.0000       0.232674         6.3314 
 111   0.0000       0.241177         6.5628 
 112   0.0000       0.273731         7.4486 
 113   0.0000       0.407586        11.0910 
 114   0.0000       0.468832        12.7576 
 115   0.0000       0.468833        12.7576 
 116   0.0000       0.474934        12.9236 
 117   0.0000       0.474936        12.9237 
 118   0.0000       0.540705        14.7133 
 119   0.0000       0.540705        14.7133 
 120   0.0000       0.542743        14.7688 
 121   0.0000       0.552535        15.0352 
 122   0.0000       0.571062        15.5394 
 123   0.0000       0.572335        15.5740 
 124   0.0000       0.572337        15.5741 
 125   0.0000       0.626915        17.0592 
 126   0.0000       0.626916        17.0593 
 127   0.0000       0.655273        17.8309 
 128   0.0000       0.672518        18.3002 
 129   0.0000       0.672519        18.3002 
 130   0.0000       0.708203        19.2712 
 131   0.0000       0.708203        19.2712 
 132   0.0000       0.736692        20.0464 
 133   0.0000       0.766932        20.8693 
 134   0.0000       0.769105        20.9284 
 135   0.0000       0.769107        20.9285 
 136   0.0000       0.793553        21.5937 
 137   0.0000       0.793556        21.5938 
 138   0.0000       0.797458        21.6999 
 139   0.0000       0.841921        22.9098 
 140   0.0000       0.841923        22.9099 
 141   0.0000       1.004626        27.3373 
 142   0.0000       1.020303        27.7639 
 143   0.0000       1.020311        27.7641 
 144   0.0000       1.029993        28.0275 
 145   0.0000       1.090575        29.6760 
 146   0.0000       1.090578        29.6761 
 147   0.0000       1.208141        32.8752 
 148   0.0000       2.464648        67.0665 
 149   0.0000       2.627792        71.5059 
 150   0.0000       2.793469        76.0141 
 151   0.0000       2.793475        76.0143 
 152   0.0000       2.921028        79.4852 
 153   0.0000       2.921032        79.4853 
 154   0.0000       2.948520        80.2333 
 155   0.0000       2.948531        80.2336 
 156   0.0000       2.948622        80.2361 
 157   0.0000       2.974292        80.9346 
 158   0.0000       2.974294        80.9346 
 159   0.0000       2.999364        81.6168 
 160   0.0000       3.071337        83.5753 
 161   0.0000       3.071337        83.5753 
 162   0.0000       3.112968        84.7082 
 163   0.0000       3.141418        85.4823 
 164   0.0000       3.163031        86.0705 
 165   0.0000       3.163036        86.0706 
 166   0.0000       3.223703        87.7214 
 167   0.0000       3.258561        88.6700 
 168   0.0000       3.267079        88.9017 
 169   0.0000       3.267081        88.9018 
 170   0.0000       3.268698        88.9458 
 171   0.0000       3.271991        89.0354 
 172   0.0000       3.277441        89.1837 
 173   0.0000       3.283645        89.3525 
 174   0.0000       3.283899        89.3594 
 175   0.0000       3.283919        89.3600 
 176   0.0000       3.286134        89.4202 
 177   0.0000       3.286154        89.4208 
 178   0.0000       3.288199        89.4765 
 179   0.0000       3.291824        89.5751 
 180   0.0000       3.291828        89.5752 
 181   0.0000       3.293252        89.6139 
 182   0.0000       3.293254        89.6140 
 183   0.0000       3.308189        90.0204 
 184   0.0000       3.308191        90.0205 
 185   0.0000       3.335726        90.7697 
 186   0.0000       3.348939        91.1293 
 187   0.0000       3.348940        91.1293 
 188   0.0000       3.362072        91.4866 
 189   0.0000       3.362073        91.4867 
 190   0.0000       3.386562        92.1530 
 191   0.0000       3.400768        92.5396 
 192   0.0000       3.542855        96.4060 
 193   0.0000       3.542857        96.4060 
 194   0.0000       3.566541        97.0505 
 195   0.0000       3.566541        97.0505 
 196   0.0000       3.592611        97.7599 
 197   0.0000       3.621143        98.5363 
 198   0.0000       3.621148        98.5364 
 199   0.0000       3.632995        98.8588 
 200   0.0000       3.685236       100.2804 
 201   0.0000       3.685255       100.2809 
 202   0.0000       3.699805       100.6768 
 203   0.0000       3.705513       100.8321 
 204   0.0000       3.705522       100.8324 
 205   0.0000       3.814462       103.7968 
 206   0.0000       3.828401       104.1761 
 207   0.0000       3.828407       104.1763 
 208   0.0000       3.879847       105.5760 
 209   0.0000       3.883118       105.6650 
 210   0.0000       3.883120       105.6651 
 211   0.0000       3.899437       106.1091 
 212   0.0000       3.899440       106.1092 
 213   0.0000       3.904880       106.2572 
 214   0.0000       3.922075       106.7251 
 215   0.0000       3.922082       106.7253 
 216   0.0000       4.038151       109.8837 
 217   0.0000       4.257169       115.8434 
 218   0.0000       4.257196       115.8442 
 219   0.0000       4.312593       117.3516 
 220   0.0000       5.003489       136.1519 
 221   0.0000      13.053435       355.2020 
 222   0.0000      13.053462       355.2027 
 223   0.0000      13.057285       355.3068 
 224   0.0000      13.057654       355.3168 
 225   0.0000      13.058238       355.3327 
 226   0.0000      13.058372       355.3364 
 227   0.0000      13.058627       355.3433 
 228   0.0000      13.058661       355.3442 
 229   0.0000      13.062379       355.4454 
 230   0.0000      13.078902       355.8950 
 231   0.0000      13.079018       355.8982 
 232   0.0000      13.079060       355.8993 
 233   0.0000      13.079105       355.9006 
 234   0.0000      13.079145       355.9016 
 235   0.0000      13.079155       355.9019 
 236   0.0000      13.079246       355.9044 
 237   0.0000      13.079320       355.9064 
 238   0.0000      13.079337       355.9069 
 239   0.0000      13.079450       355.9099 
 240   0.0000      13.079562       355.9130 
 241   0.0000      13.079609       355.9143 
 242   0.0000      13.079674       355.9160 
 243   0.0000      13.079683       355.9163 
 244   0.0000      13.079782       355.9190 
 245   0.0000      13.079782       355.9190 
 246   0.0000      13.079840       355.9205 
 247   0.0000      13.079926       355.9229 
 248   0.0000      13.080025       355.9256 
 249   0.0000      13.080054       355.9264 
 250   0.0000      13.080096       355.9275 
 251   0.0000      13.080107       355.9278 
 252   0.0000      13.080136       355.9286 
 253   0.0000      13.080267       355.9322 
 254   0.0000      13.081301       355.9603 
 255   0.0000      13.081374       355.9623 
 256   0.0000      13.081397       355.9629 
 257   0.0000      13.281237       361.4008 
 258   0.0000      13.282670       361.4398 
 259   0.0000      13.285746       361.5235 
 260   0.0000      13.285755       361.5238 
 261   0.0000      13.303112       361.9961 
 262   0.0000      13.303298       362.0012 
 263   0.0000      13.303300       362.0012 
 264   0.0000      13.304725       362.0400 
 265   0.0000      13.304772       362.0412 
 266   0.0000      13.304776       362.0414 
 267   0.0000      13.306566       362.0901 
 268   0.0000      13.306578       362.0904 
 269   0.0000      13.308151       362.1332 
 270   0.0000      13.308341       362.1384 
 271   0.0000      13.311070       362.2126 
 272   0.0000      13.312248       362.2447 
 273   0.0000      13.312261       362.2450 
 274   0.0000      13.315008       362.3198 
 275   0.0000      13.315014       362.3199 
 276   0.0000      13.322971       362.5365 
 277   0.0000      13.322978       362.5367 
 278   0.0000      13.351595       363.3154 
 279   0.0000      13.351627       363.3162 
 280   0.0000      13.356272       363.4426 
 281   0.0000      13.367920       363.7596 
 282   0.0000      13.376722       363.9991 
 283   0.0000      13.376734       363.9994 
 284   0.0000      13.641843       371.2134 

                 SPIN DOWN ORBITALS
  NO   OCC          E(Eh)            E(eV) 
   0   1.0000    -327.149799     -8902.1986 
   1   1.0000    -327.124048     -8901.4979 
   2   1.0000    -327.124037     -8901.4976 
   3   1.0000    -327.124033     -8901.4975 
   4   1.0000     -40.525474     -1102.7542 
   5   1.0000     -40.496102     -1101.9550 
   6   1.0000     -40.496094     -1101.9547 
   7   1.0000     -40.496080     -1101.9543 
   8   1.0000     -35.471729      -965.2348 
   9   1.0000     -35.469509      -965.1744 
  10   1.0000     -35.469509      -965.1744 
  11   1.0000     -35.441660      -964.4166 
  12   1.0000     -35.441646      -964.4162 
  13   1.0000     -35.441641      -964.4161 
  14   1.0000     -35.441619      -964.4155 
  15   1.0000     -35.441609      -964.4152 
  16   1.0000     -35.441603      -964.4151 
  17   1.0000     -35.440981      -964.3981 
  18   1.0000     -35.440972      -964.3979 
  19   1.0000     -35.440962      -964.3976 
  20   1.0000      -5.177018      -140.8738 
  21   1.0000      -5.155465      -140.2873 
  22   1.0000      -5.155066      -140.2765 
  23   1.0000      -5.155062      -140.2764 
  24   1.0000      -3.555425       -96.7480 
  25   1.0000      -3.555424       -96.7480 
  26   1.0000      -3.548621       -96.5629 
  27   1.0000      -3.535856       -96.2155 
  28   1.0000      -3.534186       -96.1701 
  29   1.0000      -3.534185       -96.1701 
  30   1.0000      -3.533152       -96.1420 
  31   1.0000      -3.533061       -96.1395 
  32   1.0000      -3.533056       -96.1393 
  33   1.0000      -3.532210       -96.1163 
  34   1.0000      -3.531920       -96.1084 
  35   1.0000      -3.531916       -96.1083 
  36   1.0000      -0.862716       -23.4757 
  37   1.0000      -0.854293       -23.2465 
  38   1.0000      -0.854282       -23.2462 
  39   1.0000      -0.843732       -22.9591 
  40   1.0000      -0.842518       -22.9261 
  41   1.0000      -0.842517       -22.9260 
  42   1.0000      -0.832296       -22.6479 
  43   1.0000      -0.832294       -22.6479 
  44   1.0000      -0.826255       -22.4835 
  45   1.0000      -0.817367       -22.2417 
  46   1.0000      -0.817363       -22.2416 
  47   1.0000      -0.807284       -21.9673 
  48   1.0000      -0.806155       -21.9366 
  49   1.0000      -0.806154       -21.9366 
  50   1.0000      -0.802105       -21.8264 
  51   1.0000      -0.802093       -21.8261 
  52   1.0000      -0.801116       -21.7995 
  53   1.0000      -0.791427       -21.5358 
  54   1.0000      -0.791421       -21.5357 
  55   1.0000      -0.782238       -21.2858 
  56   1.0000      -0.697742       -18.9865 
  57   0.0000      -0.428699       -11.6655 
  58   0.0000      -0.378307       -10.2943 
  59   0.0000      -0.378306       -10.2942 
  60   0.0000      -0.330195        -8.9851 
  61   0.0000      -0.269094        -7.3224 
  62   0.0000      -0.253146        -6.8885 
  63   0.0000      -0.253146        -6.8885 
  64   0.0000      -0.247346        -6.7306 
  65   0.0000      -0.247345        -6.7306 
  66   0.0000      -0.168649        -4.5892 
  67   0.0000      -0.163382        -4.4458 
  68   0.0000      -0.163381        -4.4458 
  69   0.0000      -0.146035        -3.9738 
  70   0.0000      -0.144311        -3.9269 
  71   0.0000      -0.144311        -3.9269 
  72   0.0000      -0.139570        -3.7979 
  73   0.0000      -0.121285        -3.3003 
  74   0.0000      -0.103614        -2.8195 
  75   0.0000      -0.096747        -2.6326 
  76   0.0000      -0.096746        -2.6326 
  77   0.0000      -0.095632        -2.6023 
  78   0.0000      -0.095631        -2.6023 
  79   0.0000      -0.083402        -2.2695 
  80   0.0000      -0.076218        -2.0740 
  81   0.0000      -0.076216        -2.0739 
  82   0.0000      -0.039992        -1.0882 
  83   0.0000      -0.024059        -0.6547 
  84   0.0000      -0.024055        -0.6546 
  85   0.0000      -0.019346        -0.5264 
  86   0.0000      -0.019050        -0.5184 
  87   0.0000      -0.019048        -0.5183 
  88   0.0000      -0.018936        -0.5153 
  89   0.0000      -0.002601        -0.0708 
  90   0.0000      -0.002600        -0.0708 
  91   0.0000       0.028392         0.7726 
  92   0.0000       0.028392         0.7726 
  93   0.0000       0.037314         1.0154 
  94   0.0000       0.037314         1.0154 
  95   0.0000       0.041061         1.1173 
  96   0.0000       0.042535         1.1574 
  97   0.0000       0.079610         2.1663 
  98   0.0000       0.097080         2.6417 
  99   0.0000       0.097080         2.6417 
 100   0.0000       0.107025         2.9123 
 101   0.0000       0.108769         2.9598 
 102   0.0000       0.108771         2.9598 
 103   0.0000       0.155709         4.2371 
 104   0.0000       0.155711         4.2371 
 105   0.0000       0.186911         5.0861 
 106   0.0000       0.196416         5.3448 
 107   0.0000       0.196418         5.3448 
 108   0.0000       0.196509         5.3473 
 109   0.0000       0.233594         6.3564 
 110   0.0000       0.233597         6.3565 
 111   0.0000       0.255712         6.9583 
 112   0.0000       0.303876         8.2689 
 113   0.0000       0.412156        11.2153 
 114   0.0000       0.475385        12.9359 
 115   0.0000       0.475386        12.9359 
 116   0.0000       0.478008        13.0072 
 117   0.0000       0.478008        13.0073 
 118   0.0000       0.541296        14.7294 
 119   0.0000       0.541297        14.7294 
 120   0.0000       0.544536        14.8176 
 121   0.0000       0.556772        15.1505 
 122   0.0000       0.574740        15.6395 
 123   0.0000       0.582978        15.8636 
 124   0.0000       0.582980        15.8637 
 125   0.0000       0.635739        17.2993 
 126   0.0000       0.635741        17.2994 
 127   0.0000       0.655386        17.8340 
 128   0.0000       0.673908        18.3380 
 129   0.0000       0.673909        18.3380 
 130   0.0000       0.724026        19.7017 
 131   0.0000       0.724026        19.7018 
 132   0.0000       0.740334        20.1455 
 133   0.0000       0.766955        20.8699 
 134   0.0000       0.772128        21.0107 
 135   0.0000       0.772129        21.0107 
 136   0.0000       0.797593        21.7036 
 137   0.0000       0.797595        21.7037 
 138   0.0000       0.820836        22.3361 
 139   0.0000       0.849673        23.1208 
 140   0.0000       0.849676        23.1209 
 141   0.0000       1.021509        27.7967 
 142   0.0000       1.021518        27.7969 
 143   0.0000       1.022740        27.8302 
 144   0.0000       1.030290        28.0356 
 145   0.0000       1.099761        29.9260 
 146   0.0000       1.099764        29.9261 
 147   0.0000       1.235294        33.6140 
 148   0.0000       2.552721        69.4631 
 149   0.0000       2.651383        72.1478 
 150   0.0000       2.815057        76.6016 
 151   0.0000       2.815064        76.6018 
 152   0.0000       2.931312        79.7651 
 153   0.0000       2.931320        79.7653 
 154   0.0000       2.950106        80.2765 
 155   0.0000       2.957011        80.4644 
 156   0.0000       2.957018        80.4645 
 157   0.0000       3.001017        81.6618 
 158   0.0000       3.001032        81.6622 
 159   0.0000       3.001536        81.6760 
 160   0.0000       3.074976        83.6744 
 161   0.0000       3.074978        83.6744 
 162   0.0000       3.112890        84.7060 
 163   0.0000       3.144843        85.5755 
 164   0.0000       3.167032        86.1793 
 165   0.0000       3.167037        86.1795 
 166   0.0000       3.224530        87.7439 
 167   0.0000       3.259489        88.6952 
 168   0.0000       3.267539        88.9142 
 169   0.0000       3.267540        88.9143 
 170   0.0000       3.274905        89.1147 
 171   0.0000       3.275536        89.1319 
 172   0.0000       3.282257        89.3148 
 173   0.0000       3.283943        89.3606 
 174   0.0000       3.284238        89.3687 
 175   0.0000       3.284258        89.3692 
 176   0.0000       3.286466        89.4293 
 177   0.0000       3.286485        89.4298 
 178   0.0000       3.288436        89.4829 
 179   0.0000       3.291975        89.5792 
 180   0.0000       3.291979        89.5793 
 181   0.0000       3.293697        89.6260 
 182   0.0000       3.293698        89.6261 
 183   0.0000       3.312230        90.1304 
 184   0.0000       3.312233        90.1304 
 185   0.0000       3.336400        90.7881 
 186   0.0000       3.352564        91.2279 
 187   0.0000       3.352564        91.2279 
 188   0.0000       3.363413        91.5231 
 189   0.0000       3.363415        91.5232 
 190   0.0000       3.386742        92.1579 
 191   0.0000       3.411979        92.8447 
 192   0.0000       3.543710        96.4293 
 193   0.0000       3.543712        96.4293 
 194   0.0000       3.600105        97.9638 
 195   0.0000       3.621437        98.5443 
 196   0.0000       3.621438        98.5443 
 197   0.0000       3.624810        98.6361 
 198   0.0000       3.624814        98.6362 
 199   0.0000       3.633898        98.8834 
 200   0.0000       3.687675       100.3467 
 201   0.0000       3.687696       100.3473 
 202   0.0000       3.699825       100.6774 
 203   0.0000       3.706235       100.8518 
 204   0.0000       3.706244       100.8520 
 205   0.0000       3.825296       104.0916 
 206   0.0000       3.836605       104.3993 
 207   0.0000       3.836607       104.3994 
 208   0.0000       3.885476       105.7292 
 209   0.0000       3.885479       105.7293 
 210   0.0000       3.887253       105.7775 
 211   0.0000       3.904941       106.2588 
 212   0.0000       3.921801       106.7176 
 213   0.0000       3.921825       106.7183 
 214   0.0000       3.932005       106.9953 
 215   0.0000       3.932019       106.9957 
 216   0.0000       4.086016       111.1862 
 217   0.0000       4.258157       115.8703 
 218   0.0000       4.258186       115.8711 
 219   0.0000       4.321842       117.6033 
 220   0.0000       5.034527       136.9964 
 221   0.0000      13.056978       355.2984 
 222   0.0000      13.057000       355.2990 
 223   0.0000      13.057434       355.3108 
 224   0.0000      13.057829       355.3216 
 225   0.0000      13.060752       355.4011 
 226   0.0000      13.060769       355.4016 
 227   0.0000      13.066177       355.5488 
 228   0.0000      13.066334       355.5530 
 229   0.0000      13.073548       355.7493 
 230   0.0000      13.078936       355.8959 
 231   0.0000      13.079004       355.8978 
 232   0.0000      13.079023       355.8983 
 233   0.0000      13.079071       355.8996 
 234   0.0000      13.079123       355.9010 
 235   0.0000      13.079145       355.9016 
 236   0.0000      13.079160       355.9020 
 237   0.0000      13.079286       355.9055 
 238   0.0000      13.079317       355.9063 
 239   0.0000      13.079371       355.9078 
 240   0.0000      13.079557       355.9128 
 241   0.0000      13.079606       355.9142 
 242   0.0000      13.079641       355.9151 
 243   0.0000      13.079690       355.9164 
 244   0.0000      13.079774       355.9187 
 245   0.0000      13.079789       355.9191 
 246   0.0000      13.079840       355.9205 
 247   0.0000      13.079924       355.9228 
 248   0.0000      13.079990       355.9246 
 249   0.0000      13.080051       355.9263 
 250   0.0000      13.080059       355.9265 
 251   0.0000      13.080090       355.9273 
 252   0.0000      13.080140       355.9287 
 253   0.0000      13.080263       355.9320 
 254   0.0000      13.081357       355.9618 
 255   0.0000      13.081385       355.9626 
 256   0.0000      13.081434       355.9639 
 257   0.0000      13.280465       361.3798 
 258   0.0000      13.281909       361.4191 
 259   0.0000      13.287159       361.5620 
 260   0.0000      13.287167       361.5622 
 261   0.0000      13.302914       361.9907 
 262   0.0000      13.303289       362.0009 
 263   0.0000      13.303290       362.0009 
 264   0.0000      13.304657       362.0381 
 265   0.0000      13.304660       362.0382 
 266   0.0000      13.304782       362.0415 
 267   0.0000      13.306451       362.0870 
 268   0.0000      13.306463       362.0873 
 269   0.0000      13.308092       362.1316 
 270   0.0000      13.308312       362.1376 
 271   0.0000      13.311387       362.2212 
 272   0.0000      13.312462       362.2505 
 273   0.0000      13.312475       362.2509 
 274   0.0000      13.315281       362.3272 
 275   0.0000      13.315289       362.3274 
 276   0.0000      13.323949       362.5631 
 277   0.0000      13.323956       362.5633 
 278   0.0000      13.356451       363.4475 
 279   0.0000      13.360794       363.5657 
 280   0.0000      13.360819       363.5664 
 281   0.0000      13.368169       363.7664 
 282   0.0000      13.381534       364.1300 
 283   0.0000      13.381553       364.1306 
 284   0.0000      13.661754       371.7552 

                    ********************************
                    * MULLIKEN POPULATION ANALYSIS *
                    ********************************

--------------------------------------------
MULLIKEN ATOMIC CHARGES AND SPIN POPULATIONS
--------------------------------------------
   0 Cu:    0.528297    0.010189
   1 Cu:    0.528319    0.010196
   2 Cu:    0.528346    0.010191
   3 Cu:    0.020649    0.328575
   4 H :    0.394390    0.640849
Sum of atomic charges         :    2.0000000
Sum of atomic spin populations:    1.0000000

-----------------------------------------------------
MULLIKEN REDUCED ORBITAL CHARGES AND SPIN POPULATIONS
-----------------------------------------------------
CHARGE
  0 Cus       :     6.398116  s :     6.398116
      pz      :     4.019386  p :    12.134967
      px      :     4.009142
      py      :     4.106438
      dz2     :     1.984902  d :     9.938481
      dxz     :     1.996236
      dyz     :     1.987261
      dx2y2   :     1.993840
      dxy     :     1.976242
      f0      :     0.000020  f :     0.000139
      f+1     :     0.000009
      f-1     :     0.000018
      f+2     :     0.000015
      f-2     :     0.000022
      f+3     :     0.000023
      f-3     :     0.000032
      g0      :     0.000000  g :     0.000000
      g+1     :     0.000000
      g-1     :     0.000000
      g+2     :     0.000000
      g-2     :     0.000000
      g+3     :     0.000000
      g-3     :     0.000000
      g+4     :     0.000000
      g-4     :     0.000000
  1 Cus       :     6.398102  s :     6.398102
      pz      :     4.019386  p :    12.134959
      px      :     4.082109
      py      :     4.033464
      dz2     :     1.984901  d :     9.938481
      dxz     :     1.989504
      dyz     :     1.993992
      dx2y2   :     1.980644
      dxy     :     1.989439
      f0      :     0.000020  f :     0.000139
      f+1     :     0.000016
      f-1     :     0.000011
      f+2     :     0.000020
      f-2     :     0.000017
      f+3     :     0.000023
      f-3     :     0.000032
      g0      :     0.000000  g :     0.000000
      g+1     :     0.000000
      g-1     :     0.000000
      g+2     :     0.000000
      g-2     :     0.000000
      g+3     :     0.000000
      g-3     :     0.000000
      g+4     :     0.000000
      g-4     :     0.000000
  2 Cus       :     6.398082  s :     6.398082
      pz      :     4.019385  p :    12.134952
      px      :     4.082104
      py      :     4.033463
      dz2     :     1.984901  d :     9.938480
      dxz     :     1.989504
      dyz     :     1.993992
      dx2y2   :     1.980644
      dxy     :     1.989439
      f0      :     0.000020  f :     0.000139
      f+1     :     0.000016
      f-1     :     0.000011
      f+2     :     0.000020
      f-2     :     0.000017
      f+3     :     0.000023
      f-3     :     0.000032
      g0      :     0.000000  g :     0.000000
      g+1     :     0.000000
      g-1     :     0.000000
      g+2     :     0.000000
      g-2     :     0.000000
      g+3     :     0.000000
      g-3     :     0.000000
      g+4     :     0.000000
      g-4     :     0.000000
  3 Cus       :     7.030744  s :     7.030744
      pz      :     4.044351  p :    12.060161
      px      :     4.007905
      py      :     4.007905
      dz2     :     1.945166  d :     9.888032
      dxz     :     1.974935
      dyz     :     1.974937
      dx2y2   :     1.996497
      dxy     :     1.996497
      f0      :     0.000317  f :     0.000411
      f+1     :     0.000024
      f-1     :     0.000024
      f+2     :     0.000019
      f-2     :     0.000019
      f+3     :     0.000004
      f-3     :     0.000004
      g0      :     0.000002  g :     0.000003
      g+1     :     0.000000
      g-1     :     0.000000
      g+2     :     0.000000
      g-2     :     0.000000
      g+3     :     0.000000
      g-3     :     0.000000
      g+4     :     0.000000
      g-4     :     0.000000
  4 H s       :     0.646324  s :     0.646324
      pz      :    -0.050539  p :    -0.043054
      px      :     0.003743
      py      :     0.003743
      dz2     :     0.001212  d :     0.002340
      dxz     :     0.000547
      dyz     :     0.000547
      dx2y2   :     0.000018
      dxy     :     0.000018

SPIN
  0 Cus       :     0.007546  s :     0.007546
      pz      :    -0.005347  p :     0.002589
      px      :     0.000042
      py      :     0.007894
      dz2     :     0.001420  d :     0.000052
      dxz     :    -0.000073
      dyz     :    -0.001411
      dx2y2   :     0.000632
      dxy     :    -0.000516
      f0      :     0.000001  f :     0.000001
      f+1     :    -0.000000
      f-1     :    -0.000000
      f+2     :     0.000001
      f-2     :    -0.000000
      f+3     :    -0.000000
      f-3     :     0.000000
      g0      :     0.000000  g :     0.000000
      g+1     :    -0.000000
      g-1     :    -0.000000
      g+2     :     0.000000
      g-2     :     0.000000
      g+3     :    -0.000000
      g-3     :     0.000000
      g+4     :     0.000000
      g-4     :     0.000000
  1 Cus       :     0.007552  s :     0.007552
      pz      :    -0.005347  p :     0.002590
      px      :     0.005932
      py      :     0.002005
      dz2     :     0.001420  d :     0.000053
      dxz     :    -0.001076
      dyz     :    -0.000407
      dx2y2   :    -0.000229
      dxy     :     0.000345
      f0      :     0.000001  f :     0.000001
      f+1     :    -0.000000
      f-1     :    -0.000000
      f+2     :     0.000000
      f-2     :     0.000000
      f+3     :    -0.000000
      f-3     :     0.000000
      g0      :     0.000000  g :     0.000000
      g+1     :    -0.000000
      g-1     :    -0.000000
      g+2     :     0.000000
      g-2     :     0.000000
      g+3     :    -0.000000
      g-3     :     0.000000
      g+4     :     0.000000
      g-4     :     0.000000
  2 Cus       :     0.007549  s :     0.007549
      pz      :    -0.005347  p :     0.002589
      px      :     0.005931
      py      :     0.002005
      dz2     :     0.001420  d :     0.000052
      dxz     :    -0.001076
      dyz     :    -0.000407
      dx2y2   :    -0.000229
      dxy     :     0.000345
      f0      :     0.000001  f :     0.000001
      f+1     :    -0.000000
      f-1     :    -0.000000
      f+2     :     0.000000
      f-2     :     0.000000
      f+3     :    -0.000000
      f-3     :     0.000000
      g0      :     0.000000  g :     0.000000
      g+1     :    -0.000000
      g-1     :    -0.000000
      g+2     :     0.000000
      g-2     :     0.000000
      g+3     :    -0.000000
      g-3     :     0.000000
      g+4     :     0.000000
      g-4     :     0.000000
  3 Cus       :     0.206725  s :     0.206725
      pz      :     0.039191  p :     0.038172
      px      :    -0.000510
      py      :    -0.000510
      dz2     :     0.083074  d :     0.083541
      dxz     :    -0.000108
      dyz     :    -0.000108
      dx2y2   :     0.000342
      dxy     :     0.000342
      f0      :     0.000137  f :     0.000136
      f+1     :    -0.000000
      f-1     :    -0.000000
      f+2     :    -0.000001
      f-2     :    -0.000001
      f+3     :     0.000000
      f-3     :    -0.000000
      g0      :     0.000001  g :     0.000001
      g+1     :     0.000000
      g-1     :     0.000000
      g+2     :    -0.000000
      g-2     :    -0.000000
      g+3     :    -0.000000
      g-3     :    -0.000000
      g+4     :     0.000000
      g-4     :     0.000000
  4 H s       :     0.641763  s :     0.641763
      pz      :    -0.003434  p :    -0.000804
      px      :     0.001315
      py      :     0.001315
      dz2     :    -0.000289  d :    -0.000109
      dxz     :     0.000081
      dyz     :     0.000081
      dx2y2   :     0.000009
      dxy     :     0.000009


                     *******************************
                     * LOEWDIN POPULATION ANALYSIS *
                     *******************************

-------------------------------------------
LOEWDIN ATOMIC CHARGES AND SPIN POPULATIONS
-------------------------------------------
   0 Cu:    0.492581    0.026164
   1 Cu:    0.492580    0.026164
   2 Cu:    0.492581    0.026164
   3 Cu:    0.370808    0.383685
   4 H :    0.151450    0.537822

----------------------------------------------------
LOEWDIN REDUCED ORBITAL CHARGES AND SPIN POPULATIONS
----------------------------------------------------
CHARGE
  0 Cus       :     6.267425  s :     6.267425
      pz      :     4.041560  p :    12.233720
      px      :     4.015598
      py      :     4.176562
      dz2     :     2.005739  d :    10.005870
      dxz     :     1.996690
      dyz     :     2.000909
      dx2y2   :     2.006325
      dxy     :     1.996207
      f0      :     0.000041  f :     0.000402
      f+1     :     0.000027
      f-1     :     0.000088
      f+2     :     0.000035
      f-2     :     0.000044
      f+3     :     0.000104
      f-3     :     0.000063
      g0      :     0.000000  g :     0.000001
      g+1     :     0.000000
      g-1     :     0.000000
      g+2     :     0.000000
      g-2     :     0.000000
      g+3     :     0.000000
      g-3     :     0.000000
      g+4     :     0.000000
      g-4     :     0.000000
  1 Cus       :     6.267425  s :     6.267425
      pz      :     4.041560  p :    12.233720
      px      :     4.136320
      py      :     4.055839
      dz2     :     2.005738  d :    10.005871
      dxz     :     1.999854
      dyz     :     1.997745
      dx2y2   :     1.998740
      dxy     :     2.003794
      f0      :     0.000041  f :     0.000402
      f+1     :     0.000072
      f-1     :     0.000042
      f+2     :     0.000042
      f-2     :     0.000037
      f+3     :     0.000104
      f-3     :     0.000063
      g0      :     0.000000  g :     0.000001
      g+1     :     0.000000
      g-1     :     0.000000
      g+2     :     0.000000
      g-2     :     0.000000
      g+3     :     0.000000
      g-3     :     0.000000
      g+4     :     0.000000
      g-4     :     0.000000
  2 Cus       :     6.267425  s :     6.267425
      pz      :     4.041560  p :    12.233720
      px      :     4.136320
      py      :     4.055839
      dz2     :     2.005738  d :    10.005871
      dxz     :     1.999854
      dyz     :     1.997745
      dx2y2   :     1.998740
      dxy     :     2.003794
      f0      :     0.000041  f :     0.000402
      f+1     :     0.000072
      f-1     :     0.000042
      f+2     :     0.000042
      f-2     :     0.000037
      f+3     :     0.000104
      f-3     :     0.000063
      g0      :     0.000000  g :     0.000001
      g+1     :     0.000000
      g-1     :     0.000000
      g+2     :     0.000000
      g-2     :     0.000000
      g+3     :     0.000000
      g-3     :     0.000000
      g+4     :     0.000000
      g-4     :     0.000000
  3 Cus       :     6.300177  s :     6.300177
      pz      :     4.411287  p :    12.436889
      px      :     4.012801
      py      :     4.012801
      dz2     :     1.920661  d :     9.891091
      dxz     :     1.986150
      dyz     :     1.986153
      dx2y2   :     1.999064
      dxy     :     1.999064
      f0      :     0.000765  f :     0.001030
      f+1     :     0.000077
      f-1     :     0.000077
      f+2     :     0.000048
      f-2     :     0.000048
      f+3     :     0.000008
      f-3     :     0.000009
      g0      :     0.000003  g :     0.000004
      g+1     :     0.000000
      g-1     :     0.000000
      g+2     :     0.000000
      g-2     :     0.000000
      g+3     :     0.000000
      g-3     :     0.000000
      g+4     :     0.000000
      g-4     :     0.000000
  4 H s       :     0.726476  s :     0.726476
      pz      :     0.079381  p :     0.106300
      px      :     0.013460
      py      :     0.013459
      dz2     :     0.007929  d :     0.015773
      dxz     :     0.003740
      dyz     :     0.003740
      dx2y2   :     0.000182
      dxy     :     0.000182

SPIN
  0 Cus       :     0.003366  s :     0.003366
      pz      :     0.007334  p :     0.013045
      px      :     0.000067
      py      :     0.005644
      dz2     :     0.008495  d :     0.009754
      dxz     :    -0.000077
      dyz     :     0.000907
      dx2y2   :     0.000827
      dxy     :    -0.000398
      f0      :     0.000003  f :    -0.000001
      f+1     :    -0.000000
      f-1     :    -0.000004
      f+2     :    -0.000001
      f-2     :     0.000000
      f+3     :    -0.000000
      f-3     :     0.000000
      g0      :     0.000000  g :    -0.000000
      g+1     :     0.000000
      g-1     :    -0.000000
      g+2     :    -0.000000
      g-2     :    -0.000000
      g+3     :     0.000000
      g-3     :     0.000000
      g+4     :     0.000000
      g-4     :    -0.000000
  1 Cus       :     0.003366  s :     0.003366
      pz      :     0.007334  p :     0.013045
      px      :     0.004250
      py      :     0.001461
      dz2     :     0.008495  d :     0.009754
      dxz     :     0.000661
      dyz     :     0.000169
      dx2y2   :    -0.000092
      dxy     :     0.000521
      f0      :     0.000003  f :    -0.000001
      f+1     :    -0.000003
      f-1     :    -0.000001
      f+2     :    -0.000000
      f-2     :    -0.000000
      f+3     :    -0.000000
      f-3     :     0.000000
      g0      :     0.000000  g :    -0.000000
      g+1     :    -0.000000
      g-1     :     0.000000
      g+2     :    -0.000000
      g-2     :    -0.000000
      g+3     :     0.000000
      g-3     :     0.000000
      g+4     :    -0.000000
      g-4     :     0.000000
  2 Cus       :     0.003366  s :     0.003366
      pz      :     0.007334  p :     0.013045
      px      :     0.004250
      py      :     0.001461
      dz2     :     0.008495  d :     0.009754
      dxz     :     0.000661
      dyz     :     0.000169
      dx2y2   :    -0.000092
      dxy     :     0.000521
      f0      :     0.000003  f :    -0.000001
      f+1     :    -0.000003
      f-1     :    -0.000001
      f+2     :    -0.000000
      f-2     :    -0.000000
      f+3     :    -0.000000
      f-3     :     0.000000
      g0      :     0.000000  g :    -0.000000
      g+1     :    -0.000000
      g-1     :     0.000000
      g+2     :    -0.000000
      g-2     :    -0.000000
      g+3     :     0.000000
      g-3     :     0.000000
      g+4     :    -0.000000
      g-4     :     0.000000
  3 Cus       :     0.081453  s :     0.081453
      pz      :     0.180032  p :     0.179573
      px      :    -0.000229
      py      :    -0.000229
      dz2     :     0.122024  d :     0.122012
      dxz     :    -0.000036
      dyz     :    -0.000036
      dx2y2   :     0.000030
      dxy     :     0.000030
      f0      :     0.000646  f :     0.000644
      f+1     :    -0.000001
      f-1     :    -0.000001
      f+2     :    -0.000000
      f-2     :    -0.000000
      f+3     :     0.000000
      f-3     :     0.000000
      g0      :     0.000003  g :     0.000003
      g+1     :     0.000000
      g-1     :     0.000000
      g+2     :    -0.000000
      g-2     :    -0.000000
      g+3     :    -0.000000
      g-3     :     0.000000
      g+4     :     0.000000
      g-4     :    -0.000000
  4 H s       :     0.536104  s :     0.536104
      pz      :    -0.001155  p :     0.001910
      px      :     0.001533
      py      :     0.001533
      dz2     :    -0.000435  d :    -0.000191
      dxz     :     0.000112
      dyz     :     0.000112
      dx2y2   :     0.000010
      dxy     :     0.000010


                      *****************************
                      * MAYER POPULATION ANALYSIS *
                      *****************************

  NA   - Mulliken gross atomic population
  ZA   - Total nuclear charge
  QA   - Mulliken gross atomic charge
  VA   - Mayer's total valence
  BVA  - Mayer's bonded valence
  FA   - Mayer's free valence

  ATOM       NA         ZA         QA         VA         BVA        FA
  0 Cu    28.4717    29.0000     0.5283     0.8788     0.8779     0.0009
  1 Cu    28.4717    29.0000     0.5283     0.8788     0.8779     0.0009
  2 Cu    28.4717    29.0000     0.5283     0.8787     0.8778     0.0009
  3 Cu    28.9794    29.0000     0.0206     1.4140     1.1290     0.2850
  4 H      0.6056     1.0000     0.3944     0.6445     0.2153     0.4293

  Mayer bond orders larger than 0.100000
B(  0-Cu,  1-Cu) :   0.2920 B(  0-Cu,  2-Cu) :   0.2920 B(  0-Cu,  3-Cu) :   0.2992 
B(  1-Cu,  2-Cu) :   0.2920 B(  1-Cu,  3-Cu) :   0.2992 B(  2-Cu,  3-Cu) :   0.2992 
B(  3-Cu,  4-H ) :   0.2314 

-------
TIMINGS
-------

Total SCF time: 0 days 0 hours 0 min 27 sec 

Total time                  ....      27.850 sec
Sum of individual times     ....      27.551 sec  ( 98.9%)

Fock matrix formation       ....      26.139 sec  ( 93.9%)
  XC integration            ....       1.938 sec  (  7.4% of F)
    Basis function eval.    ....       0.152 sec  (  7.8% of XC)
    Density eval.           ....       0.229 sec  ( 11.8% of XC)
    XC-Functional eval.     ....       0.051 sec  (  2.7% of XC)
    XC-Potential eval.      ....       0.406 sec  ( 21.0% of XC)
Diagonalization             ....       0.588 sec  (  2.1%)
Density matrix formation    ....       0.052 sec  (  0.2%)
Population analysis         ....       0.024 sec  (  0.1%)
Initial guess               ....       0.125 sec  (  0.4%)
Orbital Transformation      ....       0.000 sec  (  0.0%)
Orbital Orthonormalization  ....       0.000 sec  (  0.0%)
DIIS solution               ....       0.236 sec  (  0.8%)
Grid generation             ....       0.387 sec  (  1.4%)


           ************************************************************
           *        Program running with 24 parallel MPI-processes    *
           *              working on a common directory               *
           ************************************************************

------------------------------------------------------------------------------
                                ORCA  MP2 
------------------------------------------------------------------------------

Freezing NCore=40 chemical core electrons

-------------
RI-MP2 ENERGY
-------------
Dimension of the basis                    ...  285
Memory devoted to MP2                     ... 5000 MB   
Data format for buffers                   ... DOUBLE
Compression type for matrix containers    ... UNCOMPRESSED
Scaling for aa/bb pairs                   ...   4.000e-01
Scaling for ab pairs                      ...   4.700e-01
Overall scaling of the MP2 energy         ...   1.000e+00
Calculating two index integrals           ... done (    0.022 sec)
Cholesky decomposition of V**-1           ... done (    0.044 sec)

-----------------
RI-TRANSFORMATION (AUX index driven)
-----------------

Dimension of the orbital-basis         ... 285
Dimension of the aux-basis             ... 939
Transformation of internal/external MOs...   20-  57 to   58- 284
Number Format for Storage              ... Double (8 Byte)
Integral mode                          ... Direct

First Phase: integral generation and transformation of MO indices
  Aux angular momentum 0               ... done (    0.004 sec)
  Aux angular momentum 1               ... done (    0.007 sec)
  Aux angular momentum 2               ... done (    0.012 sec)
  Aux angular momentum 3               ... done (    0.020 sec)
  Aux angular momentum 4               ... done (    0.014 sec)
  Aux angular momentum 5               ... done (    0.020 sec)
  Aux angular momentum 6               ... done (    0.027 sec)
Closing buffer VIA ( 0.06 GB; CompressionRatio= 1.00)
  Phase 1 completed in     0.178 sec
Second Phase: sorting and transformation of aux index

IA-Transformation
Memory available                       ... 4986 MB 
Max. # MO pairs treated in a batch     ... 2    
# of internal orbitals                 ... 38
# batches for internal orbitals        ... 1
Closing buffer IAV ( 0.00 GB; CompressionRatio= 1.00)
(ia|v) transformation done in     0.042 sec

  Phase 2 completed in     0.098 sec
RI-Integral transformation completed in     0.278 sec

-----------------
RI-TRANSFORMATION (AUX index driven)
-----------------

Dimension of the orbital-basis         ... 285
Dimension of the aux-basis             ... 939
Transformation of internal/external MOs...   20-  56 to   57- 284
Number Format for Storage              ... Double (8 Byte)
Integral mode                          ... Direct

First Phase: integral generation and transformation of MO indices
  Aux angular momentum 0               ... done (    0.004 sec)
  Aux angular momentum 1               ... done (    0.007 sec)
  Aux angular momentum 2               ... done (    0.013 sec)
  Aux angular momentum 3               ... done (    0.020 sec)
  Aux angular momentum 4               ... done (    0.014 sec)
  Aux angular momentum 5               ... done (    0.020 sec)
  Aux angular momentum 6               ... done (    0.027 sec)
Closing buffer VIA ( 0.06 GB; CompressionRatio= 1.00)
  Phase 1 completed in     0.183 sec
Second Phase: sorting and transformation of aux index

IA-Transformation
Memory available                       ... 4986 MB 
Max. # MO pairs treated in a batch     ... 2    
# of internal orbitals                 ... 37
# batches for internal orbitals        ... 1
Closing buffer IAV ( 0.00 GB; CompressionRatio= 1.00)
(ia|v) transformation done in     0.041 sec

  Phase 2 completed in     0.096 sec
RI-Integral transformation completed in     0.279 sec
Opening buffers                              ... done

Starting loop over batches of integrals:

Operator 0  - window                       ... ( 20- 57)x( 58-284)
Operator 0  - Memory available             ...  5000 MB
Operator 0  - Memory needed per MO         ...   1.6 MB
Operator 0  - Number of orbitals per batch ... 2
Operator 0  - Number of batches            ... 1

OPERATOR  0   PASS   0:  MOs    20 ...   21 +   22 ...   23 +   24 ...   25 +   26 ...   27
                            +   28 ...   29 +   30 ...   31 +   32 ...   33 +   34 ...   35
                            +   36 ...   37 +   38 ...   39 +   40 ...   41 +   42 ...   43
                            +   44 ...   45 +   46 ...   47 +   48 ...   49 +   50 ...   51
                            +   52 ...   53 +   54 ...   55 +   56 ...   57
  Reading integrals       ... ok

Operator 1  - window                       ... ( 20- 56)x( 57-284)
Operator 1  - Memory available             ...  5000 MB
Operator 1  - Memory needed per MO         ...   1.6 MB
Operator 1  - Number of orbitals per batch ... 2
Operator 1  - Number of batches            ... 1

OPERATOR  1   PASS   0:  MOs    20 ...   21 +   22 ...   23 +   24 ...   25 +   26 ...   27
                            +   28 ...   29 +   30 ...   31 +   32 ...   33 +   34 ...   35
                            +   36 ...   37 +   38 ...   39 +   40 ...   41 +   42 ...   43
                            +   44 ...   45 +   46 ...   47 +   48 ...   49 +   50 ...   51
                            +   52 ...   53 +   54 ...   55 +   56 ...   56
  Reading integrals       ... ok
Time spent in pair loops =     0.636 sec
Deleting buffer (Ka|jb)[aa] ...done
Deleting buffer (Ka|jb)[ab] ...done
Deleting buffer (Ka|jb)[ba] ...done
Deleting buffer (Ka|jb)[bb] ...done

Spin-scaled correlation energy components}
 E2 and T2 for alpha/alpha pairs :     -0.259813221 Eh      0.000000000
 E2 and T2 for beta/beta   pairs :     -0.260213452 Eh      0.000000000
 E2 and T2 for alpha/beta  pairs :     -1.154014412 Eh      0.000000000


-----------------------------------------------
 RI-MP2 CORRELATION ENERGY:     -1.674041085 Eh
-----------------------------------------------


-------
TIMINGS
-------

Total time                :    1.425 sec
Integral trafo            :    0.568 sec ( 39.8%)
I/O of integrals          :    0.004 sec (  0.3%)
K(i,j) Operators          :    0.330 sec ( 23.1%)
T(i,j) pair energies      :    0.016 sec (  1.1%)
V-calculation             :    0.022 sec (  1.5%)
V**(-1/2)                 :    0.044 sec (  3.1%)
Gamma(ia|P)               :    0.000 sec (  0.0%)
Gamma-Trafo               :    0.000 sec (  0.0%)
D(virtual)                :    0.000 sec (  0.0%)
D(internal)               :    0.000 sec (  0.0%)
W(virtual)                :    0.000 sec (  0.0%)
W(internal)               :    0.000 sec (  0.0%)
L(virtual)                :    0.000 sec (  0.0%)
L(internal)               :    0.000 sec (  0.0%)
G(D)                      :    0.000 sec (  0.0%)
G(Z)                      :    0.000 sec (  0.0%)
Z-Vector Solution         :    0.000 sec (  0.0%)
Z-Vector Solution         :    0.000 sec (  0.0%)
3-Index Derivative 
+ Separable RIJ part      :    0.000 sec (  0.0%)
2-Index Derivative 
+ Separable RIJ part      :    0.000 sec (  0.0%)
Separable Gradient (X)    :    0.000 sec (  0.0%)


---------------------------------------
MP2 TOTAL ENERGY:    -6560.662583937 Eh
---------------------------------------


-------------------------------------------------------------------------------
                          DFT DISPERSION CORRECTION                            
                                                                               
                              DFTD3 V3.1  Rev 1                                
                          USING Becke-Johnson damping                          
-------------------------------------------------------------------------------
The DSD-BLYP/2013 functional is recognized
Active option DFTDOPT                   ...         4   

molecular C6(AA) [au] = 2983.569509 


            DFT-D V3
 parameters
 s6 scaling factor         :     0.5700 
 a1 scaling factor         :     0.0000 
 s8 scaling factor         :     0.0000 
 a2 scaling factor         :     5.4000 
 ad hoc parameters k1-k3   :    16.0000     1.3333    -4.0000 

 Edisp/kcal,au: -11.170993481907  -0.017802109374 
 E6   /kcal   : -11.170993482 
 E8   /kcal   :  -0.000000000 
 % E8         :   0.000000000 

-------------------------   ----------------
Dispersion correction           -0.017802109
-------------------------   ----------------


-------------------------   --------------------
FINAL SINGLE POINT ENERGY     -6560.680386045914
-------------------------   --------------------


                            ***************************************
                            *     ORCA property calculations      *
                            ***************************************


  WARNING: The energy has been calculated at the MP2 level but the densities
           used in the property calculations are still SCF densities
           MP2 response densities have not been calculated 
           use %mp2 Density relaxed end
           or  %mp2 Density unrelaxed end

                                    ---------------------
                                    Active property flags
                                    ---------------------
   (+) Dipole Moment


------------------------------------------------------------------------------
                       ORCA ELECTRIC PROPERTIES CALCULATION
------------------------------------------------------------------------------

Dipole Moment Calculation                       ... on
Quadrupole Moment Calculation                   ... off
Polarizability Calculation                      ... off
GBWName                                         ... Cu04C2_H_A.gbw
Electron density file                           ... Cu04C2_H_A.scfp
The origin for moment calculation is the CENTER OF MASS  = ( 0.000000,  0.000000 -0.026728)

-------------
DIPOLE MOMENT
-------------
                                X             Y             Z
Electronic contribution:      0.00000       0.00001      -3.10847
Nuclear contribution   :      0.00000       0.00000       3.12710
                        -----------------------------------------
Total Dipole Moment    :      0.00000       0.00001       0.01863
                        -----------------------------------------
Magnitude (a.u.)       :      0.01863
Magnitude (Debye)      :      0.04736



--------------------
Rotational spectrum 
--------------------
 
Rotational constants in cm-1:     0.044993     0.041927     0.041927 
Rotational constants in MHz :  1348.855174  1256.945404  1256.945373 

 Dipole components along the rotational axes: 
x,y,z [a.u.] :     0.018631     0.000013     0.000000 
x,y,z [Debye]:     0.047355     0.000034     0.000000 

 

Timings for individual modules:

Sum of individual times         ...       31.058 sec (=   0.518 min)
GTO integral calculation        ...        0.933 sec (=   0.016 min)   3.0 %
SCF iterations                  ...       28.197 sec (=   0.470 min)  90.8 %
MP2 module                      ...        1.928 sec (=   0.032 min)   6.2 %
                             ****ORCA TERMINATED NORMALLY****
TOTAL RUN TIME: 0 days 0 hours 0 minutes 31 seconds 557 msec
