
                                 *****************
                                 * O   R   C   A *
                                 *****************

           --- An Ab Initio, DFT and Semiempirical electronic structure package ---

                  #######################################################
                  #                        -***-                        #
                  #          Department of theory and spectroscopy      #
                  #               Directorship: Frank Neese             #
                  #        Max Planck Institute fuer Kohlenforschung    #
                  #                Kaiser Wilhelm Platz 1               #
                  #                 D-45470 Muelheim/Ruhr               #
                  #                      Germany                        #
                  #                                                     #
                  #                  All rights reserved                #
                  #                        -***-                        #
                  #######################################################


                         Program Version 4.2.0 -  RELEASE  -


 With contributions from (in alphabetic order):
   Daniel Aravena         : Magnetic Suceptibility
   Michael Atanasov       : Ab Initio Ligand Field Theory (pilot matlab implementation)
   Alexander A. Auer      : GIAO ZORA, VPT2
   Ute Becker             : Parallelization
   Giovanni Bistoni       : ED, misc. LED, open-shell LED, HFLED
   Martin Brehm           : Molecular dynamics
   Dmytro Bykov           : SCF Hessian
   Vijay G. Chilkuri      : MRCI spin determinant printing, contributions to CSF-ICE
   Dipayan Datta          : RHF DLPNO-CCSD density
   Achintya Kumar Dutta   : EOM-CC, STEOM-CC
   Dmitry Ganyushin       : Spin-Orbit,Spin-Spin,Magnetic field MRCI
   Miquel Garcia          : C-PCM Hessian, Gaussian charge scheme
   Yang Guo               : DLPNO-NEVPT2, CIM, IAO-localization
   Andreas Hansen         : Spin unrestricted coupled pair/coupled cluster methods
   Benjamin Helmich-Paris : CASSCF linear response (MC-RPA)
   Lee Huntington         : MR-EOM, pCC
   Robert Izsak           : Overlap fitted RIJCOSX, COSX-SCS-MP3, EOM
   Christian Kollmar      : KDIIS, OOCD, Brueckner-CCSD(T), CCSD density
   Simone Kossmann        : Meta GGA functionals, TD-DFT gradient, OOMP2, MP2 Hessian
   Martin Krupicka        : AUTO-CI
   Lucas Lang             : DCDCAS
   Dagmar Lenk            : GEPOL surface, SMD
   Dimitrios Liakos       : Extrapolation schemes; Compound Job, initial MDCI parallelization
   Dimitrios Manganas     : Further ROCIS development; embedding schemes
   Dimitrios Pantazis     : SARC Basis sets
   Taras Petrenko         : DFT Hessian,TD-DFT gradient, ASA, ECA, R-Raman, ABS, FL, XAS/XES, NRVS
   Peter Pinski           : DLPNO-MP2, DLPNO-MP2 Gradient
   Christoph Reimann      : Effective Core Potentials
   Marius Retegan         : Local ZFS, SOC
   Christoph Riplinger    : Optimizer, TS searches, QM/MM, DLPNO-CCSD(T), (RO)-DLPNO pert. Triples
   Tobias Risthaus        : Range-separated hybrids, TD-DFT gradient, RPA, STAB
   Michael Roemelt        : Original ROCIS implementation
   Masaaki Saitow         : Open-shell DLPNO-CCSD energy and density
   Barbara Sandhoefer     : DKH picture change effects
   Avijit Sen             : IP-ROCIS
   Kantharuban Sivalingam : CASSCF convergence, NEVPT2, FIC-MRCI
   Bernardo de Souza      : ESD, SOC TD-DFT
   Georgi Stoychev        : AutoAux, RI-MP2 NMR
   Willem Van den Heuvel  : Paramagnetic NMR
   Boris Wezisla          : Elementary symmetry handling
   Frank Wennmohs         : Technical directorship


 We gratefully acknowledge several colleagues who have allowed us to
 interface, adapt or use parts of their codes:
   Stefan Grimme, W. Hujo, H. Kruse,             : VdW corrections, initial TS optimization,
                  C. Bannwarth                     DFT functionals, gCP, sTDA/sTD-DF
   Ed Valeev, F. Pavosevic, A. Kumar             : LibInt (2-el integral package), F12 methods
   Garnet Chan, S. Sharma, J. Yang, R. Olivares  : DMRG
   Ulf Ekstrom                                   : XCFun DFT Library
   Mihaly Kallay                                 : mrcc  (arbitrary order and MRCC methods)
   Andreas Klamt, Michael Diedenhofen            : otool_cosmo (COSMO solvation model)
   Jiri Pittner, Ondrej Demel                    : Mk-CCSD
   Frank Weinhold                                : gennbo (NPA and NBO analysis)
   Christopher J. Cramer and Donald G. Truhlar   : smd solvation model
   Lars Goerigk                                  : TD-DFT with DH, B97 family of functionals
   V. Asgeirsson, H. Jonsson                     : NEB implementation
   FAccTs GmbH                                   : IRC, NEB, NEB-TS, Multilevel, MM, QM/MM, CI optimization
   S Lehtola, MJT Oliveira, MAL Marques          : LibXC Library


 Your calculation uses the libint2 library for the computation of 2-el integrals
 For citations please refer to: http://libint.valeyev.net

 Your ORCA version has been built with support for libXC version: 4.2.3
 For citations please refer to: https://tddft.org/programs/libxc/

 This ORCA versions uses:
   CBLAS   interface :  Fast vector & matrix operations
   LAPACKE interface :  Fast linear algebra routines
   SCALAPACK package :  Parallel linear algebra routines


Your calculation utilizes the atom-pairwise dispersion correction
with the Becke-Johnson damping scheme (D3BJ)
Cite in your paper:
S.Grimme, S.Ehrlich, L.Goerigk, J Comput Chem, (2011), 32, 1456–1465 
S.Grimme, J.Antony, S.Ehrlich and H.Krieg, J.Chem.Phys., 132, (2010), 154104 
   

----- Orbital basis set information -----
Your calculation utilizes the basis: def2-TZVPPD
   F. Weigend and R. Ahlrichs, Phys. Chem. Chem. Phys. 7, 3297 (2005).
   D. Rappoport and F. Furche, J. Chem. Phys. 133 134105 (2010).

----- AuxC basis set information -----
Your calculation utilizes the auxiliary basis: def2-TZVPPD/C
   A. Hellweg, C. Hattig, S. Hofener and W. Klopper, Theor. Chem. Acc. 117, 587 (2007).

----- AuxJK basis set information -----
Your calculation utilizes the auxiliary basis: def2/JK
   H-Ba, Hf-Rn: F. Weigend, J. Comput. Chem. 29, 167 (2008).

================================================================================
                                        WARNINGS
                       Please study these warnings very carefully!
================================================================================


WARNING: No MP2 level density has been requested!
         To caclulate MP2 level properties use
         %mp2 Density relaxed end
         or
         %mp2 Density unrelaxed end
         Otherwise for double-hybrid DFT only the energy is correct!

WARNING: There are different parametrizations of Gershom Martin's DSD-DFs
         for use with and without D3(BJ)!
         You are using the D3(BJ) parametrized version,
         consistent with the 2013 article (S. Kozuch and J. M. L. Martin, JCC 2013, 34, 2327)

WARNING: The frozen-core approximation is turned on by default for 
         the MP2 part of double-hybrid DFT.

INFO   : the flag for use of LIBINT has been found!

================================================================================
                                       INPUT FILE
================================================================================
NAME = Cu04C2.in
|  1> #
|  2> # Cu04C2 ri-DSD-BLYP/2013-D3BJ/Def2-TZVPPD
|  3> #
|  4> ! rijk ri-dsd-blyp/2013 d3bj def2-tzvppd def2/jk def2-tzvppd/c grid4 nofinalgrid
|  5> 
|  6> *xyz 2 1
|  7> Cu      -0.000001   -0.000007    1.488630 
|  8> Cu       0.000001   -1.403449   -0.496203 
|  9> Cu       1.215485    0.701727   -0.496214 
| 10> Cu      -1.215485    0.701729   -0.496213 
| 11> *
| 12> 
| 13> %maxcore 5000
| 14> 
| 15> %pal
| 16> nprocs = 24
| 17> end
| 18> 
| 19> 
| 20>                          ****END OF INPUT****
================================================================================

                       ****************************
                       * Single Point Calculation *
                       ****************************

---------------------------------
CARTESIAN COORDINATES (ANGSTROEM)
---------------------------------
  Cu    -0.000001   -0.000007    1.488630
  Cu     0.000001   -1.403449   -0.496203
  Cu     1.215485    0.701727   -0.496214
  Cu    -1.215485    0.701729   -0.496213

----------------------------
CARTESIAN COORDINATES (A.U.)
----------------------------
  NO LB      ZA    FRAG     MASS         X           Y           Z
   0 Cu   29.0000    0    63.550   -0.000002   -0.000013    2.813103
   1 Cu   29.0000    0    63.550    0.000002   -2.652134   -0.937688
   2 Cu   29.0000    0    63.550    2.296934    1.326072   -0.937709
   3 Cu   29.0000    0    63.550   -2.296934    1.326076   -0.937707

--------------------------------
INTERNAL COORDINATES (ANGSTROEM)
--------------------------------
 Cu     0   0   0     0.000000000000     0.00000000     0.00000000
 Cu     1   0   0     2.430886975007     0.00000000     0.00000000
 Cu     2   1   0     2.430877896019    60.00141691     0.00000000
 Cu     2   1   3     2.430880628081    60.00134601   289.46932402

---------------------------
INTERNAL COORDINATES (A.U.)
---------------------------
 Cu     0   0   0     0.000000000000     0.00000000     0.00000000
 Cu     1   0   0     4.593710645279     0.00000000     0.00000000
 Cu     2   1   0     4.593693488478    60.00141691     0.00000000
 Cu     2   1   3     4.593698651328    60.00134601   289.46932402

---------------------
BASIS SET INFORMATION
---------------------
There are 1 groups of distinct atoms

 Group   1 Type Cu  : 17s13p7d2f1g contracted to 6s6p4d2f1g pattern {842111/631111/4111/11/1}

Atom   0Cu   basis set group =>   1
Atom   1Cu   basis set group =>   1
Atom   2Cu   basis set group =>   1
Atom   3Cu   basis set group =>   1
---------------------------------
AUXILIARY/C BASIS SET INFORMATION
---------------------------------
There are 1 groups of distinct atoms

 Group   1 Type Cu  : 10s10p9d7f5g3h1i contracted to 10s10p9d7f5g3h1i pattern {1111111111/1111111111/111111111/1111111/11111/111/1}

Atom   0Cu   basis set group =>   1
Atom   1Cu   basis set group =>   1
Atom   2Cu   basis set group =>   1
Atom   3Cu   basis set group =>   1
----------------------------------
AUXILIARY/JK BASIS SET INFORMATION
----------------------------------
There are 1 groups of distinct atoms

 Group   1 Type Cu  : 19s14p12d10f7g3h1i contracted to 16s13p11d9f5g3h1i pattern {4111111111111111/2111111111111/21111111111/211111111/31111/111/1}

Atom   0Cu   basis set group =>   1
Atom   1Cu   basis set group =>   1
Atom   2Cu   basis set group =>   1
Atom   3Cu   basis set group =>   1


           ************************************************************
           *        Program running with 24 parallel MPI-processes    *
           *              working on a common directory               *
           ************************************************************
------------------------------------------------------------------------------
                           ORCA GTO INTEGRAL CALCULATION
                           -- RI-GTO INTEGRALS CHOSEN --
------------------------------------------------------------------------------

                         BASIS SET STATISTICS AND STARTUP INFO

Gaussian basis set:
 # of primitive gaussian shells          ...  160
 # of primitive gaussian functions       ...  456
 # of contracted shells                  ...   76
 # of contracted basis functions         ...  268
 Highest angular momentum                ...    4
 Maximum contraction depth               ...    8
Auxiliary gaussian basis set:
 # of primitive gaussian shells          ...  264
 # of primitive gaussian functions       ... 1200
 # of contracted shells                  ...  232
 # of contracted aux-basis functions     ... 1056
 Highest angular momentum                ...    6
 Maximum contraction depth               ...    4
Ratio of auxiliary to basis functions    ...  3.94
Integral package used                  ... LIBINT
 One Electron integrals                  ... done
 Ordering auxiliary basis shells         ... done
 Integral threshhold             Thresh  ...  1.000e-10
 Primitive cut-off               TCut    ...  1.000e-11
 Pre-screening matrix                    ... done
 Shell pair data                         ... 
 Ordering of the shell pairs             ... done (   0.000 sec) 2650 of 2926 pairs
 Determination of significant pairs      ... done (   0.000 sec)
 Creation of shell pair data             ... done (   0.000 sec)
 Storage of shell pair data              ... done (   0.011 sec)
 Shell pair data done in (   0.012 sec)
 Computing two index integrals           ... done
 Cholesky decomposition of the V-matrix  ... done


Timings:
 Total evaluation time                   ...   0.691 sec (  0.012 min)
 One electron matrix time                ...   0.043 sec (  0.001 min) =  6.2%
 Schwartz matrix evaluation time         ...   0.323 sec (  0.005 min) = 46.8%
 Two index repulsion integral time       ...   0.236 sec (  0.004 min) = 34.1%
 Cholesky decomposition of V             ...   0.049 sec (  0.001 min) =  7.1%
 Three index repulsion integral time     ...   0.000 sec (  0.000 min) =  0.0%



           ************************************************************
           *        Program running with 24 parallel MPI-processes    *
           *              working on a common directory               *
           ************************************************************
-------------------------------------------------------------------------------
                                 ORCA SCF
-------------------------------------------------------------------------------

------------
SCF SETTINGS
------------
Hamiltonian:
 Density Functional     Method          .... DFT(GTOs)
 Exchange Functional    Exchange        .... B88
   X-Alpha parameter    XAlpha          ....  0.666667
   Becke's b parameter  XBeta           ....  0.004200
 Correlation Functional Correlation     .... LYP
 LDA part of GGA corr.  LDAOpt          .... VWN-5
 Gradients option       PostSCFGGA      .... off
 Hybrid DFT is turned on
   Fraction HF Exchange ScalHFX         ....  0.710000
   Scaling of DF-GGA-X  ScalDFX         ....  0.290000
   Scaling of DF-GGA-C  ScalDFC         ....  0.540000
   Scaling of DF-LDA-C  ScalLDAC        ....  0.540000
   Perturbative correction              ....  1.000000
   Density functional embedding theory  .... OFF
 RI-approximation to the Coulomb term is turned on
   Number of auxiliary basis functions  .... 1056
   RI-JK (J+K treated both via RI)      .... on


General Settings:
 Integral files         IntName         .... Cu04C2
 Hartree-Fock type      HFTyp           .... RHF
 Total Charge           Charge          ....    2
 Multiplicity           Mult            ....    1
 Number of Electrons    NEL             ....  114
 Basis Dimension        Dim             ....  268
 Nuclear Repulsion      ENuc            ....   1098.4462347522 Eh

Convergence Acceleration:
 DIIS                   CNVDIIS         .... on
   Start iteration      DIISMaxIt       ....    12
   Startup error        DIISStart       ....  0.200000
   # of expansion vecs  DIISMaxEq       ....     5
   Bias factor          DIISBfac        ....   1.050
   Max. coefficient     DIISMaxC        ....  10.000
 Newton-Raphson         CNVNR           .... off
 SOSCF                  CNVSOSCF        .... off
 Level Shifting         CNVShift        .... on
   Level shift para.    LevelShift      ....    0.2500
   Turn off err/grad.   ShiftErr        ....    0.0010
 Zerner damping         CNVZerner       .... off
 Static damping         CNVDamp         .... on
   Fraction old density DampFac         ....    0.7000
   Max. Damping (<1)    DampMax         ....    0.9800
   Min. Damping (>=0)   DampMin         ....    0.0000
   Turn off err/grad.   DampErr         ....    0.1000
 Fernandez-Rico         CNVRico         .... off

SCF Procedure:
 Maximum # iterations   MaxIter         ....   125
 SCF integral mode      SCFMode         .... Direct
   Integral package                     .... LIBINT
 Reset frequency        DirectResetFreq ....    20
 Integral Threshold     Thresh          ....  1.000e-10 Eh
 Primitive CutOff       TCut            ....  1.000e-11 Eh

Convergence Tolerance:
 Convergence Check Mode ConvCheckMode   .... Total+1el-Energy
 Convergence forced     ConvForced      .... 0
 Energy Change          TolE            ....  1.000e-06 Eh
 1-El. energy change                    ....  1.000e-03 Eh
 DIIS Error             TolErr          ....  1.000e-06


Diagonalization of the overlap matrix:
Smallest eigenvalue                        ... 7.120e-04
Time for diagonalization                   ...    0.011 sec
Threshold for overlap eigenvalues          ... 1.000e-08
Number of eigenvalues below threshold      ... 0
Time for construction of square roots      ...    0.009 sec
Total time needed                          ...    0.020 sec

-------------------
DFT GRID GENERATION
-------------------

General Integration Accuracy     IntAcc      ...  4.670
Radial Grid Type                 RadialGrid  ... Gauss-Chebyshev
Angular Grid (max. acc.)         AngularGrid ... Lebedev-302
Angular grid pruning method      GridPruning ... 3 (G Style)
Weight generation scheme         WeightScheme... Becke
Basis function cutoff            BFCut       ...    1.0000e-10
Integration weight cutoff        WCut        ...    1.0000e-14
Grids for H and He will be reduced by one unit

# of grid points (after initial pruning)     ...  38224 (   0.0 sec)
# of grid points (after weights+screening)   ...  37921 (   0.0 sec)
nearest neighbour list constructed           ...    0.0 sec
Grid point re-assignment to atoms done       ...    0.0 sec
Grid point division into batches done        ...    0.3 sec
Reduced shell lists constructed in    0.4 sec

Total number of grid points                  ...    37921
Total number of batches                      ...      594
Average number of points per batch           ...       63
Average number of grid points per atom       ...     9480
Average number of shells per batch           ...    18.69 (24.60%)
Average number of basis functions per batch  ...    52.85 (19.72%)
Average number of large shells per batch     ...    13.58 (72.63%)
Average number of large basis fcns per batch ...    37.19 (70.38%)
Average number of aux-shells per batch       ...    18.69 ( 8.06%)
Average number of aux functions per batch    ...    52.85 ( 5.00%)
Maximum spatial batch extension              ...  22.17, 19.95, 15.54 au
Average spatial batch extension              ...   0.43,  0.46,  0.38 au

Time for grid setup =    0.506 sec

------------------------------
INITIAL GUESS: MODEL POTENTIAL
------------------------------
Loading Hartree-Fock densities                     ... done
Calculating cut-offs                               ... done
Setting up the integral package                    ... done
Initializing the effective Hamiltonian             ... done
Starting the Coulomb interaction                   ... done (   0.0 sec)
Reading the grid                                   ... done
Mapping shells                                     ... done
Starting the XC term evaluation                    ... done (   0.0 sec)
  promolecular density results
     # of electrons  =    116.000053037
     EX              =   -263.292758311
     EC              =     -0.817379216
     EX+EC           =   -264.110137528
Transforming the Hamiltonian                       ... done (   0.0 sec)
Diagonalizing the Hamiltonian                      ... done (   0.0 sec)
Back transforming the eigenvectors                 ... done (   0.0 sec)
Now organizing SCF variables                       ... done
                      ------------------
                      INITIAL GUESS DONE (   0.6 sec)
                      ------------------
--------------
SCF ITERATIONS
--------------
ITER       Energy         Delta-E        Max-DP      RMS-DP      [F,P]     Damp
  0  -6558.3489575426   0.000000000000 0.03922333  0.00082350  0.0697735 0.7000
  1  -6558.6924012786  -0.343443735996 0.03963844  0.00086579  0.0582292 0.7000
                               ***Turning on DIIS***
  2  -6558.6684517967   0.023949481977 0.10708592  0.00231869  0.0427188 0.0000
  3  -6558.4699959364   0.198455860234 0.01176612  0.00037749  0.0409149 0.0000
  4  -6558.4774979469  -0.007502010432 0.00690920  0.00020206  0.0263754 0.0000
  5  -6558.4794354410  -0.001937494159 0.00273951  0.00005910  0.0081948 0.0000
  6  -6558.4797107989  -0.000275357851 0.00146362  0.00002855  0.0015983 0.0000
  7  -6558.4797406818  -0.000029882887 0.00144225  0.00002442  0.0008056 0.0000
  8  -6558.4797514789  -0.000010797134 0.00059334  0.00000794  0.0001632 0.0000
  9  -6558.4797522963  -0.000000817449 0.00028389  0.00000365  0.0000470 0.0000
 10  -6558.4797524015  -0.000000105212 0.00007480  0.00000094  0.0000237 0.0000
 11  -6558.4797524084  -0.000000006889 0.00002773  0.00000038  0.0000454 0.0000
                 **** Energy Check signals convergence ****

               *****************************************************
               *                     SUCCESS                       *
               *           SCF CONVERGED AFTER  12 CYCLES          *
               *****************************************************


----------------
TOTAL SCF ENERGY
----------------

Total Energy       :        -6558.47975241 Eh         -178465.30706 eV

Components:
Nuclear Repulsion  :         1098.44623475 Eh           29890.24164 eV
Electronic Energy  :        -7656.92598716 Eh         -208355.54870 eV
One Electron Energy:       -11305.81865911 Eh         -307646.96618 eV
Two Electron Energy:         3648.89267194 Eh           99291.41748 eV

Virial components:
Potential Energy   :       -13112.37349768 Eh         -356805.82253 eV
Kinetic Energy     :         6553.89374527 Eh          178340.51547 eV
Virial Ratio       :            2.00069974


DFT components:
N(Alpha)           :       56.999983600171 electrons
N(Beta)            :       56.999983600171 electrons
N(Total)           :      113.999967200342 electrons
E(X)               :      -76.491708495123 Eh       
E(C)               :       -2.973110767615 Eh       
E(XC)              :      -79.464819262737 Eh       
DFET-embed. en.    :        0.000000000000 Eh       

---------------
SCF CONVERGENCE
---------------

  Last Energy change         ...   -3.1869e-09  Tolerance :   1.0000e-06
  Last MAX-Density change    ...    2.1157e-05  Tolerance :   1.0000e-05
  Last RMS-Density change    ...    2.6505e-07  Tolerance :   1.0000e-06
  Last DIIS Error            ...    1.3016e-05  Tolerance :   1.0000e-06

             **** THE GBW FILE WAS UPDATED (Cu04C2.gbw) ****
             **** DENSITY FILE WAS UPDATED (Cu04C2.scfp) ****
             **** ENERGY FILE WAS UPDATED (Cu04C2.en.tmp) ****
             **** THE GBW FILE WAS UPDATED (Cu04C2.gbw) ****
             **** DENSITY FILE WAS UPDATED (Cu04C2.scfp) ****
----------------
ORBITAL ENERGIES
----------------

  NO   OCC          E(Eh)            E(eV) 
   0   2.0000    -327.125344     -8901.5332 
   1   2.0000    -327.125341     -8901.5331 
   2   2.0000    -327.125334     -8901.5329 
   3   2.0000    -327.125324     -8901.5326 
   4   2.0000     -40.497369     -1101.9894 
   5   2.0000     -40.497366     -1101.9893 
   6   2.0000     -40.497359     -1101.9892 
   7   2.0000     -40.497336     -1101.9885 
   8   2.0000     -35.442908      -964.4506 
   9   2.0000     -35.442906      -964.4505 
  10   2.0000     -35.442904      -964.4504 
  11   2.0000     -35.442896      -964.4502 
  12   2.0000     -35.442892      -964.4501 
  13   2.0000     -35.442892      -964.4501 
  14   2.0000     -35.442884      -964.4499 
  15   2.0000     -35.442884      -964.4499 
  16   2.0000     -35.442226      -964.4320 
  17   2.0000     -35.442223      -964.4319 
  18   2.0000     -35.442216      -964.4317 
  19   2.0000     -35.442203      -964.4314 
  20   2.0000      -5.157070      -140.3310 
  21   2.0000      -5.156547      -140.3168 
  22   2.0000      -5.156545      -140.3167 
  23   2.0000      -5.156542      -140.3166 
  24   2.0000      -3.538429       -96.2855 
  25   2.0000      -3.535960       -96.2184 
  26   2.0000      -3.535959       -96.2183 
  27   2.0000      -3.535958       -96.2183 
  28   2.0000      -3.535012       -96.1926 
  29   2.0000      -3.535010       -96.1925 
  30   2.0000      -3.533532       -96.1523 
  31   2.0000      -3.533529       -96.1522 
  32   2.0000      -3.533528       -96.1522 
  33   2.0000      -3.533491       -96.1512 
  34   2.0000      -3.533490       -96.1512 
  35   2.0000      -3.533490       -96.1511 
  36   2.0000      -0.868090       -23.6219 
  37   2.0000      -0.844688       -22.9851 
  38   2.0000      -0.844688       -22.9851 
  39   2.0000      -0.844680       -22.9849 
  40   2.0000      -0.837152       -22.7801 
  41   2.0000      -0.837151       -22.7800 
  42   2.0000      -0.827865       -22.5273 
  43   2.0000      -0.827862       -22.5273 
  44   2.0000      -0.827855       -22.5271 
  45   2.0000      -0.808778       -22.0080 
  46   2.0000      -0.808771       -22.0078 
  47   2.0000      -0.808769       -22.0077 
  48   2.0000      -0.805671       -21.9234 
  49   2.0000      -0.805668       -21.9233 
  50   2.0000      -0.803775       -21.8718 
  51   2.0000      -0.803771       -21.8717 
  52   2.0000      -0.803765       -21.8716 
  53   2.0000      -0.783792       -21.3281 
  54   2.0000      -0.783791       -21.3280 
  55   2.0000      -0.783782       -21.3278 
  56   2.0000      -0.704341       -19.1661 
  57   0.0000      -0.379447       -10.3253 
  58   0.0000      -0.379447       -10.3253 
  59   0.0000      -0.379444       -10.3252 
  60   0.0000      -0.280806        -7.6411 
  61   0.0000      -0.253591        -6.9006 
  62   0.0000      -0.253591        -6.9006 
  63   0.0000      -0.253589        -6.9005 
  64   0.0000      -0.247289        -6.7291 
  65   0.0000      -0.247287        -6.7290 
  66   0.0000      -0.163269        -4.4428 
  67   0.0000      -0.163269        -4.4428 
  68   0.0000      -0.163269        -4.4428 
  69   0.0000      -0.140395        -3.8203 
  70   0.0000      -0.140393        -3.8203 
  71   0.0000      -0.140393        -3.8203 
  72   0.0000      -0.119942        -3.2638 
  73   0.0000      -0.097416        -2.6508 
  74   0.0000      -0.096800        -2.6341 
  75   0.0000      -0.096800        -2.6341 
  76   0.0000      -0.096799        -2.6340 
  77   0.0000      -0.095834        -2.6078 
  78   0.0000      -0.095833        -2.6077 
  79   0.0000      -0.074446        -2.0258 
  80   0.0000      -0.074446        -2.0258 
  81   0.0000      -0.074444        -2.0257 
  82   0.0000      -0.019915        -0.5419 
  83   0.0000      -0.019912        -0.5418 
  84   0.0000      -0.019908        -0.5417 
  85   0.0000      -0.019754        -0.5375 
  86   0.0000      -0.019752        -0.5375 
  87   0.0000      -0.019752        -0.5375 
  88   0.0000       0.015712         0.4276 
  89   0.0000       0.015713         0.4276 
  90   0.0000       0.015714         0.4276 
  91   0.0000       0.031751         0.8640 
  92   0.0000       0.031751         0.8640 
  93   0.0000       0.041518         1.1298 
  94   0.0000       0.041520         1.1298 
  95   0.0000       0.041521         1.1299 
  96   0.0000       0.063155         1.7185 
  97   0.0000       0.107908         2.9363 
  98   0.0000       0.107909         2.9363 
  99   0.0000       0.107909         2.9364 
 100   0.0000       0.109104         2.9689 
 101   0.0000       0.109104         2.9689 
 102   0.0000       0.195152         5.3103 
 103   0.0000       0.195156         5.3105 
 104   0.0000       0.195157         5.3105 
 105   0.0000       0.217300         5.9130 
 106   0.0000       0.217303         5.9131 
 107   0.0000       0.217306         5.9132 
 108   0.0000       0.397407        10.8140 
 109   0.0000       0.462602        12.5880 
 110   0.0000       0.462606        12.5881 
 111   0.0000       0.477074        12.9819 
 112   0.0000       0.477077        12.9819 
 113   0.0000       0.477088        12.9822 
 114   0.0000       0.532512        14.4904 
 115   0.0000       0.532513        14.4904 
 116   0.0000       0.532516        14.4905 
 117   0.0000       0.584399        15.9023 
 118   0.0000       0.584401        15.9024 
 119   0.0000       0.584403        15.9024 
 120   0.0000       0.591418        16.0933 
 121   0.0000       0.653558        17.7842 
 122   0.0000       0.653569        17.7845 
 123   0.0000       0.653572        17.7846 
 124   0.0000       0.675043        18.3689 
 125   0.0000       0.675048        18.3690 
 126   0.0000       0.764625        20.8065 
 127   0.0000       0.764633        20.8067 
 128   0.0000       0.764638        20.8068 
 129   0.0000       0.783479        21.3195 
 130   0.0000       0.783480        21.3196 
 131   0.0000       0.783487        21.3198 
 132   0.0000       0.826357        22.4863 
 133   0.0000       0.826358        22.4863 
 134   0.0000       1.005539        27.3621 
 135   0.0000       1.005542        27.3622 
 136   0.0000       1.005556        27.3626 
 137   0.0000       1.027691        27.9649 
 138   0.0000       1.027701        27.9652 
 139   0.0000       1.027705        27.9653 
 140   0.0000       2.915532        79.3357 
 141   0.0000       2.915541        79.3359 
 142   0.0000       2.915548        79.3361 
 143   0.0000       2.946810        80.1868 
 144   0.0000       2.946824        80.1872 
 145   0.0000       2.963334        80.6364 
 146   0.0000       3.041681        82.7684 
 147   0.0000       3.041698        82.7688 
 148   0.0000       3.041702        82.7689 
 149   0.0000       3.098851        84.3240 
 150   0.0000       3.111783        84.6759 
 151   0.0000       3.111788        84.6761 
 152   0.0000       3.111794        84.6762 
 153   0.0000       3.254452        88.5581 
 154   0.0000       3.254454        88.5582 
 155   0.0000       3.254460        88.5584 
 156   0.0000       3.258293        88.6626 
 157   0.0000       3.279691        89.2449 
 158   0.0000       3.279698        89.2451 
 159   0.0000       3.279702        89.2452 
 160   0.0000       3.282250        89.3146 
 161   0.0000       3.282266        89.3150 
 162   0.0000       3.282278        89.3153 
 163   0.0000       3.283551        89.3500 
 164   0.0000       3.287558        89.4590 
 165   0.0000       3.287558        89.4590 
 166   0.0000       3.287562        89.4591 
 167   0.0000       3.290643        89.5429 
 168   0.0000       3.290647        89.5431 
 169   0.0000       3.290652        89.5432 
 170   0.0000       3.293198        89.6125 
 171   0.0000       3.293201        89.6126 
 172   0.0000       3.296098        89.6914 
 173   0.0000       3.296103        89.6915 
 174   0.0000       3.333881        90.7195 
 175   0.0000       3.362464        91.4973 
 176   0.0000       3.362465        91.4973 
 177   0.0000       3.362468        91.4974 
 178   0.0000       3.383077        92.0582 
 179   0.0000       3.383116        92.0593 
 180   0.0000       3.383119        92.0593 
 181   0.0000       3.543038        96.4110 
 182   0.0000       3.543046        96.4112 
 183   0.0000       3.543076        96.4120 
 184   0.0000       3.625778        98.6624 
 185   0.0000       3.625793        98.6629 
 186   0.0000       3.625799        98.6630 
 187   0.0000       3.692240       100.4710 
 188   0.0000       3.692265       100.4716 
 189   0.0000       3.700114       100.6852 
 190   0.0000       3.700117       100.6853 
 191   0.0000       3.700135       100.6858 
 192   0.0000       3.837134       104.4137 
 193   0.0000       3.866744       105.2195 
 194   0.0000       3.866757       105.2198 
 195   0.0000       3.866760       105.2199 
 196   0.0000       3.892564       105.9220 
 197   0.0000       3.892576       105.9224 
 198   0.0000       3.904931       106.2586 
 199   0.0000       3.904944       106.2589 
 200   0.0000       3.904951       106.2591 
 201   0.0000       4.283561       116.5616 
 202   0.0000       4.283580       116.5621 
 203   0.0000       4.283581       116.5622 
 204   0.0000      13.077307       355.8516 
 205   0.0000      13.077400       355.8542 
 206   0.0000      13.077448       355.8554 
 207   0.0000      13.077497       355.8568 
 208   0.0000      13.077520       355.8574 
 209   0.0000      13.077525       355.8575 
 210   0.0000      13.077580       355.8590 
 211   0.0000      13.077593       355.8594 
 212   0.0000      13.077710       355.8626 
 213   0.0000      13.077715       355.8627 
 214   0.0000      13.077734       355.8632 
 215   0.0000      13.077791       355.8648 
 216   0.0000      13.077835       355.8660 
 217   0.0000      13.077944       355.8689 
 218   0.0000      13.077967       355.8696 
 219   0.0000      13.077989       355.8702 
 220   0.0000      13.078062       355.8722 
 221   0.0000      13.078222       355.8765 
 222   0.0000      13.078228       355.8767 
 223   0.0000      13.078326       355.8794 
 224   0.0000      13.078335       355.8796 
 225   0.0000      13.078347       355.8799 
 226   0.0000      13.078385       355.8809 
 227   0.0000      13.078429       355.8821 
 228   0.0000      13.078471       355.8833 
 229   0.0000      13.078574       355.8861 
 230   0.0000      13.078582       355.8863 
 231   0.0000      13.078608       355.8870 
 232   0.0000      13.078625       355.8875 
 233   0.0000      13.078636       355.8878 
 234   0.0000      13.078755       355.8910 
 235   0.0000      13.078805       355.8924 
 236   0.0000      13.078877       355.8943 
 237   0.0000      13.080304       355.9332 
 238   0.0000      13.080326       355.9338 
 239   0.0000      13.080369       355.9349 
 240   0.0000      13.301573       361.9542 
 241   0.0000      13.301576       361.9543 
 242   0.0000      13.301581       361.9544 
 243   0.0000      13.301656       361.9565 
 244   0.0000      13.302214       361.9716 
 245   0.0000      13.302215       361.9717 
 246   0.0000      13.302216       361.9717 
 247   0.0000      13.303564       362.0084 
 248   0.0000      13.303569       362.0085 
 249   0.0000      13.303572       362.0086 
 250   0.0000      13.304170       362.0249 
 251   0.0000      13.305921       362.0725 
 252   0.0000      13.305941       362.0731 
 253   0.0000      13.308231       362.1354 
 254   0.0000      13.308240       362.1356 
 255   0.0000      13.308244       362.1357 
 256   0.0000      13.310878       362.2074 
 257   0.0000      13.311995       362.2378 
 258   0.0000      13.311999       362.2379 
 259   0.0000      13.312005       362.2381 
 260   0.0000      13.316381       362.3571 
 261   0.0000      13.316386       362.3573 
 262   0.0000      13.366389       363.7179 
 263   0.0000      13.366393       363.7180 
 264   0.0000      13.366412       363.7186 
 265   0.0000      13.373808       363.9198 
 266   0.0000      13.373822       363.9202 
 267   0.0000      13.373825       363.9203 

                    ********************************
                    * MULLIKEN POPULATION ANALYSIS *
                    ********************************

-----------------------
MULLIKEN ATOMIC CHARGES
-----------------------
   0 Cu:    0.500010
   1 Cu:    0.499977
   2 Cu:    0.500002
   3 Cu:    0.500011
Sum of atomic charges:    2.0000000

--------------------------------
MULLIKEN REDUCED ORBITAL CHARGES
--------------------------------
  0 Cus       :     6.430122  s :     6.430122
      pz      :     4.113789  p :    12.131635
      px      :     4.008923
      py      :     4.008922
      dz2     :     1.993724  d :     9.938078
      dxz     :     1.976784
      dyz     :     1.976790
      dx2y2   :     1.995390
      dxy     :     1.995390
      f0      :     0.000036  f :     0.000155
      f+1     :     0.000028
      f-1     :     0.000028
      f+2     :     0.000025
      f-2     :     0.000025
      f+3     :     0.000006
      f-3     :     0.000006
      g0      :     0.000000  g :     0.000001
      g+1     :     0.000000
      g-1     :     0.000000
      g+2     :     0.000000
      g-2     :     0.000000
      g+3     :     0.000000
      g-3     :     0.000000
      g+4     :     0.000000
      g-4     :     0.000000
  1 Cus       :     6.430149  s :     6.430149
      pz      :     4.020576  p :    12.131645
      px      :     4.008923
      py      :     4.102146
      dz2     :     1.985646  d :     9.938073
      dxz     :     1.996357
      dyz     :     1.986003
      dx2y2   :     1.994253
      dxy     :     1.975815
      f0      :     0.000023  f :     0.000155
      f+1     :     0.000011
      f-1     :     0.000023
      f+2     :     0.000017
      f-2     :     0.000025
      f+3     :     0.000023
      f-3     :     0.000032
      g0      :     0.000000  g :     0.000001
      g+1     :     0.000000
      g-1     :     0.000000
      g+2     :     0.000000
      g-2     :     0.000000
      g+3     :     0.000000
      g-3     :     0.000000
      g+4     :     0.000000
      g-4     :     0.000000
  2 Cus       :     6.430126  s :     6.430126
      pz      :     4.020574  p :    12.131635
      px      :     4.078834
      py      :     4.032227
      dz2     :     1.985647  d :     9.938082
      dxz     :     1.988593
      dyz     :     1.993769
      dx2y2   :     1.980430
      dxy     :     1.989642
      f0      :     0.000023  f :     0.000155
      f+1     :     0.000020
      f-1     :     0.000014
      f+2     :     0.000023
      f-2     :     0.000019
      f+3     :     0.000023
      f-3     :     0.000032
      g0      :     0.000000  g :     0.000001
      g+1     :     0.000000
      g-1     :     0.000000
      g+2     :     0.000000
      g-2     :     0.000000
      g+3     :     0.000000
      g-3     :     0.000000
      g+4     :     0.000000
      g-4     :     0.000000
  3 Cus       :     6.430120  s :     6.430120
      pz      :     4.020574  p :    12.131633
      px      :     4.078832
      py      :     4.032226
      dz2     :     1.985647  d :     9.938082
      dxz     :     1.988592
      dyz     :     1.993769
      dx2y2   :     1.980430
      dxy     :     1.989642
      f0      :     0.000023  f :     0.000155
      f+1     :     0.000020
      f-1     :     0.000014
      f+2     :     0.000023
      f-2     :     0.000019
      f+3     :     0.000023
      f-3     :     0.000032
      g0      :     0.000000  g :     0.000001
      g+1     :     0.000000
      g-1     :     0.000000
      g+2     :     0.000000
      g-2     :     0.000000
      g+3     :     0.000000
      g-3     :     0.000000
      g+4     :     0.000000
      g-4     :     0.000000


                     *******************************
                     * LOEWDIN POPULATION ANALYSIS *
                     *******************************

----------------------
LOEWDIN ATOMIC CHARGES
----------------------
   0 Cu:    0.500003
   1 Cu:    0.499996
   2 Cu:    0.500000
   3 Cu:    0.500001

-------------------------------
LOEWDIN REDUCED ORBITAL CHARGES
-------------------------------
  0 Cus       :     6.266165  s :     6.266165
      pz      :     4.198517  p :    12.231587
      px      :     4.016535
      py      :     4.016535
      dz2     :     2.014368  d :    10.001800
      dxz     :     1.995563
      dyz     :     1.995570
      dx2y2   :     1.998149
      dxy     :     1.998149
      f0      :     0.000069  f :     0.000444
      f+1     :     0.000106
      f-1     :     0.000106
      f+2     :     0.000069
      f-2     :     0.000069
      f+3     :     0.000013
      f-3     :     0.000012
      g0      :     0.000000  g :     0.000001
      g+1     :     0.000000
      g-1     :     0.000000
      g+2     :     0.000000
      g-2     :     0.000000
      g+3     :     0.000000
      g-3     :     0.000000
      g+4     :     0.000000
      g-4     :     0.000000
  1 Cus       :     6.266176  s :     6.266176
      pz      :     4.036756  p :    12.231590
      px      :     4.016537
      py      :     4.178296
      dz2     :     2.000400  d :    10.001793
      dxz     :     1.996951
      dyz     :     2.000683
      dx2y2   :     2.006998
      dxy     :     1.996761
      f0      :     0.000046  f :     0.000444
      f+1     :     0.000031
      f-1     :     0.000105
      f+2     :     0.000043
      f-2     :     0.000050
      f+3     :     0.000107
      f-3     :     0.000063
      g0      :     0.000000  g :     0.000001
      g+1     :     0.000000
      g-1     :     0.000000
      g+2     :     0.000000
      g-2     :     0.000000
      g+3     :     0.000000
      g-3     :     0.000000
      g+4     :     0.000000
      g-4     :     0.000000
  2 Cus       :     6.266165  s :     6.266165
      pz      :     4.036754  p :    12.231586
      px      :     4.137856
      py      :     4.056976
      dz2     :     2.000401  d :    10.001803
      dxz     :     1.999752
      dyz     :     1.997885
      dx2y2   :     1.999326
      dxy     :     2.004440
      f0      :     0.000046  f :     0.000444
      f+1     :     0.000086
      f-1     :     0.000049
      f+2     :     0.000048
      f-2     :     0.000045
      f+3     :     0.000107
      f-3     :     0.000063
      g0      :     0.000000  g :     0.000001
      g+1     :     0.000000
      g-1     :     0.000000
      g+2     :     0.000000
      g-2     :     0.000000
      g+3     :     0.000000
      g-3     :     0.000000
      g+4     :     0.000000
      g-4     :     0.000000
  3 Cus       :     6.266165  s :     6.266165
      pz      :     4.036754  p :    12.231586
      px      :     4.137856
      py      :     4.056976
      dz2     :     2.000401  d :    10.001803
      dxz     :     1.999752
      dyz     :     1.997885
      dx2y2   :     1.999326
      dxy     :     2.004440
      f0      :     0.000046  f :     0.000444
      f+1     :     0.000086
      f-1     :     0.000049
      f+2     :     0.000048
      f-2     :     0.000045
      f+3     :     0.000107
      f-3     :     0.000063
      g0      :     0.000000  g :     0.000001
      g+1     :     0.000000
      g-1     :     0.000000
      g+2     :     0.000000
      g-2     :     0.000000
      g+3     :     0.000000
      g-3     :     0.000000
      g+4     :     0.000000
      g-4     :     0.000000


                      *****************************
                      * MAYER POPULATION ANALYSIS *
                      *****************************

  NA   - Mulliken gross atomic population
  ZA   - Total nuclear charge
  QA   - Mulliken gross atomic charge
  VA   - Mayer's total valence
  BVA  - Mayer's bonded valence
  FA   - Mayer's free valence

  ATOM       NA         ZA         QA         VA         BVA        FA
  0 Cu    28.5000    29.0000     0.5000     0.9194     0.9194    -0.0000
  1 Cu    28.5000    29.0000     0.5000     0.9195     0.9195    -0.0000
  2 Cu    28.5000    29.0000     0.5000     0.9194     0.9194    -0.0000
  3 Cu    28.5000    29.0000     0.5000     0.9194     0.9194    -0.0000

  Mayer bond orders larger than 0.100000
B(  0-Cu,  1-Cu) :   0.3065 B(  0-Cu,  2-Cu) :   0.3065 B(  0-Cu,  3-Cu) :   0.3065 
B(  1-Cu,  2-Cu) :   0.3065 B(  1-Cu,  3-Cu) :   0.3065 B(  2-Cu,  3-Cu) :   0.3065 


-------
TIMINGS
-------

Total SCF time: 0 days 0 hours 0 min 9 sec 

Total time                  ....       9.495 sec
Sum of individual times     ....       9.324 sec  ( 98.2%)

Fock matrix formation       ....       8.439 sec  ( 88.9%)
  XC integration            ....       0.390 sec  (  4.6% of F)
    Basis function eval.    ....       0.079 sec  ( 20.2% of XC)
    Density eval.           ....       0.071 sec  ( 18.3% of XC)
    XC-Functional eval.     ....       0.016 sec  (  4.2% of XC)
    XC-Potential eval.      ....       0.121 sec  ( 31.0% of XC)
Diagonalization             ....       0.143 sec  (  1.5%)
Density matrix formation    ....       0.017 sec  (  0.2%)
Population analysis         ....       0.010 sec  (  0.1%)
Initial guess               ....       0.134 sec  (  1.4%)
Orbital Transformation      ....       0.000 sec  (  0.0%)
Orbital Orthonormalization  ....       0.000 sec  (  0.0%)
DIIS solution               ....       0.074 sec  (  0.8%)
Grid generation             ....       0.506 sec  (  5.3%)


           ************************************************************
           *        Program running with 24 parallel MPI-processes    *
           *              working on a common directory               *
           ************************************************************

------------------------------------------------------------------------------
                                ORCA  MP2 
------------------------------------------------------------------------------

Freezing NCore=40 chemical core electrons

-------------
RI-MP2 ENERGY
-------------
Dimension of the basis                    ...  268
Memory devoted to MP2                     ... 5000 MB   
Data format for buffers                   ... DOUBLE
Compression type for matrix containers    ... UNCOMPRESSED
Scaling for aa/bb pairs                   ...   4.000e-01
Scaling for ab pairs                      ...   4.700e-01
Overall scaling of the MP2 energy         ...   1.000e+00
Calculating two index integrals           ... done (    0.022 sec)
Cholesky decomposition of V**-1           ... done (    0.043 sec)

-----------------
RI-TRANSFORMATION (AUX index driven)
-----------------

Dimension of the orbital-basis         ... 268
Dimension of the aux-basis             ... 900
Transformation of internal/external MOs...   20-  56 to   57- 267
Number Format for Storage              ... Double (8 Byte)
Integral mode                          ... Direct

First Phase: integral generation and transformation of MO indices
  Aux angular momentum 0               ... done (    0.004 sec)
  Aux angular momentum 1               ... done (    0.007 sec)
  Aux angular momentum 2               ... done (    0.013 sec)
  Aux angular momentum 3               ... done (    0.020 sec)
  Aux angular momentum 4               ... done (    0.014 sec)
  Aux angular momentum 5               ... done (    0.021 sec)
  Aux angular momentum 6               ... done (    0.030 sec)
Closing buffer VIA ( 0.05 GB; CompressionRatio= 1.00)
  Phase 1 completed in     0.200 sec
Second Phase: sorting and transformation of aux index

IA-Transformation
Memory available                       ... 4989 MB 
Max. # MO pairs treated in a batch     ... 2    
# of internal orbitals                 ... 37
# batches for internal orbitals        ... 1
Closing buffer IAV ( 0.00 GB; CompressionRatio= 1.00)
(ia|v) transformation done in     0.034 sec

  Phase 2 completed in     0.093 sec
RI-Integral transformation completed in     0.295 sec
Opening buffers                              ... done

Starting loop over batches of integrals:

Operator 0  - window                       ... ( 20- 56)x( 57-267)
Operator 0  - Memory available             ...  5000 MB
Operator 0  - Memory needed per MO         ...   1.4 MB
Operator 0  - Number of orbitals per batch ... 2
Operator 0  - Number of batches            ... 1

OPERATOR  0   PASS   0:  MOs    20 ...   21 +   22 ...   23 +   24 ...   25 +   26 ...   27
                            +   28 ...   29 +   30 ...   31 +   32 ...   33 +   34 ...   35
                            +   36 ...   37 +   38 ...   39 +   40 ...   41 +   42 ...   43
                            +   44 ...   45 +   46 ...   47 +   48 ...   49 +   50 ...   51
                            +   52 ...   53 +   54 ...   55 +   56 ...   56
  Reading integrals       ... ok
Time spent in pair loops =     0.014 sec
Deleting buffer (Ka|jb)[aa] ...done

-----------------------------------------------
 RI-MP2 CORRELATION ENERGY:     -1.658305419 Eh
-----------------------------------------------


-------
TIMINGS
-------

Total time                :    0.534 sec
Integral trafo            :    0.303 sec ( 56.7%)
I/O of integrals          :    0.003 sec (  0.5%)
K(i,j) Operators          :    0.006 sec (  1.1%)
T(i,j) pair energies      :    0.001 sec (  0.1%)
V-calculation             :    0.022 sec (  4.1%)
V**(-1/2)                 :    0.043 sec (  8.1%)
Gamma(ia|P)               :    0.000 sec (  0.0%)
Gamma-Trafo               :    0.000 sec (  0.0%)
D(virtual)                :    0.000 sec (  0.0%)
D(internal)               :    0.000 sec (  0.0%)
W(virtual)                :    0.000 sec (  0.0%)
W(internal)               :    0.000 sec (  0.0%)
L(virtual)                :    0.000 sec (  0.0%)
L(internal)               :    0.000 sec (  0.0%)
G(D)                      :    0.000 sec (  0.0%)
G(Z)                      :    0.000 sec (  0.0%)
Z-Vector Solution         :    0.000 sec (  0.0%)
Z-Vector Solution         :    0.000 sec (  0.0%)
3-Index Derivative 
+ Separable RIJ part      :    0.000 sec (  0.0%)
2-Index Derivative 
+ Separable RIJ part      :    0.000 sec (  0.0%)
Separable Gradient (X)    :    0.000 sec (  0.0%)


---------------------------------------
MP2 TOTAL ENERGY:    -6560.138057831 Eh
---------------------------------------


-------------------------------------------------------------------------------
                          DFT DISPERSION CORRECTION                            
                                                                               
                              DFTD3 V3.1  Rev 1                                
                          USING Becke-Johnson damping                          
-------------------------------------------------------------------------------
The DSD-BLYP/2013 functional is recognized
Active option DFTDOPT                   ...         4   

molecular C6(AA) [au] = 2799.950665 


            DFT-D V3
 parameters
 s6 scaling factor         :     0.5700 
 a1 scaling factor         :     0.0000 
 s8 scaling factor         :     0.0000 
 a2 scaling factor         :     5.4000 
 ad hoc parameters k1-k3   :    16.0000     1.3333    -4.0000 

 Edisp/kcal,au: -10.983672367587  -0.017503594208 
 E6   /kcal   : -10.983672368 
 E8   /kcal   :  -0.000000000 
 % E8         :   0.000000000 

-------------------------   ----------------
Dispersion correction           -0.017503594
-------------------------   ----------------


-------------------------   --------------------
FINAL SINGLE POINT ENERGY     -6560.155561425317
-------------------------   --------------------


                            ***************************************
                            *     ORCA property calculations      *
                            ***************************************


  WARNING: The energy has been calculated at the MP2 level but the densities
           used in the property calculations are still SCF densities
           MP2 response densities have not been calculated 
           use %mp2 Density relaxed end
           or  %mp2 Density unrelaxed end

                                    ---------------------
                                    Active property flags
                                    ---------------------
   (+) Dipole Moment


------------------------------------------------------------------------------
                       ORCA ELECTRIC PROPERTIES CALCULATION
------------------------------------------------------------------------------

Dipole Moment Calculation                       ... on
Quadrupole Moment Calculation                   ... off
Polarizability Calculation                      ... off
GBWName                                         ... Cu04C2.gbw
Electron density file                           ... Cu04C2.scfp
The origin for moment calculation is the CENTER OF MASS  = ( 0.000000,  0.000000  0.000000)

-------------
DIPOLE MOMENT
-------------
                                X             Y             Z
Electronic contribution:     -0.00000       0.00000       0.00001
Nuclear contribution   :      0.00000       0.00000      -0.00000
                        -----------------------------------------
Total Dipole Moment    :     -0.00000       0.00000       0.00001
                        -----------------------------------------
Magnitude (a.u.)       :      0.00001
Magnitude (Debye)      :      0.00002



--------------------
Rotational spectrum 
--------------------
 
Rotational constants in cm-1:     0.044890     0.044889     0.044888 
Rotational constants in MHz :  1345.776498  1345.751239  1345.708462 

 Dipole components along the rotational axes: 
x,y,z [a.u.] :    -0.000000    -0.000007     0.000005 
x,y,z [Debye]:    -0.000001    -0.000017     0.000013 

 

Timings for individual modules:

Sum of individual times         ...       12.164 sec (=   0.203 min)
GTO integral calculation        ...        1.157 sec (=   0.019 min)   9.5 %
SCF iterations                  ...        9.895 sec (=   0.165 min)  81.3 %
MP2 module                      ...        1.111 sec (=   0.019 min)   9.1 %
                             ****ORCA TERMINATED NORMALLY****
TOTAL RUN TIME: 0 days 0 hours 0 minutes 12 seconds 783 msec
