Optimizer: Optimization complete!
 3 displacements needed.
 1 2 3
At level 1: Red. Int., RFO, no backsteps, dynamic trust
At level 1: Red. Int., RFO, no backsteps, dynamic trust
At level 1: Red. Int., RFO, no backsteps, dynamic trust
At level 1: Red. Int., RFO, no backsteps, dynamic trust
 Smith, A. C. Simmonett,
    A. E. DePrince III, E. G. Hohenstein, U. Bozkaya, A. Yu. Sokolov,
    R. Di Remigio, R. M. Richard, J. F. Gonthier, A. M. James,
    H. R. McAlexander, A. Kumar, M. Saitow, X. Wang, B. P. Pritchard,
    P. Verma, H. F. Schaefer III, K. Patkowski, R. A. King, E. F. Valeev,
    F. A. Evangelista, J. M. Turney, T. D. Crawford, and C. D. Sherrill,
    J. Chem. Theory Comput. 13(7) pp 3185--3197 (2017).
    (doi: 10.1021/acs.jctc.7b00174)


                         Additional Contributions by
    P. Kraus, H. Kruse, M. H. Lechner, M. C. Schieber, R. A. Shaw,
    A. Alenaizan, R. Galvelis, Z. L. Glick, S. Lehtola, and J. P. Misiewicz

    -----------------------------------------------------------------------


    Psi4 started on: Friday, 29 October 2021 08:25AM

    Process ID: 185255
    Host:       bp1-compute00145.data.bp.acrc.priv
    PSIDATADIR: /work/zw18965/.conda/envs/p4env/share/psi4
    Memory:     500.0 MiB
    Threads:    24
    
  ==> Input File <==

--------------------------------------------------------------------------
memory 144 GB

molecule {
0 1
Ag       0.000000    0.000000    0.033547 
H        0.000000    0.000000   -1.576706 
 }

set dynamic_level 1
set basis Def2-TZVPPD

optimize("M11-D3BJ")
frequencies("M11-D3BJ")
--------------------------------------------------------------------------

  Memory set to 134.110 GiB by Python driver.
gradient() will perform analytic gradient computation.

*** tstart() called on bp1-compute00145.data.bp.acrc.priv
*** at Fri Oct 29 08:25:43 2021

   => Loading Basis Set <=

    Name: DEF2-TZVPPD
    Role: ORBITAL
    Keyword: BASIS
    atoms 1 entry AG         line  2174 (ECP: line  3646) file /work/zw18965/.conda/envs/p4env/share/psi4/basis/def2-tzvppd.gbs 
    atoms 2 entry H          line    14 file /work/zw18965/.conda/envs/p4env/share/psi4/basis/def2-tzvppd.gbs 

    !!!  WARNING: ECP capability is in beta. Please check occupations closely.  !!!


         ---------------------------------------------------------
                                   SCF
               by Justin Turney, Rob Parrish, Andy Simmonett
                          and Daniel G. A. Smith
                              RKS Reference
                       24 Threads, 137329 MiB Core
         ---------------------------------------------------------

  ==> Geometry <==

    Molecular point group: c2v
    Full point group: C_inf_v

    Geometry (in Angstrom), charge = 0, multiplicity = 1:

       Center              X                  Y                   Z               Mass       
    ------------   -----------------  -----------------  -----------------  -----------------
         AG           0.000000000000     0.000000000000     0.015038545267   106.905091600000
         H            0.000000000000     0.000000000000    -1.595214454733     1.007825032230

  Running in c2v symmetry.

  Rotational constants: A = ************  B =      6.51176  C =      6.51176 [cm^-1]
  Rotational constants: A = ************  B = 195217.55314  C = 195217.55314 [MHz]
  Nuclear repulsion =    6.243967254046415

  Charge       = 0
  Multiplicity = 1
  Electrons    = 20
  Nalpha       = 10
  Nbeta        = 10

  ==> Algorithm <==

  SCF Algorithm Type is DF.
  DIIS enabled.
  MOM disabled.
  Fractional occupation disabled.
  Guess Type is SAD.
  Energy threshold   = 1.00e-08
  Density threshold  = 1.00e-08
  Integral threshold = 0.00e+00

  ==> Primary Basis <==

  Basis Set: DEF2-TZVPPD
    Blend: DEF2-TZVPPD
    Number of shells: 23
    Number of basis function: 73
    Number of Cartesian functions: 89
    Spherical Harmonics?: true
    Max angular momentum: 4

  Core potential: DEF2-TZVPPD
    Number of shells: 4
    Number of ECP primitives: 14
    Number of ECP core electrons: 28
    Max angular momentum: 3

  ==> DFT Potential <==

   => Composite Functional: M11-D3BJ <= 

    M11 Meta-GGA XC Functional

    R. Peverati and D. G. Truhlar, J. Phys. Chem. Lett., 2, 2810, 2011


    Deriv               =              1
    GGA                 =           TRUE
    Meta                =           TRUE

    Exchange Hybrid     =           TRUE
    MP2 Hybrid          =          FALSE

   => Exchange Functionals <=

    1.0000   XC_HYB_MGGA_X_M11 [omega = 0.2500]

   => Exact (HF) Exchange <=

    0.5720            HF,LR [omega = 0.2500]
    0.4280               HF 

   => Correlation Functionals <=

    1.0000    XC_MGGA_C_M11

   => Molecular Quadrature <=

    Radial Scheme          =       TREUTLER
    Pruning Scheme         =           FLAT
    Nuclear Scheme         =       TREUTLER

    BS radius alpha        =              1
    Pruning alpha          =              1
    Radial Points          =             75
    Spherical Points       =            302
    Total Points           =          45039
    Total Blocks           =            422
    Max Points             =            256
    Max Functions          =             73

   => M11-D3(BJ): Empirical Dispersion <=

    Grimme's -D3 (BJ-damping) Dispersion Correction
    Grimme S.; Ehrlich S.; Goerigk L. (2011), J. Comput. Chem., 32: 1456
    Parametrisation from:    L. Goerigk, J. Phys. Chem. Lett. 6, 3891-3896, 2015

        s6 =       1.000000
        s8 =       2.811200
        a1 =       0.000000
        a2 =      10.138900

   => Loading Basis Set <=

    Name: (DEF2-TZVPPD AUX)
    Role: JKFIT
    Keyword: DF_BASIS_SCF
    atoms 1 entry AG         line  4369 file /work/zw18965/.conda/envs/p4env/share/psi4/basis/def2-tzvpp-jkfit.gbs 
    atoms 2 entry H          line    23 file /work/zw18965/.conda/envs/p4env/share/psi4/basis/def2-tzvpp-jkfit.gbs 

  ==> Pre-Iterations <==

   -------------------------------------------------------
    Irrep   Nso     Nmo     Nalpha   Nbeta   Ndocc  Nsocc
   -------------------------------------------------------
     A1        31      31       0       0       0       0
     A2         8       8       0       0       0       0
     B1        17      17       0       0       0       0
     B2        17      17       0       0       0       0
   -------------------------------------------------------
    Total      73      73      10      10      10       0
   -------------------------------------------------------

  ==> Integral Setup <==

  ==> DiskDFJK: Density-Fitted J/K Matrices <==

    J tasked:                  Yes
    K tasked:                  Yes
    wK tasked:                 Yes
    Omega:               2.500E-01
    OpenMP threads:             24
    Integrals threads:          24
    Memory [MiB]:           102775
    Algorithm:                Core
    Integral Cache:           NONE
    Schwarz Cutoff:          1E-12
    Fitting Condition:       1E-10

   => Auxiliary Basis Set <=

  Basis Set: (DEF2-TZVPPD AUX)
    Blend: DEF2-TZVPP-JKFIT
    Number of shells: 55
    Number of basis function: 273
    Number of Cartesian functions: 404
    Spherical Harmonics?: true
    Max angular momentum: 6

  Cached 100.0% of DFT collocation blocks in 0.216 [GiB].

  Minimum eigenvalue in the overlap matrix is 3.3162039647E-03.
  Using Symmetric Orthogonalization.

  SCF Guess: Superposition of Atomic Densities via on-the-fly atomic UHF.

  ==> Iterations <==

                           Total Energy        Delta E     RMS |[F,P]|

   @DF-RKS iter SAD:  -147.06480404350415   -1.47065e+02   0.00000e+00 
   @DF-RKS iter   1:  -147.36629038276035   -3.01486e-01   6.55911e-03 DIIS
   @DF-RKS iter   2:  -147.40314407394808   -3.68537e-02   4.88788e-03 DIIS
   @DF-RKS iter   3:  -147.41501148331091   -1.18674e-02   7.22675e-04 DIIS
   @DF-RKS iter   4:  -147.41589179393455   -8.80311e-04   3.12830e-04 DIIS
   @DF-RKS iter   5:  -147.41636028715493   -4.68493e-04   1.90652e-04 DIIS
   @DF-RKS iter   6:  -147.41643884445665   -7.85573e-05   8.10663e-05 DIIS
   @DF-RKS iter   7:  -147.41646364974682   -2.48053e-05   2.77463e-05 DIIS
   @DF-RKS iter   8:  -147.41646810049534   -4.45075e-06   3.93380e-06 DIIS
   @DF-RKS iter   9:  -147.41646815329889   -5.28036e-08   1.08730e-06 DIIS
   @DF-RKS iter  10:  -147.41646815704954   -3.75064e-09   1.94859e-07 DIIS
   @DF-RKS iter  11:  -147.41646815715353   -1.03995e-10   3.86745e-08 DIIS
   @DF-RKS iter  12:  -147.41646815715953   -5.99698e-12   7.46075e-09 DIIS
  Energy and wave function converged.


  ==> Post-Iterations <==

    Orbital Energies [Eh]
    ---------------------

    Doubly Occupied:                                                      

       1A1    -3.883384     2A1    -2.481591     1B2    -2.472480  
       1B1    -2.472480     3A1    -0.502659     2B1    -0.464133  
       2B2    -0.464133     4A1    -0.457018     1A2    -0.457012  
       5A1    -0.330017  

    Virtual:                                                              

       6A1    -0.022914     3B2     0.030385     3B1     0.030385  
       7A1     0.086740     8A1     0.127014     4B2     0.217812  
       4B1     0.217812     9A1     0.241416     5B1     0.291639  
       5B2     0.291639    10A1     0.451960    11A1     0.500879  
       2A2     0.500881    12A1     0.528488     6B2     0.594390  
       6B1     0.594390    13A1     0.662660     7B1     0.960719  
       7B2     0.960719    14A1     1.145518     8B2     1.685141  
       8B1     1.685141    15A1     1.695103     3A2     1.695118  
       9B1     1.703301     9B2     1.703301    16A1     1.753607  
      10B2     1.768828    10B1     1.768828    17A1     1.938922  
      18A1     2.110465    19A1     2.143200     4A2     2.143230  
      11B1     2.206827    11B2     2.206827    20A1     2.327352  
      21A1     2.738339    22A1     3.321791     5A2     3.321829  
      12B2     3.521727    12B1     3.521727    13B2     3.892325  
      13B1     3.892325    23A1     4.039304    24A1     4.584107  
      14B1     4.880046    14B2     4.880046     6A2     4.895685  
      25A1     4.895690    15B1     5.072836    15B2     5.072836  
      26A1     5.278604    16B1     5.651615    16B2     5.651615  
      27A1     5.652995     7A2     5.653037    28A1     5.654826  
       8A2     5.654950    17B2     5.785201    17B1     5.785201  
      29A1     6.219738    30A1    33.505245    31A1   110.552639  

    Final Occupation by Irrep:
             A1    A2    B1    B2 
    DOCC [     5,    1,    2,    2 ]

  @DF-RKS Final Energy:  -147.41646815715953

   => Energetics <=

    Nuclear Repulsion Energy =              6.2439672540464146
    One-Electron Energy =                -273.9608931147154181
    Two-Electron Energy =                 127.2988838939106273
    DFT Exchange-Correlation Energy =      -6.9983765104011537
    Empirical Dispersion Energy =          -0.0000496800000000
    VV10 Nonlocal Energy =                  0.0000000000000000
    Total Energy =                       -147.4164681571595281

Computation Completed


Properties will be evaluated at   0.000000,   0.000000,   0.000000 [a0]

Properties computed using the SCF density matrix

  Nuclear Dipole Moment: [e a0]
     X:     0.0000      Y:     0.0000      Z:    -2.4746

  Electronic Dipole Moment: [e a0]
     X:     0.0000      Y:     0.0000      Z:     3.8383

  Dipole Moment: [e a0]
     X:     0.0000      Y:     0.0000      Z:     1.3638     Total:     1.3638

  Dipole Moment: [D]
     X:     0.0000      Y:     0.0000      Z:     3.4664     Total:     3.4664


*** tstop() called on bp1-compute00145.data.bp.acrc.priv at Fri Oct 29 08:25:48 2021
Module time:
	user time   =      68.58 seconds =       1.14 minutes
	system time =       4.69 seconds =       0.08 minutes
	total time  =          5 seconds =       0.08 minutes
Total time:
	user time   =      68.58 seconds =       1.14 minutes
	system time =       4.69 seconds =       0.08 minutes
	total time  =          5 seconds =       0.08 minutes

*** tstart() called on bp1-compute00145.data.bp.acrc.priv
*** at Fri Oct 29 08:25:48 2021


         ------------------------------------------------------------
                                   SCF GRAD                          
                          Rob Parrish, Justin Turney,                
                       Andy Simmonett, and Alex Sokolov              
         ------------------------------------------------------------

  ==> Geometry <==

    Molecular point group: c2v
    Full point group: C_inf_v

    Geometry (in Angstrom), charge = 0, multiplicity = 1:

       Center              X                  Y                   Z               Mass       
    ------------   -----------------  -----------------  -----------------  -----------------
         AG           0.000000000000     0.000000000000     0.015038545267   106.905091600000
         H            0.000000000000     0.000000000000    -1.595214454733     1.007825032230

  Nuclear repulsion =    6.243967254046415

  ==> Basis Set <==

  Basis Set: DEF2-TZVPPD
    Blend: DEF2-TZVPPD
    Number of shells: 23
    Number of basis function: 73
    Number of Cartesian functions: 89
    Spherical Harmonics?: true
    Max angular momentum: 4

  Core potential: DEF2-TZVPPD
    Number of shells: 4
    Number of ECP primitives: 14
    Number of ECP core electrons: 28
    Max angular momentum: 3

  ==> DFJKGrad: Density-Fitted SCF Gradients <==

    Gradient:                    1
    J tasked:                  Yes
    K tasked:                  Yes
    wK tasked:                 Yes
    Omega:               2.500E-01
    OpenMP threads:             24
    Integrals threads:          24
    Memory [MiB]:           102996
    Schwarz Cutoff:          0E+00
    Fitting Condition:       1E-10

   => Auxiliary Basis Set <=

  Basis Set: (DEF2-TZVPPD AUX)
    Blend: DEF2-TZVPP-JKFIT
    Number of shells: 55
    Number of basis function: 273
    Number of Cartesian functions: 404
    Spherical Harmonics?: true
    Max angular momentum: 6

  ==> DFT Potential <==

   => Composite Functional: M11-D3BJ <= 

    M11 Meta-GGA XC Functional

    R. Peverati and D. G. Truhlar, J. Phys. Chem. Lett., 2, 2810, 2011


    Deriv               =              1
    GGA                 =           TRUE
    Meta                =           TRUE

    Exchange Hybrid     =           TRUE
    MP2 Hybrid          =          FALSE

   => Exchange Functionals <=

    1.0000   XC_HYB_MGGA_X_M11 [omega = 0.2500]

   => Exact (HF) Exchange <=

    0.5720            HF,LR [omega = 0.2500]
    0.4280               HF 

   => Correlation Functionals <=

    1.0000    XC_MGGA_C_M11

   => Molecular Quadrature <=

    Radial Scheme          =       TREUTLER
    Pruning Scheme         =           FLAT
    Nuclear Scheme         =       TREUTLER

    BS radius alpha        =              1
    Pruning alpha          =              1
    Radial Points          =             75
    Spherical Points       =            302
    Total Points           =          45039
    Total Blocks           =            422
    Max Points             =            256
    Max Functions          =             73


  -Total Gradient:
     Atom            X                  Y                   Z
    ------   -----------------  -----------------  -----------------
       1        0.000000000000     0.000000000000    -0.112025853991
       2        0.000000000000     0.000000000000     0.111501188619


*** tstop() called on bp1-compute00145.data.bp.acrc.priv at Fri Oct 29 08:25:53 2021
Module time:
	user time   =      34.09 seconds =       0.57 minutes
	system time =       8.04 seconds =       0.13 minutes
	total time  =          5 seconds =       0.08 minutes
Total time:
	user time   =     103.68 seconds =       1.73 minutes
	system time =      12.81 seconds =       0.21 minutes
	total time  =         10 seconds =       0.17 minutes


  ==> Adding ECP gradient terms (computed numerically) <==

  -ECP Gradient:
     Atom            X                  Y                   Z
    ------   -----------------  -----------------  -----------------
       1        0.000000000000     0.000000000000     0.107767046475
       2        0.000000000000     0.000000000000    -0.107767046496


  -Total Gradient:
     Atom            X                  Y                   Z
    ------   -----------------  -----------------  -----------------
       1        0.000000000000     0.000000000000    -0.004258807516
       2        0.000000000000     0.000000000000     0.003734142124


			-----------------------------------------
			 OPTKING 2.0: for geometry optimizations 
			  - R.A. King,  Bethel University        
			-----------------------------------------
	At level 1: Red. Int., RFO, no backsteps, dynamic trust

	Internal coordinates to be generated automatically.
	Detected frag 1 with atoms:  1 2
	---Fragment 1 Bond Connectivity---
	 1 : 2
	 2 : 1

	---Fragment 1 Geometry and Gradient---
	 AG          0.0000000000        0.0000000000        0.0284187319
	 H           0.0000000000        0.0000000000       -3.0145184308
	             0.0000000000        0.0000000000       -0.0042588075
	             0.0000000000        0.0000000000        0.0037341421

	Previous optimization step data not found.  Starting new optimization.

	---Fragment 1 Intrafragment Coordinates---
	 - Coordinate -           - BOHR/RAD -       - ANG/DEG -
	 R(1,2)           =         3.042937	       1.610253

	Current energy   :      -147.4164681572

	Generating empirical Hessian (Schlegel '84) for each fragment.
	Taking RFO optimization step.
	Going to follow RFO solution 1.
	Using RFO vector 1.
	Norm of target step-size    0.00214
	Projected energy change by RFO approximation:        -0.0000062548

	Back-transformation to cartesian coordinates...
	Successfully converged to displaced geometry.

	--- Internal Coordinate Step in ANG or DEG, aJ/ANG or AJ/DEG ---
	 ---------------------------------------------------------------------------
	   Coordinate                Previous        Force       Change         New 
	   ----------                --------       ------       ------       ------
	    1 R(1,2)          =      1.610253     0.032926     0.001130     1.611383
	 ---------------------------------------------------------------------------
	Successfully symmetrized geometry.

  ==> Convergence Check <==

  Measures of convergence in internal coordinates in au.
  Criteria marked as inactive (o), active & met (*), and active & unmet ( ).
  --------------------------------------------------------------------------------------------- ~
   Step     Total Energy     Delta E     MAX Force     RMS Force      MAX Disp      RMS Disp    ~
  --------------------------------------------------------------------------------------------- ~
    Convergence Criteria    1.00e-06 *    3.00e-04 *             o    1.20e-03 *             o  ~
  --------------------------------------------------------------------------------------------- ~
      1    -147.41646816   -1.47e+02      4.00e-03      4.00e-03 o    2.14e-03      2.14e-03 o  ~
  ---------------------------------------------------------------------------------------------

	Writing optimization data to binary file.
	Structure for next step:
	Cartesian Geometry (in Angstrom)
	   AG     0.0000000000   0.0000000000   0.0156036474
	    H     0.0000000000   0.0000000000  -1.5957795507
			--------------------------
			 OPTKING Finished Execution 
			--------------------------

    Structure for next step:
    Molecular point group: c2v
    Full point group: C_inf_v

    Geometry (in Angstrom), charge = 0, multiplicity = 1:

    AG           0.000000000000     0.000000000000     0.015049100521
    H            0.000000000000     0.000000000000    -1.596334103934

gradient() will perform analytic gradient computation.

*** tstart() called on bp1-compute00145.data.bp.acrc.priv
*** at Fri Oct 29 08:26:17 2021

   => Loading Basis Set <=

    Name: DEF2-TZVPPD
    Role: ORBITAL
    Keyword: BASIS
    atoms 1 entry AG         line  2174 (ECP: line  3646) file /work/zw18965/.conda/envs/p4env/share/psi4/basis/def2-tzvppd.gbs 
    atoms 2 entry H          line    14 file /work/zw18965/.conda/envs/p4env/share/psi4/basis/def2-tzvppd.gbs 

    !!!  WARNING: ECP capability is in beta. Please check occupations closely.  !!!


         ---------------------------------------------------------
                                   SCF
               by Justin Turney, Rob Parrish, Andy Simmonett
                          and Daniel G. A. Smith
                              RKS Reference
                       24 Threads, 137329 MiB Core
         ---------------------------------------------------------

  ==> Geometry <==

    Molecular point group: c2v
    Full point group: C_inf_v

    Geometry (in Angstrom), charge = 0, multiplicity = 1:

       Center              X                  Y                   Z               Mass       
    ------------   -----------------  -----------------  -----------------  -----------------
         AG           0.000000000000     0.000000000000     0.015049100521   106.905091600000
         H            0.000000000000     0.000000000000    -1.596334103934     1.007825032230

  Running in c2v symmetry.

  Rotational constants: A = ************  B =      6.50263  C =      6.50263 [cm^-1]
  Rotational constants: A = ************  B = 194943.80277  C = 194943.80277 [MHz]
  Nuclear repulsion =    6.239587811843544

  Charge       = 0
  Multiplicity = 1
  Electrons    = 20
  Nalpha       = 10
  Nbeta        = 10

  ==> Algorithm <==

  SCF Algorithm Type is DF.
  DIIS enabled.
  MOM disabled.
  Fractional occupation disabled.
  Guess Type is READ.
  Energy threshold   = 1.00e-08
  Density threshold  = 1.00e-08
  Integral threshold = 0.00e+00

  ==> Primary Basis <==

  Basis Set: DEF2-TZVPPD
    Blend: DEF2-TZVPPD
    Number of shells: 23
    Number of basis function: 73
    Number of Cartesian functions: 89
    Spherical Harmonics?: true
    Max angular momentum: 4

  Core potential: DEF2-TZVPPD
    Number of shells: 4
    Number of ECP primitives: 14
    Number of ECP core electrons: 28
    Max angular momentum: 3

  ==> DFT Potential <==

   => Composite Functional: M11-D3BJ <= 

    M11 Meta-GGA XC Functional

    R. Peverati and D. G. Truhlar, J. Phys. Chem. Lett., 2, 2810, 2011


    Deriv               =              1
    GGA                 =           TRUE
    Meta                =           TRUE

    Exchange Hybrid     =           TRUE
    MP2 Hybrid          =          FALSE

   => Exchange Functionals <=

    1.0000   XC_HYB_MGGA_X_M11 [omega = 0.2500]

   => Exact (HF) Exchange <=

    0.5720            HF,LR [omega = 0.2500]
    0.4280               HF 

   => Correlation Functionals <=

    1.0000    XC_MGGA_C_M11

   => Molecular Quadrature <=

    Radial Scheme          =       TREUTLER
    Pruning Scheme         =           FLAT
    Nuclear Scheme         =       TREUTLER

    BS radius alpha        =              1
    Pruning alpha          =              1
    Radial Points          =             75
    Spherical Points       =            302
    Total Points           =          45039
    Total Blocks           =            422
    Max Points             =            256
    Max Functions          =             73

   => M11-D3(BJ): Empirical Dispersion <=

    Grimme's -D3 (BJ-damping) Dispersion Correction
    Grimme S.; Ehrlich S.; Goerigk L. (2011), J. Comput. Chem., 32: 1456
    Parametrisation from:    L. Goerigk, J. Phys. Chem. Lett. 6, 3891-3896, 2015

        s6 =       1.000000
        s8 =       2.811200
        a1 =       0.000000
        a2 =      10.138900

   => Loading Basis Set <=

    Name: (DEF2-TZVPPD AUX)
    Role: JKFIT
    Keyword: DF_BASIS_SCF
    atoms 1 entry AG         line  4369 file /work/zw18965/.conda/envs/p4env/share/psi4/basis/def2-tzvpp-jkfit.gbs 
    atoms 2 entry H          line    23 file /work/zw18965/.conda/envs/p4env/share/psi4/basis/def2-tzvpp-jkfit.gbs 

   => Loading Basis Set <=

    Name: DEF2-TZVPPD
    Role: ORBITAL
    Keyword: BASIS
    atoms 1 entry AG         line  2174 (ECP: line  3646) file /work/zw18965/.conda/envs/p4env/share/psi4/basis/def2-tzvppd.gbs 
    atoms 2 entry H          line    14 file /work/zw18965/.conda/envs/p4env/share/psi4/basis/def2-tzvppd.gbs 

    !!!  WARNING: ECP capability is in beta. Please check occupations closely.  !!!

  Reading orbitals from file 180, no projection.

  ==> Pre-Iterations <==

   -------------------------------------------------------
    Irrep   Nso     Nmo     Nalpha   Nbeta   Ndocc  Nsocc
   -------------------------------------------------------
     A1        31      31       0       0       0       0
     A2         8       8       0       0       0       0
     B1        17      17       0       0       0       0
     B2        17      17       0       0       0       0
   -------------------------------------------------------
    Total      73      73      10      10      10       0
   -------------------------------------------------------

  ==> Integral Setup <==

  ==> DiskDFJK: Density-Fitted J/K Matrices <==

    J tasked:                  Yes
    K tasked:                  Yes
    wK tasked:                 Yes
    Omega:               2.500E-01
    OpenMP threads:             24
    Integrals threads:          24
    Memory [MiB]:           102775
    Algorithm:                Core
    Integral Cache:           NONE
    Schwarz Cutoff:          1E-12
    Fitting Condition:       1E-10

   => Auxiliary Basis Set <=

  Basis Set: (DEF2-TZVPPD AUX)
    Blend: DEF2-TZVPP-JKFIT
    Number of shells: 55
    Number of basis function: 273
    Number of Cartesian functions: 404
    Spherical Harmonics?: true
    Max angular momentum: 6

  Cached 100.0% of DFT collocation blocks in 0.216 [GiB].

  Minimum eigenvalue in the overlap matrix is 3.3307603842E-03.
  Using Symmetric Orthogonalization.

  SCF Guess: Orbitals guess was supplied from a previous computation.

  ==> Iterations <==

                           Total Energy        Delta E     RMS |[F,P]|

   @DF-RKS iter   0:  -147.41627710195669   -1.47416e+02   3.87490e-05 
   @DF-RKS iter   1:  -147.41647572627789   -1.98624e-04   5.35760e-06 DIIS
   @DF-RKS iter   2:  -147.41647574506351   -1.87856e-08   3.76801e-06 DIIS
   @DF-RKS iter   3:  -147.41647575276869   -7.70518e-09   8.68414e-07 DIIS
   @DF-RKS iter   4:  -147.41647575429749   -1.52880e-09   4.40301e-07 DIIS
   @DF-RKS iter   5:  -147.41647575490114   -6.03649e-10   2.84593e-07 DIIS
   @DF-RKS iter   6:  -147.41647575512874   -2.27601e-10   6.32808e-08 DIIS
   @DF-RKS iter   7:  -147.41647575514887   -2.01226e-11   1.84011e-08 DIIS
   @DF-RKS iter   8:  -147.41647575515034   -1.47793e-12   3.44982e-09 DIIS
  Energy and wave function converged.


  ==> Post-Iterations <==

    Orbital Energies [Eh]
    ---------------------

    Doubly Occupied:                                                      

       1A1    -3.883350     2A1    -2.481537     1B1    -2.472460  
       1B2    -2.472460     3A1    -0.502493     2B1    -0.464095  
       2B2    -0.464095     4A1    -0.457011     1A2    -0.457005  
       5A1    -0.330013  

    Virtual:                                                              

       6A1    -0.022948     3B1     0.030377     3B2     0.030377  
       7A1     0.086759     8A1     0.126950     4B1     0.217824  
       4B2     0.217824     9A1     0.241395     5B2     0.291603  
       5B1     0.291603    10A1     0.451843    11A1     0.500866  
       2A2     0.500868    12A1     0.528507     6B1     0.594330  
       6B2     0.594330    13A1     0.662543     7B2     0.960782  
       7B1     0.960782    14A1     1.145339     8B1     1.685109  
       8B2     1.685109    15A1     1.695139     3A2     1.695154  
       9B2     1.703286     9B1     1.703286    16A1     1.753592  
      10B1     1.768594    10B2     1.768594    17A1     1.938472  
      18A1     2.110874    19A1     2.143196     4A2     2.143227  
      11B2     2.206711    11B1     2.206711    20A1     2.326358  
      21A1     2.738513    22A1     3.321802     5A2     3.321842  
      12B1     3.520943    12B2     3.520943    13B1     3.892096  
      13B2     3.892096    23A1     4.038472    24A1     4.582112  
      14B2     4.880051    14B1     4.880051     6A2     4.895604  
      25A1     4.895611    15B2     5.072504    15B1     5.072504  
      26A1     5.278779    16B1     5.651618    16B2     5.651618  
      27A1     5.652990     7A2     5.653029    28A1     5.654776  
       8A2     5.654899    17B1     5.784176    17B2     5.784176  
      29A1     6.217416    30A1    33.504049    31A1   110.552305  

    Final Occupation by Irrep:
             A1    A2    B1    B2 
    DOCC [     5,    1,    2,    2 ]

  @DF-RKS Final Energy:  -147.41647575515034

   => Energetics <=

    Nuclear Repulsion Energy =              6.2395878118435437
    One-Electron Energy =                -273.9529324428219184
    Two-Electron Energy =                 127.2952299194053580
    DFT Exchange-Correlation Energy =      -6.9983113635773195
    Empirical Dispersion Energy =          -0.0000496800000000
    VV10 Nonlocal Energy =                  0.0000000000000000
    Total Energy =                       -147.4164757551503442

Computation Completed


Properties will be evaluated at   0.000000,   0.000000,   0.000000 [a0]

Properties computed using the SCF density matrix

  Nuclear Dipole Moment: [e a0]
     X:     0.0000      Y:     0.0000      Z:    -2.4763

  Electronic Dipole Moment: [e a0]
     X:     0.0000      Y:     0.0000      Z:     3.8408

  Dipole Moment: [e a0]
     X:     0.0000      Y:     0.0000      Z:     1.3645     Total:     1.3645

  Dipole Moment: [D]
     X:     0.0000      Y:     0.0000      Z:     3.4683     Total:     3.4683


*** tstop() called on bp1-compute00145.data.bp.acrc.priv at Fri Oct 29 08:26:20 2021
Module time:
	user time   =      49.07 seconds =       0.82 minutes
	system time =       2.26 seconds =       0.04 minutes
	total time  =          3 seconds =       0.05 minutes
Total time:
	user time   =     394.13 seconds =       6.57 minutes
	system time =      25.16 seconds =       0.42 minutes
	total time  =         37 seconds =       0.62 minutes

*** tstart() called on bp1-compute00145.data.bp.acrc.priv
*** at Fri Oct 29 08:26:20 2021


         ------------------------------------------------------------
                                   SCF GRAD                          
                          Rob Parrish, Justin Turney,                
                       Andy Simmonett, and Alex Sokolov              
         ------------------------------------------------------------

  ==> Geometry <==

    Molecular point group: c2v
    Full point group: C_inf_v

    Geometry (in Angstrom), charge = 0, multiplicity = 1:

       Center              X                  Y                   Z               Mass       
    ------------   -----------------  -----------------  -----------------  -----------------
         AG           0.000000000000     0.000000000000     0.015049100521   106.905091600000
         H            0.000000000000     0.000000000000    -1.596334103934     1.007825032230

  Nuclear repulsion =    6.239587811843544

  ==> Basis Set <==

  Basis Set: DEF2-TZVPPD
    Blend: DEF2-TZVPPD
    Number of shells: 23
    Number of basis function: 73
    Number of Cartesian functions: 89
    Spherical Harmonics?: true
    Max angular momentum: 4

  Core potential: DEF2-TZVPPD
    Number of shells: 4
    Number of ECP primitives: 14
    Number of ECP core electrons: 28
    Max angular momentum: 3

  ==> DFJKGrad: Density-Fitted SCF Gradients <==

    Gradient:                    1
    J tasked:                  Yes
    K tasked:                  Yes
    wK tasked:                 Yes
    Omega:               2.500E-01
    OpenMP threads:             24
    Integrals threads:          24
    Memory [MiB]:           102996
    Schwarz Cutoff:          0E+00
    Fitting Condition:       1E-10

   => Auxiliary Basis Set <=

  Basis Set: (DEF2-TZVPPD AUX)
    Blend: DEF2-TZVPP-JKFIT
    Number of shells: 55
    Number of basis function: 273
    Number of Cartesian functions: 404
    Spherical Harmonics?: true
    Max angular momentum: 6

  ==> DFT Potential <==

   => Composite Functional: M11-D3BJ <= 

    M11 Meta-GGA XC Functional

    R. Peverati and D. G. Truhlar, J. Phys. Chem. Lett., 2, 2810, 2011


    Deriv               =              1
    GGA                 =           TRUE
    Meta                =           TRUE

    Exchange Hybrid     =           TRUE
    MP2 Hybrid          =          FALSE

   => Exchange Functionals <=

    1.0000   XC_HYB_MGGA_X_M11 [omega = 0.2500]

   => Exact (HF) Exchange <=

    0.5720            HF,LR [omega = 0.2500]
    0.4280               HF 

   => Correlation Functionals <=

    1.0000    XC_MGGA_C_M11

   => Molecular Quadrature <=

    Radial Scheme          =       TREUTLER
    Pruning Scheme         =           FLAT
    Nuclear Scheme         =       TREUTLER

    BS radius alpha        =              1
    Pruning alpha          =              1
    Radial Points          =             75
    Spherical Points       =            302
    Total Points           =          45039
    Total Blocks           =            422
    Max Points             =            256
    Max Functions          =             73


  -Total Gradient:
     Atom            X                  Y                   Z
    ------   -----------------  -----------------  -----------------
       1        0.000000000000     0.000000000000    -0.111716335031
       2        0.000000000000     0.000000000000     0.111191118904


*** tstop() called on bp1-compute00145.data.bp.acrc.priv at Fri Oct 29 08:26:24 2021
Module time:
	user time   =      33.80 seconds =       0.56 minutes
	system time =       2.47 seconds =       0.04 minutes
	total time  =          4 seconds =       0.07 minutes
Total time:
	user time   =     429.26 seconds =       7.15 minutes
	system time =      27.70 seconds =       0.46 minutes
	total time  =         41 seconds =       0.68 minutes


  ==> Adding ECP gradient terms (computed numerically) <==

  -ECP Gradient:
     Atom            X                  Y                   Z
    ------   -----------------  -----------------  -----------------
       1        0.000000000000     0.000000000000     0.107723815110
       2        0.000000000000     0.000000000000    -0.107723815092


  -Total Gradient:
     Atom            X                  Y                   Z
    ------   -----------------  -----------------  -----------------
       1        0.000000000000     0.000000000000    -0.003992519921
       2        0.000000000000     0.000000000000     0.003467303812


			-----------------------------------------
			 OPTKING 2.0: for geometry optimizations 
			  - R.A. King,  Bethel University        
			-----------------------------------------
	At level 1: Red. Int., RFO, no backsteps, dynamic trust

	Previous internal coordinate definitions found.
	---Fragment 1 Geometry and Gradient---
	 AG          0.0000000000        0.0000000000        0.0284386784
	 H           0.0000000000        0.0000000000       -3.0166342612
	             0.0000000000        0.0000000000       -0.0039925199
	             0.0000000000        0.0000000000        0.0034673038

	---Fragment 1 Intrafragment Coordinates---
	 - Coordinate -           - BOHR/RAD -       - ANG/DEG -
	 R(1,2)           =         3.045073	       1.611383

	Current energy   :      -147.4164757552

	Energy change for the previous step:
		Projected    :        -0.0000062548
		Actual       :        -0.0000075980
	Energy ratio indicates good step: Trust radius increased to 1.000e+00.


	Performing BFGS update.
	Previous computed or guess Hessian on step 1.
	Steps to be used in Hessian update: 1
	Taking RFO optimization step.
	Going to follow RFO solution 1.
	Using RFO vector 1.
	Norm of target step-size    0.00428
	Projected energy change by RFO approximation:        -0.0000068040

	Back-transformation to cartesian coordinates...
	Successfully converged to displaced geometry.

	--- Internal Coordinate Step in ANG or DEG, aJ/ANG or AJ/DEG ---
	 ---------------------------------------------------------------------------
	   Coordinate                Previous        Force       Change         New 
	   ----------                --------       ------       ------       ------
	    1 R(1,2)          =      1.611383     0.030730     0.002266     1.613649
	 ---------------------------------------------------------------------------
	Successfully symmetrized geometry.

  ==> Convergence Check <==

  Measures of convergence in internal coordinates in au.
  Criteria marked as inactive (o), active & met (*), and active & unmet ( ).
  ---------------------------------------------------------------------------------------------
   Step     Total Energy     Delta E     MAX Force     RMS Force      MAX Disp      RMS Disp   
  ---------------------------------------------------------------------------------------------
    Convergence Criteria    1.00e-06 *    3.00e-04 *             o    1.20e-03 *             o
  ---------------------------------------------------------------------------------------------
      2    -147.41647576   -7.60e-06      3.73e-03      3.73e-03 o    4.28e-03      4.28e-03 o  ~
  ---------------------------------------------------------------------------------------------

	Writing optimization data to binary file.
	Structure for next step:
	Cartesian Geometry (in Angstrom)
	   AG     0.0000000000   0.0000000000   0.0161818816
	    H     0.0000000000   0.0000000000  -1.5974668788
			--------------------------
			 OPTKING Finished Execution 
			--------------------------

    Structure for next step:
    Molecular point group: c2v
    Full point group: C_inf_v

    Geometry (in Angstrom), charge = 0, multiplicity = 1:

    AG           0.000000000000     0.000000000000     0.015070259160
    H            0.000000000000     0.000000000000    -1.598578507571

gradient() will perform analytic gradient computation.

*** tstart() called on bp1-compute00145.data.bp.acrc.priv
*** at Fri Oct 29 08:26:50 2021

   => Loading Basis Set <=

    Name: DEF2-TZVPPD
    Role: ORBITAL
    Keyword: BASIS
    atoms 1 entry AG         line  2174 (ECP: line  3646) file /work/zw18965/.conda/envs/p4env/share/psi4/basis/def2-tzvppd.gbs 
    atoms 2 entry H          line    14 file /work/zw18965/.conda/envs/p4env/share/psi4/basis/def2-tzvppd.gbs 

    !!!  WARNING: ECP capability is in beta. Please check occupations closely.  !!!


         ---------------------------------------------------------
                                   SCF
               by Justin Turney, Rob Parrish, Andy Simmonett
                          and Daniel G. A. Smith
                              RKS Reference
                       24 Threads, 137329 MiB Core
         ---------------------------------------------------------

  ==> Geometry <==

    Molecular point group: c2v
    Full point group: C_inf_v

    Geometry (in Angstrom), charge = 0, multiplicity = 1:

       Center              X                  Y                   Z               Mass       
    ------------   -----------------  -----------------  -----------------  -----------------
         AG           0.000000000000     0.000000000000     0.015070259160   106.905091600000
         H            0.000000000000     0.000000000000    -1.598578507571     1.007825032230

  Running in c2v symmetry.

  Rotational constants: A = ************  B =      6.48438  C =      6.48438 [cm^-1]
  Rotational constants: A = ************  B = 194396.78500  C = 194396.78500 [MHz]
  Nuclear repulsion =    6.230827432849745

  Charge       = 0
  Multiplicity = 1
  Electrons    = 20
  Nalpha       = 10
  Nbeta        = 10

  ==> Algorithm <==

  SCF Algorithm Type is DF.
  DIIS enabled.
  MOM disabled.
  Fractional occupation disabled.
  Guess Type is READ.
  Energy threshold   = 1.00e-08
  Density threshold  = 1.00e-08
  Integral threshold = 0.00e+00

  ==> Primary Basis <==

  Basis Set: DEF2-TZVPPD
    Blend: DEF2-TZVPPD
    Number of shells: 23
    Number of basis function: 73
    Number of Cartesian functions: 89
    Spherical Harmonics?: true
    Max angular momentum: 4

  Core potential: DEF2-TZVPPD
    Number of shells: 4
    Number of ECP primitives: 14
    Number of ECP core electrons: 28
    Max angular momentum: 3

  ==> DFT Potential <==

   => Composite Functional: M11-D3BJ <= 

    M11 Meta-GGA XC Functional

    R. Peverati and D. G. Truhlar, J. Phys. Chem. Lett., 2, 2810, 2011


    Deriv               =              1
    GGA                 =           TRUE
    Meta                =           TRUE

    Exchange Hybrid     =           TRUE
    MP2 Hybrid          =          FALSE

   => Exchange Functionals <=

    1.0000   XC_HYB_MGGA_X_M11 [omega = 0.2500]

   => Exact (HF) Exchange <=

    0.5720            HF,LR [omega = 0.2500]
    0.4280               HF 

   => Correlation Functionals <=

    1.0000    XC_MGGA_C_M11

   => Molecular Quadrature <=

    Radial Scheme          =       TREUTLER
    Pruning Scheme         =           FLAT
    Nuclear Scheme         =       TREUTLER

    BS radius alpha        =              1
    Pruning alpha          =              1
    Radial Points          =             75
    Spherical Points       =            302
    Total Points           =          45039
    Total Blocks           =            423
    Max Points             =            256
    Max Functions          =             73

   => M11-D3(BJ): Empirical Dispersion <=

    Grimme's -D3 (BJ-damping) Dispersion Correction
    Grimme S.; Ehrlich S.; Goerigk L. (2011), J. Comput. Chem., 32: 1456
    Parametrisation from:    L. Goerigk, J. Phys. Chem. Lett. 6, 3891-3896, 2015

        s6 =       1.000000
        s8 =       2.811200
        a1 =       0.000000
        a2 =      10.138900

   => Loading Basis Set <=

    Name: (DEF2-TZVPPD AUX)
    Role: JKFIT
    Keyword: DF_BASIS_SCF
    atoms 1 entry AG         line  4369 file /work/zw18965/.conda/envs/p4env/share/psi4/basis/def2-tzvpp-jkfit.gbs 
    atoms 2 entry H          line    23 file /work/zw18965/.conda/envs/p4env/share/psi4/basis/def2-tzvpp-jkfit.gbs 

   => Loading Basis Set <=

    Name: DEF2-TZVPPD
    Role: ORBITAL
    Keyword: BASIS
    atoms 1 entry AG         line  2174 (ECP: line  3646) file /work/zw18965/.conda/envs/p4env/share/psi4/basis/def2-tzvppd.gbs 
    atoms 2 entry H          line    14 file /work/zw18965/.conda/envs/p4env/share/psi4/basis/def2-tzvppd.gbs 

    !!!  WARNING: ECP capability is in beta. Please check occupations closely.  !!!

  Reading orbitals from file 180, no projection.

  ==> Pre-Iterations <==

   -------------------------------------------------------
    Irrep   Nso     Nmo     Nalpha   Nbeta   Ndocc  Nsocc
   -------------------------------------------------------
     A1        31      31       0       0       0       0
     A2         8       8       0       0       0       0
     B1        17      17       0       0       0       0
     B2        17      17       0       0       0       0
   -------------------------------------------------------
    Total      73      73      10      10      10       0
   -------------------------------------------------------

  ==> Integral Setup <==

  ==> DiskDFJK: Density-Fitted J/K Matrices <==

    J tasked:                  Yes
    K tasked:                  Yes
    wK tasked:                 Yes
    Omega:               2.500E-01
    OpenMP threads:             24
    Integrals threads:          24
    Memory [MiB]:           102775
    Algorithm:                Core
    Integral Cache:           NONE
    Schwarz Cutoff:          1E-12
    Fitting Condition:       1E-10

   => Auxiliary Basis Set <=

  Basis Set: (DEF2-TZVPPD AUX)
    Blend: DEF2-TZVPP-JKFIT
    Number of shells: 55
    Number of basis function: 273
    Number of Cartesian functions: 404
    Spherical Harmonics?: true
    Max angular momentum: 6

  Cached 100.0% of DFT collocation blocks in 0.216 [GiB].

  Minimum eigenvalue in the overlap matrix is 3.3600714575E-03.
  Using Symmetric Orthogonalization.

  SCF Guess: Orbitals guess was supplied from a previous computation.

  ==> Iterations <==

                           Total Energy        Delta E     RMS |[F,P]|

   @DF-RKS iter   0:  -147.41609284503127   -1.47416e+02   7.74847e-05 
   @DF-RKS iter   1:  -147.41648915089664   -3.96306e-04   1.07146e-05 DIIS
   @DF-RKS iter   2:  -147.41648922619763   -7.53010e-08   7.52788e-06 DIIS
   @DF-RKS iter   3:  -147.41648925696944   -3.07718e-08   1.73566e-06 DIIS
   @DF-RKS iter   4:  -147.41648926307531   -6.10586e-09   8.79155e-07 DIIS
   @DF-RKS iter   5:  -147.41648926548817   -2.41286e-09   5.69224e-07 DIIS
   @DF-RKS iter   6:  -147.41648926639647   -9.08301e-10   1.26638e-07 DIIS
   @DF-RKS iter   7:  -147.41648926647682   -8.03482e-11   3.68000e-08 DIIS
   @DF-RKS iter   8:  -147.41648926648276   -5.94014e-12   6.89624e-09 DIIS
  Energy and wave function converged.


  ==> Post-Iterations <==

    Orbital Energies [Eh]
    ---------------------

    Doubly Occupied:                                                      

       1A1    -3.883283     2A1    -2.481429     1B2    -2.472420  
       1B1    -2.472420     3A1    -0.502163     2B2    -0.464018  
       2B1    -0.464018     4A1    -0.456996     1A2    -0.456989  
       5A1    -0.330005  

    Virtual:                                                              

       6A1    -0.023016     3B1     0.030362     3B2     0.030362  
       7A1     0.086796     8A1     0.126822     4B2     0.217847  
       4B1     0.217847     9A1     0.241353     5B1     0.291529  
       5B2     0.291529    10A1     0.451608    11A1     0.500840  
       2A2     0.500842    12A1     0.528546     6B1     0.594211  
       6B2     0.594211    13A1     0.662310     7B1     0.960908  
       7B2     0.960908    14A1     1.144980     8B1     1.685044  
       8B2     1.685044    15A1     1.695211     3A2     1.695226  
       9B2     1.703256     9B1     1.703256    16A1     1.753560  
      10B1     1.768127    10B2     1.768127    17A1     1.937569  
      18A1     2.111689    19A1     2.143188     4A2     2.143218  
      11B2     2.206479    11B1     2.206479    20A1     2.324379  
      21A1     2.738861    22A1     3.321825     5A2     3.321868  
      12B1     3.519376    12B2     3.519376    13B2     3.891641  
      13B1     3.891641    23A1     4.036793    24A1     4.578130  
      14B2     4.880059    14B1     4.880059     6A2     4.895443  
      25A1     4.895453    15B1     5.071832    15B2     5.071832  
      26A1     5.279121    16B2     5.651625    16B1     5.651625  
      27A1     5.652979     7A2     5.653013    28A1     5.654675  
       8A2     5.654797    17B1     5.782140    17B2     5.782140  
      29A1     6.212772    30A1    33.501678    31A1   110.551641  

    Final Occupation by Irrep:
             A1    A2    B1    B2 
    DOCC [     5,    1,    2,    2 ]

  @DF-RKS Final Energy:  -147.41648926648276

   => Energetics <=

    Nuclear Repulsion Energy =              6.2308274328497451
    One-Electron Energy =                -273.9369956742551153
    Two-Electron Energy =                 127.2879097986134695
    DFT Exchange-Correlation Energy =      -6.9981811436908687
    Empirical Dispersion Energy =          -0.0000496800000000
    VV10 Nonlocal Energy =                  0.0000000000000000
    Total Energy =                       -147.4164892664827278

Computation Completed


Properties will be evaluated at   0.000000,   0.000000,   0.000000 [a0]

Properties computed using the SCF density matrix

  Nuclear Dipole Moment: [e a0]
     X:     0.0000      Y:     0.0000      Z:    -2.4798

  Electronic Dipole Moment: [e a0]
     X:     0.0000      Y:     0.0000      Z:     3.8459

  Dipole Moment: [e a0]
     X:     0.0000      Y:     0.0000      Z:     1.3661     Total:     1.3661

  Dipole Moment: [D]
     X:     0.0000      Y:     0.0000      Z:     3.4723     Total:     3.4723


*** tstop() called on bp1-compute00145.data.bp.acrc.priv at Fri Oct 29 08:26:53 2021
Module time:
	user time   =      48.42 seconds =       0.81 minutes
	system time =       2.36 seconds =       0.04 minutes
	total time  =          3 seconds =       0.05 minutes
Total time:
	user time   =     720.26 seconds =      12.00 minutes
	system time =      41.57 seconds =       0.69 minutes
	total time  =         70 seconds =       1.17 minutes

*** tstart() called on bp1-compute00145.data.bp.acrc.priv
*** at Fri Oct 29 08:26:53 2021


         ------------------------------------------------------------
                                   SCF GRAD                          
                          Rob Parrish, Justin Turney,                
                       Andy Simmonett, and Alex Sokolov              
         ------------------------------------------------------------

  ==> Geometry <==

    Molecular point group: c2v
    Full point group: C_inf_v

    Geometry (in Angstrom), charge = 0, multiplicity = 1:

       Center              X                  Y                   Z               Mass       
    ------------   -----------------  -----------------  -----------------  -----------------
         AG           0.000000000000     0.000000000000     0.015070259160   106.905091600000
         H            0.000000000000     0.000000000000    -1.598578507571     1.007825032230

  Nuclear repulsion =    6.230827432849745

  ==> Basis Set <==

  Basis Set: DEF2-TZVPPD
    Blend: DEF2-TZVPPD
    Number of shells: 23
    Number of basis function: 73
    Number of Cartesian functions: 89
    Spherical Harmonics?: true
    Max angular momentum: 4

  Core potential: DEF2-TZVPPD
    Number of shells: 4
    Number of ECP primitives: 14
    Number of ECP core electrons: 28
    Max angular momentum: 3

  ==> DFJKGrad: Density-Fitted SCF Gradients <==

    Gradient:                    1
    J tasked:                  Yes
    K tasked:                  Yes
    wK tasked:                 Yes
    Omega:               2.500E-01
    OpenMP threads:             24
    Integrals threads:          24
    Memory [MiB]:           102996
    Schwarz Cutoff:          0E+00
    Fitting Condition:       1E-10

   => Auxiliary Basis Set <=

  Basis Set: (DEF2-TZVPPD AUX)
    Blend: DEF2-TZVPP-JKFIT
    Number of shells: 55
    Number of basis function: 273
    Number of Cartesian functions: 404
    Spherical Harmonics?: true
    Max angular momentum: 6

  ==> DFT Potential <==

   => Composite Functional: M11-D3BJ <= 

    M11 Meta-GGA XC Functional

    R. Peverati and D. G. Truhlar, J. Phys. Chem. Lett., 2, 2810, 2011


    Deriv               =              1
    GGA                 =           TRUE
    Meta                =           TRUE

    Exchange Hybrid     =           TRUE
    MP2 Hybrid          =          FALSE

   => Exchange Functionals <=

    1.0000   XC_HYB_MGGA_X_M11 [omega = 0.2500]

   => Exact (HF) Exchange <=

    0.5720            HF,LR [omega = 0.2500]
    0.4280               HF 

   => Correlation Functionals <=

    1.0000    XC_MGGA_C_M11

   => Molecular Quadrature <=

    Radial Scheme          =       TREUTLER
    Pruning Scheme         =           FLAT
    Nuclear Scheme         =       TREUTLER

    BS radius alpha        =              1
    Pruning alpha          =              1
    Radial Points          =             75
    Spherical Points       =            302
    Total Points           =          45039
    Total Blocks           =            423
    Max Points             =            256
    Max Functions          =             73


  -Total Gradient:
     Atom            X                  Y                   Z
    ------   -----------------  -----------------  -----------------
       1        0.000000000000     0.000000000000    -0.111096428826
       2        0.000000000000     0.000000000000     0.110570105408


*** tstop() called on bp1-compute00145.data.bp.acrc.priv at Fri Oct 29 08:26:57 2021
Module time:
	user time   =      33.59 seconds =       0.56 minutes
	system time =       2.31 seconds =       0.04 minutes
	total time  =          4 seconds =       0.07 minutes
Total time:
	user time   =     755.31 seconds =      12.59 minutes
	system time =      43.96 seconds =       0.73 minutes
	total time  =         74 seconds =       1.23 minutes


  ==> Adding ECP gradient terms (computed numerically) <==

  -ECP Gradient:
     Atom            X                  Y                   Z
    ------   -----------------  -----------------  -----------------
       1       -0.000000000000     0.000000000000     0.107633937318
       2       -0.000000000000     0.000000000000    -0.107633937316


  -Total Gradient:
     Atom            X                  Y                   Z
    ------   -----------------  -----------------  -----------------
       1       -0.000000000000     0.000000000000    -0.003462491508
       2       -0.000000000000     0.000000000000     0.002936168092


			-----------------------------------------
			 OPTKING 2.0: for geometry optimizations 
			  - R.A. King,  Bethel University        
			-----------------------------------------
	At level 1: Red. Int., RFO, no backsteps, dynamic trust

	Previous internal coordinate definitions found.
	---Fragment 1 Geometry and Gradient---
	 AG          0.0000000000        0.0000000000        0.0284786625
	 H           0.0000000000        0.0000000000       -3.0208755694
	            -0.0000000000        0.0000000000       -0.0034624915
	            -0.0000000000        0.0000000000        0.0029361681

	---Fragment 1 Intrafragment Coordinates---
	 - Coordinate -           - BOHR/RAD -       - ANG/DEG -
	 R(1,2)           =         3.049354	       1.613649

	Current energy   :      -147.4164892665

	Energy change for the previous step:
		Projected    :        -0.0000068040
		Actual       :        -0.0000135113

	Performing BFGS update.
	Previous computed or guess Hessian on step 1.
	Steps to be used in Hessian update: 2 1
	Taking RFO optimization step.
	Going to follow RFO solution 1.
	Using RFO vector 1.
	Norm of target step-size    0.02574
	Projected energy change by RFO approximation:         0.0002487076

	Back-transformation to cartesian coordinates...
	Successfully converged to displaced geometry.

	--- Internal Coordinate Step in ANG or DEG, aJ/ANG or AJ/DEG ---
	 ---------------------------------------------------------------------------
	   Coordinate                Previous        Force       Change         New 
	   ----------                --------       ------       ------       ------
	    1 R(1,2)          =      1.613649     0.026358     0.013620     1.627269
	 ---------------------------------------------------------------------------
	Successfully symmetrized geometry.

  ==> Convergence Check <==

  Measures of convergence in internal coordinates in au.
  Criteria marked as inactive (o), active & met (*), and active & unmet ( ).
  ---------------------------------------------------------------------------------------------
   Step     Total Energy     Delta E     MAX Force     RMS Force      MAX Disp      RMS Disp   
  ---------------------------------------------------------------------------------------------
    Convergence Criteria    1.00e-06 *    3.00e-04 *             o    1.20e-03 *             o
  ---------------------------------------------------------------------------------------------
      3    -147.41648927   -1.35e-05      3.20e-03      3.20e-03 o    2.57e-02      2.57e-02 o  ~
  ---------------------------------------------------------------------------------------------

	Writing optimization data to binary file.
	Structure for next step:
	Cartesian Geometry (in Angstrom)
	   AG     0.0000000000   0.0000000000   0.0218801749
	    H     0.0000000000   0.0000000000  -1.6053884171
			--------------------------
			 OPTKING Finished Execution 
			--------------------------

    Structure for next step:
    Molecular point group: c2v
    Full point group: C_inf_v

    Geometry (in Angstrom), charge = 0, multiplicity = 1:

    AG           0.000000000000     0.000000000000     0.015197458087
    H            0.000000000000     0.000000000000    -1.612071140232

gradient() will perform analytic gradient computation.

*** tstart() called on bp1-compute00145.data.bp.acrc.priv
*** at Fri Oct 29 08:27:21 2021

   => Loading Basis Set <=

    Name: DEF2-TZVPPD
    Role: ORBITAL
    Keyword: BASIS
    atoms 1 entry AG         line  2174 (ECP: line  3646) file /work/zw18965/.conda/envs/p4env/share/psi4/basis/def2-tzvppd.gbs 
    atoms 2 entry H          line    14 file /work/zw18965/.conda/envs/p4env/share/psi4/basis/def2-tzvppd.gbs 

    !!!  WARNING: ECP capability is in beta. Please check occupations closely.  !!!


         ---------------------------------------------------------
                                   SCF
               by Justin Turney, Rob Parrish, Andy Simmonett
                          and Daniel G. A. Smith
                              RKS Reference
                       24 Threads, 137329 MiB Core
         ---------------------------------------------------------

  ==> Geometry <==

    Molecular point group: c2v
    Full point group: C_inf_v

    Geometry (in Angstrom), charge = 0, multiplicity = 1:

       Center              X                  Y                   Z               Mass       
    ------------   -----------------  -----------------  -----------------  -----------------
         AG           0.000000000000     0.000000000000     0.015197458087   106.905091600000
         H            0.000000000000     0.000000000000    -1.612071140232     1.007825032230

  Running in c2v symmetry.

  Rotational constants: A = ************  B =      6.37629  C =      6.37629 [cm^-1]
  Rotational constants: A = ************  B = 191156.29798  C = 191156.29798 [MHz]
  Nuclear repulsion =    6.178676964033261

  Charge       = 0
  Multiplicity = 1
  Electrons    = 20
  Nalpha       = 10
  Nbeta        = 10

  ==> Algorithm <==

  SCF Algorithm Type is DF.
  DIIS enabled.
  MOM disabled.
  Fractional occupation disabled.
  Guess Type is READ.
  Energy threshold   = 1.00e-08
  Density threshold  = 1.00e-08
  Integral threshold = 0.00e+00

  ==> Primary Basis <==

  Basis Set: DEF2-TZVPPD
    Blend: DEF2-TZVPPD
    Number of shells: 23
    Number of basis function: 73
    Number of Cartesian functions: 89
    Spherical Harmonics?: true
    Max angular momentum: 4

  Core potential: DEF2-TZVPPD
    Number of shells: 4
    Number of ECP primitives: 14
    Number of ECP core electrons: 28
    Max angular momentum: 3

  ==> DFT Potential <==

   => Composite Functional: M11-D3BJ <= 

    M11 Meta-GGA XC Functional

    R. Peverati and D. G. Truhlar, J. Phys. Chem. Lett., 2, 2810, 2011


    Deriv               =              1
    GGA                 =           TRUE
    Meta                =           TRUE

    Exchange Hybrid     =           TRUE
    MP2 Hybrid          =          FALSE

   => Exchange Functionals <=

    1.0000   XC_HYB_MGGA_X_M11 [omega = 0.2500]

   => Exact (HF) Exchange <=

    0.5720            HF,LR [omega = 0.2500]
    0.4280               HF 

   => Correlation Functionals <=

    1.0000    XC_MGGA_C_M11

   => Molecular Quadrature <=

    Radial Scheme          =       TREUTLER
    Pruning Scheme         =           FLAT
    Nuclear Scheme         =       TREUTLER

    BS radius alpha        =              1
    Pruning alpha          =              1
    Radial Points          =             75
    Spherical Points       =            302
    Total Points           =          45039
    Total Blocks           =            422
    Max Points             =            256
    Max Functions          =             73

   => M11-D3(BJ): Empirical Dispersion <=

    Grimme's -D3 (BJ-damping) Dispersion Correction
    Grimme S.; Ehrlich S.; Goerigk L. (2011), J. Comput. Chem., 32: 1456
    Parametrisation from:    L. Goerigk, J. Phys. Chem. Lett. 6, 3891-3896, 2015

        s6 =       1.000000
        s8 =       2.811200
        a1 =       0.000000
        a2 =      10.138900

   => Loading Basis Set <=

    Name: (DEF2-TZVPPD AUX)
    Role: JKFIT
    Keyword: DF_BASIS_SCF
    atoms 1 entry AG         line  4369 file /work/zw18965/.conda/envs/p4env/share/psi4/basis/def2-tzvpp-jkfit.gbs 
    atoms 2 entry H          line    23 file /work/zw18965/.conda/envs/p4env/share/psi4/basis/def2-tzvpp-jkfit.gbs 

   => Loading Basis Set <=

    Name: DEF2-TZVPPD
    Role: ORBITAL
    Keyword: BASIS
    atoms 1 entry AG         line  2174 (ECP: line  3646) file /work/zw18965/.conda/envs/p4env/share/psi4/basis/def2-tzvppd.gbs 
    atoms 2 entry H          line    14 file /work/zw18965/.conda/envs/p4env/share/psi4/basis/def2-tzvppd.gbs 

    !!!  WARNING: ECP capability is in beta. Please check occupations closely.  !!!

  Reading orbitals from file 180, no projection.

  ==> Pre-Iterations <==

   -------------------------------------------------------
    Irrep   Nso     Nmo     Nalpha   Nbeta   Ndocc  Nsocc
   -------------------------------------------------------
     A1        31      31       0       0       0       0
     A2         8       8       0       0       0       0
     B1        17      17       0       0       0       0
     B2        17      17       0       0       0       0
   -------------------------------------------------------
    Total      73      73      10      10      10       0
   -------------------------------------------------------

  ==> Integral Setup <==

  ==> DiskDFJK: Density-Fitted J/K Matrices <==

    J tasked:                  Yes
    K tasked:                  Yes
    wK tasked:                 Yes
    Omega:               2.500E-01
    OpenMP threads:             24
    Integrals threads:          24
    Memory [MiB]:           102775
    Algorithm:                Core
    Integral Cache:           NONE
    Schwarz Cutoff:          1E-12
    Fitting Condition:       1E-10

   => Auxiliary Basis Set <=

  Basis Set: (DEF2-TZVPPD AUX)
    Blend: DEF2-TZVPP-JKFIT
    Number of shells: 55
    Number of basis function: 273
    Number of Cartesian functions: 404
    Spherical Harmonics?: true
    Max angular momentum: 6

  Cached 100.0% of DFT collocation blocks in 0.216 [GiB].

  Minimum eigenvalue in the overlap matrix is 3.5399982157E-03.
  Using Symmetric Orthogonalization.

  SCF Guess: Orbitals guess was supplied from a previous computation.

  ==> Iterations <==

                           Total Energy        Delta E     RMS |[F,P]|

   @DF-RKS iter   0:  -147.41417855055880   -1.47414e+02   4.58824e-04 
   @DF-RKS iter   1:  -147.41651955529591   -2.34100e-03   6.40355e-05 DIIS
   @DF-RKS iter   2:  -147.41652226325260   -2.70796e-06   4.48698e-05 DIIS
   @DF-RKS iter   3:  -147.41652335631139   -1.09306e-06   1.02979e-05 DIIS
   @DF-RKS iter   4:  -147.41652357158625   -2.15275e-07   5.20678e-06 DIIS
   @DF-RKS iter   5:  -147.41652365703661   -8.54504e-08   3.39051e-06 DIIS
   @DF-RKS iter   6:  -147.41652368893617   -3.18996e-08   7.56063e-07 DIIS
   @DF-RKS iter   7:  -147.41652369181122   -2.87505e-09   2.19198e-07 DIIS
   @DF-RKS iter   8:  -147.41652369202066   -2.09440e-10   4.10299e-08 DIIS
   @DF-RKS iter   9:  -147.41652369202737   -6.70752e-12   1.14291e-08 DIIS
   @DF-RKS iter  10:  -147.41652369202757   -1.98952e-13   1.43343e-09 DIIS
  Energy and wave function converged.


  ==> Post-Iterations <==

    Orbital Energies [Eh]
    ---------------------

    Doubly Occupied:                                                      

       1A1    -3.882901     2A1    -2.480807     1B1    -2.472200  
       1B2    -2.472200     3A1    -0.500222     2B2    -0.463577  
       2B1    -0.463577     4A1    -0.456921     1A2    -0.456913  
       5A1    -0.329947  

    Virtual:                                                              

       6A1    -0.023422     3B1     0.030269     3B2     0.030269  
       7A1     0.087025     8A1     0.126051     4B1     0.217986  
       4B2     0.217986     9A1     0.241095     5B1     0.291083  
       5B2     0.291083    10A1     0.450168    11A1     0.500679  
       2A2     0.500681    12A1     0.528806     6B1     0.593489  
       6B2     0.593489    13A1     0.660919     7B2     0.961685  
       7B1     0.961685    14A1     1.142785     8B1     1.684659  
       8B2     1.684659    15A1     1.695615     3A2     1.695632  
       9B2     1.703061     9B1     1.703061    16A1     1.753338  
      10B2     1.765361    10B1     1.765361    17A1     1.932075  
      18A1     2.116399    19A1     2.143128     4A2     2.143155  
      11B2     2.205147    11B1     2.205147    20A1     2.312836  
      21A1     2.740915    22A1     3.321991     5A2     3.322052  
      12B2     3.510158    12B1     3.510158    13B1     3.889064  
      13B2     3.889064    23A1     4.026393    24A1     4.554658  
      14B2     4.880100    14B1     4.880100     6A2     4.894495  
      25A1     4.894526    15B2     5.067606    15B1     5.067606  
      26A1     5.280992    16B1     5.651649    16B2     5.651649  
      27A1     5.652898     7A2     5.652903    28A1     5.654107  
       8A2     5.654224    17B1     5.770427    17B2     5.770427  
      29A1     6.185153    30A1    33.488116    31A1   110.547851  

    Final Occupation by Irrep:
             A1    A2    B1    B2 
    DOCC [     5,    1,    2,    2 ]

  @DF-RKS Final Energy:  -147.41652369202757

   => Energetics <=

    Nuclear Repulsion Energy =              6.1786769640332606
    One-Electron Energy =                -273.8417503103631816
    Two-Electron Energy =                 127.2440068718458974
    DFT Exchange-Correlation Energy =      -6.9974074975435734
    Empirical Dispersion Energy =          -0.0000497200000000
    VV10 Nonlocal Energy =                  0.0000000000000000
    Total Energy =                       -147.4165236920275674

Computation Completed


Properties will be evaluated at   0.000000,   0.000000,   0.000000 [a0]

Properties computed using the SCF density matrix

  Nuclear Dipole Moment: [e a0]
     X:     0.0000      Y:     0.0000      Z:    -2.5007

  Electronic Dipole Moment: [e a0]
     X:     0.0000      Y:     0.0000      Z:     3.8761

  Dipole Moment: [e a0]
     X:     0.0000      Y:     0.0000      Z:     1.3754     Total:     1.3754

  Dipole Moment: [D]
     X:     0.0000      Y:     0.0000      Z:     3.4959     Total:     3.4959


*** tstop() called on bp1-compute00145.data.bp.acrc.priv at Fri Oct 29 08:27:24 2021
Module time:
	user time   =      50.03 seconds =       0.83 minutes
	system time =       2.29 seconds =       0.04 minutes
	total time  =          3 seconds =       0.05 minutes
Total time:
	user time   =    1046.52 seconds =      17.44 minutes
	system time =      56.84 seconds =       0.95 minutes
	total time  =        101 seconds =       1.68 minutes

*** tstart() called on bp1-compute00145.data.bp.acrc.priv
*** at Fri Oct 29 08:27:25 2021


         ------------------------------------------------------------
                                   SCF GRAD                          
                          Rob Parrish, Justin Turney,                
                       Andy Simmonett, and Alex Sokolov              
         ------------------------------------------------------------

  ==> Geometry <==

    Molecular point group: c2v
    Full point group: C_inf_v

    Geometry (in Angstrom), charge = 0, multiplicity = 1:

       Center              X                  Y                   Z               Mass       
    ------------   -----------------  -----------------  -----------------  -----------------
         AG           0.000000000000     0.000000000000     0.015197458087   106.905091600000
         H            0.000000000000     0.000000000000    -1.612071140232     1.007825032230

  Nuclear repulsion =    6.178676964033261

  ==> Basis Set <==

  Basis Set: DEF2-TZVPPD
    Blend: DEF2-TZVPPD
    Number of shells: 23
    Number of basis function: 73
    Number of Cartesian functions: 89
    Spherical Harmonics?: true
    Max angular momentum: 4

  Core potential: DEF2-TZVPPD
    Number of shells: 4
    Number of ECP primitives: 14
    Number of ECP core electrons: 28
    Max angular momentum: 3

  ==> DFJKGrad: Density-Fitted SCF Gradients <==

    Gradient:                    1
    J tasked:                  Yes
    K tasked:                  Yes
    wK tasked:                 Yes
    Omega:               2.500E-01
    OpenMP threads:             24
    Integrals threads:          24
    Memory [MiB]:           102996
    Schwarz Cutoff:          0E+00
    Fitting Condition:       1E-10

   => Auxiliary Basis Set <=

  Basis Set: (DEF2-TZVPPD AUX)
    Blend: DEF2-TZVPP-JKFIT
    Number of shells: 55
    Number of basis function: 273
    Number of Cartesian functions: 404
    Spherical Harmonics?: true
    Max angular momentum: 6

  ==> DFT Potential <==

   => Composite Functional: M11-D3BJ <= 

    M11 Meta-GGA XC Functional

    R. Peverati and D. G. Truhlar, J. Phys. Chem. Lett., 2, 2810, 2011


    Deriv               =              1
    GGA                 =           TRUE
    Meta                =           TRUE

    Exchange Hybrid     =           TRUE
    MP2 Hybrid          =          FALSE

   => Exchange Functionals <=

    1.0000   XC_HYB_MGGA_X_M11 [omega = 0.2500]

   => Exact (HF) Exchange <=

    0.5720            HF,LR [omega = 0.2500]
    0.4280               HF 

   => Correlation Functionals <=

    1.0000    XC_MGGA_C_M11

   => Molecular Quadrature <=

    Radial Scheme          =       TREUTLER
    Pruning Scheme         =           FLAT
    Nuclear Scheme         =       TREUTLER

    BS radius alpha        =              1
    Pruning alpha          =              1
    Radial Points          =             75
    Spherical Points       =            302
    Total Points           =          45039
    Total Blocks           =            422
    Max Points             =            256
    Max Functions          =             73


  -Total Gradient:
     Atom            X                  Y                   Z
    ------   -----------------  -----------------  -----------------
       1        0.000000000000     0.000000000000    -0.107385893403
       2        0.000000000000     0.000000000000     0.106853302233


*** tstop() called on bp1-compute00145.data.bp.acrc.priv at Fri Oct 29 08:27:29 2021
Module time:
	user time   =      33.73 seconds =       0.56 minutes
	system time =       2.33 seconds =       0.04 minutes
	total time  =          4 seconds =       0.07 minutes
Total time:
	user time   =    1081.89 seconds =      18.03 minutes
	system time =      59.27 seconds =       0.99 minutes
	total time  =        106 seconds =       1.77 minutes


  ==> Adding ECP gradient terms (computed numerically) <==

  -ECP Gradient:
     Atom            X                  Y                   Z
    ------   -----------------  -----------------  -----------------
       1        0.000000000000     0.000000000000     0.107006406243
       2        0.000000000000     0.000000000000    -0.107006406251


  -Total Gradient:
     Atom            X                  Y                   Z
    ------   -----------------  -----------------  -----------------
       1        0.000000000000     0.000000000000    -0.000379487160
       2        0.000000000000     0.000000000000    -0.000153104019


			-----------------------------------------
			 OPTKING 2.0: for geometry optimizations 
			  - R.A. King,  Bethel University        
			-----------------------------------------
	At level 1: Red. Int., RFO, no backsteps, dynamic trust

	Previous internal coordinate definitions found.
	---Fragment 1 Geometry and Gradient---
	 AG          0.0000000000        0.0000000000        0.0287190336
	 H           0.0000000000        0.0000000000       -3.0463729498
	             0.0000000000        0.0000000000       -0.0003794872
	             0.0000000000        0.0000000000       -0.0001531040

	---Fragment 1 Intrafragment Coordinates---
	 - Coordinate -           - BOHR/RAD -       - ANG/DEG -
	 R(1,2)           =         3.075092	       1.627269

	Current energy   :      -147.4165236920

	Energy change for the previous step:
		Projected    :         0.0002487076
		Actual       :        -0.0000344255

	Performing BFGS update.
	Previous computed or guess Hessian on step 1.
	Steps to be used in Hessian update: 3 2
	Taking RFO optimization step.
	Going to follow RFO solution 1.
	Using RFO vector 1.
	Norm of target step-size    0.00094
	Projected energy change by RFO approximation:         0.0000003350

	Back-transformation to cartesian coordinates...
	Successfully converged to displaced geometry.

	--- Internal Coordinate Step in ANG or DEG, aJ/ANG or AJ/DEG ---
	 ---------------------------------------------------------------------------
	   Coordinate                Previous        Force       Change         New 
	   ----------                --------       ------       ------       ------
	    1 R(1,2)          =      1.627269     0.000933     0.000497     1.627766
	 ---------------------------------------------------------------------------
	Successfully symmetrized geometry.

  ==> Convergence Check <==

  Measures of convergence in internal coordinates in au.
  Criteria marked as inactive (o), active & met (*), and active & unmet ( ).
  ---------------------------------------------------------------------------------------------
   Step     Total Energy     Delta E     MAX Force     RMS Force      MAX Disp      RMS Disp   
  ---------------------------------------------------------------------------------------------
    Convergence Criteria    1.00e-06 *    3.00e-04 *             o    1.20e-03 *             o
  ---------------------------------------------------------------------------------------------
      4    -147.41652369   -3.44e-05      1.13e-04 *    1.13e-04 o    9.39e-04 *    9.39e-04 o  ~
  ---------------------------------------------------------------------------------------------


  **** Optimization is complete! (in 4 steps) ****

  ==> Optimization Summary <==

  Measures of convergence in internal coordinates in au.
  --------------------------------------------------------------------------------------------------------------- ~
   Step         Total Energy             Delta E       MAX Force       RMS Force        MAX Disp        RMS Disp  ~
  --------------------------------------------------------------------------------------------------------------- ~
      1    -147.416468157160   -147.416468157160      0.00399647      0.00399647      0.00213578      0.00213578  ~
      2    -147.416475755150     -0.000007597991      0.00372991      0.00372991      0.00428129      0.00428129  ~
      3    -147.416489266483     -0.000013511332      0.00319933      0.00319933      0.02573775      0.02573775  ~
      4    -147.416523692028     -0.000034425545      0.00011319      0.00011319      0.00093950      0.00093950  ~
  --------------------------------------------------------------------------------------------------------------- ~

	Writing optimization data to binary file.
	Final energy is   -147.4165236920276
	Final (previous) structure:
	Cartesian Geometry (in Angstrom)
	   AG     0.0000000000   0.0000000000   0.0151974580
	    H     0.0000000000   0.0000000000  -1.6120711339
	Saving final (previous) structure.
			--------------------------
			 OPTKING Finished Execution 
			--------------------------

    Final optimized geometry and variables:
    Molecular point group: c2v
    Full point group: C_inf_v

    Geometry (in Angstrom), charge = 0, multiplicity = 1:

    AG           0.000000000000     0.000000000000     0.015197458087
    H            0.000000000000     0.000000000000    -1.612071140232

	Removing binary optimization data file.
	Cleaning optimization helper files.
gradient() will perform analytic gradient computation.

*** tstart() called on bp1-compute00145.data.bp.acrc.priv
*** at Fri Oct 29 08:27:53 2021

   => Loading Basis Set <=

    Name: DEF2-TZVPPD
    Role: ORBITAL
    Keyword: BASIS
    atoms 1 entry AG         line  2174 (ECP: line  3646) file /work/zw18965/.conda/envs/p4env/share/psi4/basis/def2-tzvppd.gbs 
    atoms 2 entry H          line    14 file /work/zw18965/.conda/envs/p4env/share/psi4/basis/def2-tzvppd.gbs 

    !!!  WARNING: ECP capability is in beta. Please check occupations closely.  !!!


         ---------------------------------------------------------
                                   SCF
               by Justin Turney, Rob Parrish, Andy Simmonett
                          and Daniel G. A. Smith
                              RKS Reference
                       24 Threads, 137329 MiB Core
         ---------------------------------------------------------

  ==> Geometry <==

    Molecular point group: c2v
    Full point group: C_inf_v

    Geometry (in Angstrom), charge = 0, multiplicity = 1:

       Center              X                  Y                   Z               Mass       
    ------------   -----------------  -----------------  -----------------  -----------------
         AG           0.000000000000     0.000000000000     0.015197458087   106.905091600000
         H            0.000000000000     0.000000000000    -1.612071140232     1.007825032230

  Running in c2v symmetry.

  Rotational constants: A = ************  B =      6.37629  C =      6.37629 [cm^-1]
  Rotational constants: A = ************  B = 191156.29798  C = 191156.29798 [MHz]
  Nuclear repulsion =    6.178676964033261

  Charge       = 0
  Multiplicity = 1
  Electrons    = 20
  Nalpha       = 10
  Nbeta        = 10

  ==> Algorithm <==

  SCF Algorithm Type is DF.
  DIIS enabled.
  MOM disabled.
  Fractional occupation disabled.
  Guess Type is SAD.
  Energy threshold   = 1.00e-08
  Density threshold  = 1.00e-08
  Integral threshold = 0.00e+00

  ==> Primary Basis <==

  Basis Set: DEF2-TZVPPD
    Blend: DEF2-TZVPPD
    Number of shells: 23
    Number of basis function: 73
    Number of Cartesian functions: 89
    Spherical Harmonics?: true
    Max angular momentum: 4

  Core potential: DEF2-TZVPPD
    Number of shells: 4
    Number of ECP primitives: 14
    Number of ECP core electrons: 28
    Max angular momentum: 3

  ==> DFT Potential <==

   => Composite Functional: M11-D3BJ <= 

    M11 Meta-GGA XC Functional

    R. Peverati and D. G. Truhlar, J. Phys. Chem. Lett., 2, 2810, 2011


    Deriv               =              1
    GGA                 =           TRUE
    Meta                =           TRUE

    Exchange Hybrid     =           TRUE
    MP2 Hybrid          =          FALSE

   => Exchange Functionals <=

    1.0000   XC_HYB_MGGA_X_M11 [omega = 0.2500]

   => Exact (HF) Exchange <=

    0.5720            HF,LR [omega = 0.2500]
    0.4280               HF 

   => Correlation Functionals <=

    1.0000    XC_MGGA_C_M11

   => Molecular Quadrature <=

    Radial Scheme          =       TREUTLER
    Pruning Scheme         =           FLAT
    Nuclear Scheme         =       TREUTLER

    BS radius alpha        =              1
    Pruning alpha          =              1
    Radial Points          =             75
    Spherical Points       =            302
    Total Points           =          45039
    Total Blocks           =            422
    Max Points             =            256
    Max Functions          =             73

   => M11-D3(BJ): Empirical Dispersion <=

[...]
  Fractional occupation disabled.
  Guess Type is SAD.
  Energy threshold   = 1.00e-08
  Density threshold  = 1.00e-08
  Integral threshold = 0.00e+00

  ==> Primary Basis <==

  Basis Set: DEF2-TZVPPD
    Blend: DEF2-TZVPPD
    Number of shells: 23
    Number of basis function: 73
    Number of Cartesian functions: 89
    Spherical Harmonics?: true
    Max angular momentum: 4

  Core potential: DEF2-TZVPPD
    Number of shells: 4
    Number of ECP primitives: 14
    Number of ECP core electrons: 28
    Max angular momentum: 3

  ==> DFT Potential <==

   => Composite Functional: M11-D3BJ <= 

    M11 Meta-GGA XC Functional

    R. Peverati and D. G. Truhlar, J. Phys. Chem. Lett., 2, 2810, 2011


    Deriv               =              1
    GGA                 =           TRUE
    Meta                =           TRUE

    Exchange Hybrid     =           TRUE
    MP2 Hybrid          =          FALSE

   => Exchange Functionals <=

    1.0000   XC_HYB_MGGA_X_M11 [omega = 0.2500]

   => Exact (HF) Exchange <=

    0.5720            HF,LR [omega = 0.2500]
    0.4280               HF 

   => Correlation Functionals <=

    1.0000    XC_MGGA_C_M11

   => Molecular Quadrature <=

    Radial Scheme          =       TREUTLER
    Pruning Scheme         =           FLAT
    Nuclear Scheme         =       TREUTLER

    BS radius alpha        =              1
    Pruning alpha          =              1
    Radial Points          =             75
    Spherical Points       =            302
    Total Points           =          45039
    Total Blocks           =            421
    Max Points             =            256
    Max Functions          =             73

   => M11-D3(BJ): Empirical Dispersion <=

    Grimme's -D3 (BJ-damping) Dispersion Correction
    Grimme S.; Ehrlich S.; Goerigk L. (2011), J. Comput. Chem., 32: 1456
    Parametrisation from:    L. Goerigk, J. Phys. Chem. Lett. 6, 3891-3896, 2015

        s6 =       1.000000
        s8 =       2.811200
        a1 =       0.000000
        a2 =      10.138900

   => Loading Basis Set <=

    Name: (DEF2-TZVPPD AUX)
    Role: JKFIT
    Keyword: DF_BASIS_SCF
    atoms 1 entry AG         line  4369 file /work/zw18965/.conda/envs/p4env/share/psi4/basis/def2-tzvpp-jkfit.gbs 
    atoms 2 entry H          line    23 file /work/zw18965/.conda/envs/p4env/share/psi4/basis/def2-tzvpp-jkfit.gbs 

  ==> Pre-Iterations <==

   -------------------------------------------------------
    Irrep   Nso     Nmo     Nalpha   Nbeta   Ndocc  Nsocc
   -------------------------------------------------------
     A1        31      31       0       0       0       0
     A2         8       8       0       0       0       0
     B1        17      17       0       0       0       0
     B2        17      17       0       0       0       0
   -------------------------------------------------------
    Total      73      73      10      10      10       0
   -------------------------------------------------------

  ==> Integral Setup <==

  ==> DiskDFJK: Density-Fitted J/K Matrices <==

    J tasked:                  Yes
    K tasked:                  Yes
    wK tasked:                 Yes
    Omega:               2.500E-01
    OpenMP threads:             24
    Integrals threads:          24
    Memory [MiB]:           102775
    Algorithm:                Core
    Integral Cache:           NONE
    Schwarz Cutoff:          1E-12
    Fitting Condition:       1E-10

   => Auxiliary Basis Set <=

  Basis Set: (DEF2-TZVPPD AUX)
    Blend: DEF2-TZVPP-JKFIT
    Number of shells: 55
    Number of basis function: 273
    Number of Cartesian functions: 404
    Spherical Harmonics?: true
    Max angular momentum: 6

  Cached 100.0% of DFT collocation blocks in 0.216 [GiB].

  Minimum eigenvalue in the overlap matrix is 3.5757220532E-03.
  Using Symmetric Orthogonalization.

  SCF Guess: Superposition of Atomic Densities via on-the-fly atomic UHF.

  ==> Iterations <==

                           Total Energy        Delta E     RMS |[F,P]|

   @DF-RKS iter SAD:  -147.05931782430821   -1.47059e+02   0.00000e+00 
   @DF-RKS iter   1:  -147.36679663389910   -3.07479e-01   6.47993e-03 DIIS
   @DF-RKS iter   2:  -147.40367886070769   -3.68822e-02   4.78499e-03 DIIS
   @DF-RKS iter   3:  -147.41510973024285   -1.14309e-02   7.20520e-04 DIIS
   @DF-RKS iter   4:  -147.41596305477140   -8.53325e-04   3.08984e-04 DIIS
   @DF-RKS iter   5:  -147.41641501851680   -4.51964e-04   1.91895e-04 DIIS
   @DF-RKS iter   6:  -147.41649264939574   -7.76309e-05   7.91392e-05 DIIS
   @DF-RKS iter   7:  -147.41651682957456   -2.41802e-05   2.74761e-05 DIIS
   @DF-RKS iter   8:  -147.41652123890054   -4.40933e-06   3.95969e-06 DIIS
   @DF-RKS iter   9:  -147.41652129253939   -5.36388e-08   1.09446e-06 DIIS
   @DF-RKS iter  10:  -147.41652129633658   -3.79720e-09   2.01929e-07 DIIS
   @DF-RKS iter  11:  -147.41652129645146   -1.14881e-10   4.16548e-08 DIIS
   @DF-RKS iter  12:  -147.41652129645800   -6.53699e-12   7.86819e-09 DIIS
  Energy and wave function converged.


  ==> Post-Iterations <==

    Orbital Energies [Eh]
    ---------------------

    Doubly Occupied:                                                      

       1A1    -3.882830     2A1    -2.480691     1B1    -2.472161  
       1B2    -2.472161     3A1    -0.499854     2B2    -0.463496  
       2B1    -0.463496     4A1    -0.456909     1A2    -0.456901  
       5A1    -0.329933  

    Virtual:                                                              

       6A1    -0.023500     3B1     0.030252     3B2     0.030252  
       7A1     0.087069     8A1     0.125901     4B1     0.218012  
       4B2     0.218012     9A1     0.241043     5B2     0.290996  
       5B1     0.290996    10A1     0.449884    11A1     0.500646  
       2A2     0.500648    12A1     0.528862     6B1     0.593347  
       6B2     0.593347    13A1     0.660650     7B2     0.961840  
       7B1     0.961840    14A1     1.142351     8B1     1.684585  
       8B2     1.684585    15A1     1.695689     3A2     1.695706  
       9B2     1.703021     9B1     1.703021    16A1     1.753289  
      10B1     1.764832    10B2     1.764832    17A1     1.930995  
      18A1     2.117277    19A1     2.143114     4A2     2.143140  
      11B2     2.204899    11B1     2.204899    20A1     2.310662  
      21A1     2.741306    22A1     3.322028     5A2     3.322092  
      12B1     3.508405    12B2     3.508405    13B1     3.888592  
      13B2     3.888592    23A1     4.024311    24A1     4.550189  
      14B2     4.880105    14B1     4.880105     6A2     4.894316  
      25A1     4.894350    15B2     5.066749    15B1     5.066749  
      26A1     5.281318    16B2     5.651650    16B1     5.651650  
       7A2     5.652879    27A1     5.652880    28A1     5.654004  
       8A2     5.654120    17B1     5.768252    17B2     5.768252  
      29A1     6.179847    30A1    33.485613    31A1   110.547151  

    Final Occupation by Irrep:
             A1    A2    B1    B2 
    DOCC [     5,    1,    2,    2 ]

  @DF-RKS Final Energy:  -147.41652129645800

   => Energetics <=

    Nuclear Repulsion Energy =              6.1686389870067160
    One-Electron Energy =                -273.8233435147782870
    Two-Electron Energy =                 127.2354918608958343
    DFT Exchange-Correlation Energy =      -6.9972588995822464
    Empirical Dispersion Energy =          -0.0000497300000000
    VV10 Nonlocal Energy =                  0.0000000000000000
    Total Energy =                       -147.4165212964580007

Computation Completed


Properties will be evaluated at   0.000000,   0.000000,   0.000000 [a0]

Properties computed using the SCF density matrix

  Nuclear Dipole Moment: [e a0]
     X:     0.0000      Y:     0.0000      Z:    -2.5048

  Electronic Dipole Moment: [e a0]
     X:     0.0000      Y:     0.0000      Z:     3.8820

  Dipole Moment: [e a0]
     X:     0.0000      Y:     0.0000      Z:     1.3772     Total:     1.3772

  Dipole Moment: [D]
     X:     0.0000      Y:     0.0000      Z:     3.5006     Total:     3.5006


*** tstop() called on bp1-compute00145.data.bp.acrc.priv at Fri Oct 29 08:29:39 2021
Module time:
	user time   =      66.81 seconds =       1.11 minutes
	system time =       2.90 seconds =       0.05 minutes
	total time  =          4 seconds =       0.07 minutes
Total time:
	user time   =    2423.85 seconds =      40.40 minutes
	system time =     122.62 seconds =       2.04 minutes
	total time  =        236 seconds =       3.93 minutes

*** tstart() called on bp1-compute00145.data.bp.acrc.priv
*** at Fri Oct 29 08:29:39 2021


         ------------------------------------------------------------
                                   SCF GRAD                          
                          Rob Parrish, Justin Turney,                
                       Andy Simmonett, and Alex Sokolov              
         ------------------------------------------------------------

  ==> Geometry <==

    Molecular point group: c2v
    Full point group: C_inf_v

    Geometry (in Angstrom), charge = 0, multiplicity = 1:

       Center              X                  Y                   Z               Mass       
    ------------   -----------------  -----------------  -----------------  -----------------
         AG           0.000000000000     0.000000000000     0.015222188296   106.905091600000
         H            0.000000000000     0.000000000000    -1.614694398475     1.007825032230

  Nuclear repulsion =    6.168638987006716

  ==> Basis Set <==

  Basis Set: DEF2-TZVPPD
    Blend: DEF2-TZVPPD
    Number of shells: 23
    Number of basis function: 73
    Number of Cartesian functions: 89
    Spherical Harmonics?: true
    Max angular momentum: 4

  Core potential: DEF2-TZVPPD
    Number of shells: 4
    Number of ECP primitives: 14
    Number of ECP core electrons: 28
    Max angular momentum: 3

  ==> DFJKGrad: Density-Fitted SCF Gradients <==

    Gradient:                    1
    J tasked:                  Yes
    K tasked:                  Yes
    wK tasked:                 Yes
    Omega:               2.500E-01
    OpenMP threads:             24
    Integrals threads:          24
    Memory [MiB]:           102996
    Schwarz Cutoff:          0E+00
    Fitting Condition:       1E-10

   => Auxiliary Basis Set <=

  Basis Set: (DEF2-TZVPPD AUX)
    Blend: DEF2-TZVPP-JKFIT
    Number of shells: 55
    Number of basis function: 273
    Number of Cartesian functions: 404
    Spherical Harmonics?: true
    Max angular momentum: 6

  ==> DFT Potential <==

   => Composite Functional: M11-D3BJ <= 

    M11 Meta-GGA XC Functional

    R. Peverati and D. G. Truhlar, J. Phys. Chem. Lett., 2, 2810, 2011


    Deriv               =              1
    GGA                 =           TRUE
    Meta                =           TRUE

    Exchange Hybrid     =           TRUE
    MP2 Hybrid          =          FALSE

   => Exchange Functionals <=

    1.0000   XC_HYB_MGGA_X_M11 [omega = 0.2500]

   => Exact (HF) Exchange <=

    0.5720            HF,LR [omega = 0.2500]
    0.4280               HF 

   => Correlation Functionals <=

    1.0000    XC_MGGA_C_M11

   => Molecular Quadrature <=

    Radial Scheme          =       TREUTLER
    Pruning Scheme         =           FLAT
    Nuclear Scheme         =       TREUTLER

    BS radius alpha        =              1
    Pruning alpha          =              1
    Radial Points          =             75
    Spherical Points       =            302
    Total Points           =          45039
    Total Blocks           =            421
    Max Points             =            256
    Max Functions          =             73


  -Total Gradient:
     Atom            X                  Y                   Z
    ------   -----------------  -----------------  -----------------
       1        0.000000000000     0.000000000000    -0.106667764242
       2        0.000000000000     0.000000000000     0.106134163828


*** tstop() called on bp1-compute00145.data.bp.acrc.priv at Fri Oct 29 08:29:44 2021
Module time:
	user time   =      33.60 seconds =       0.56 minutes
	system time =       2.34 seconds =       0.04 minutes
	total time  =          5 seconds =       0.08 minutes
Total time:
	user time   =    2459.22 seconds =      40.99 minutes
	system time =     125.07 seconds =       2.08 minutes
	total time  =        241 seconds =       4.02 minutes


  ==> Adding ECP gradient terms (computed numerically) <==

  -ECP Gradient:
     Atom            X                  Y                   Z
    ------   -----------------  -----------------  -----------------
       1        0.000000000000     0.000000000000     0.106867740757
       2        0.000000000000     0.000000000000    -0.106867740757


  -Total Gradient:
     Atom            X                  Y                   Z
    ------   -----------------  -----------------  -----------------
       1        0.000000000000     0.000000000000     0.000199976515
       2        0.000000000000     0.000000000000    -0.000733576930


         ----------------------------------------------------------
                                   FINDIF
                     R. A. King and Jonathon Misiewicz
         ---------------------------------------------------------

  Computing second-derivative from gradients using projected, 
  symmetry-adapted, cartesian coordinates.

  3 gradients passed in, including the reference geometry.
  Generating complete list of displacements from unique ones.


-------------------------------------------------------------


  ==> Harmonic Vibrational Analysis <==

  non-mass-weighted Hessian:       Symmetric? True   Hermitian? True   Lin Dep Dim?  5 (0)
  projection of translations (True) and rotations (True) removed 5 degrees of freedom (5)
  total projector:                 Symmetric? True   Hermitian? True   Lin Dep Dim?  5 (5)
  mass-weighted Hessian:           Symmetric? True   Hermitian? True   Lin Dep Dim?  5 (0)
  pre-proj  low-frequency mode:    0.0000  [cm^-1]
  pre-proj  low-frequency mode:    0.0000  [cm^-1]
  pre-proj  low-frequency mode:    0.0000  [cm^-1]
  pre-proj  low-frequency mode:    0.0000  [cm^-1]
  pre-proj  low-frequency mode:    0.0000  [cm^-1]
  pre-proj  all modes:['0.0000' '0.0000' '0.0000' '0.0000' '0.0000' '1757.0531']
  projected mass-weighted Hessian: Symmetric? True   Hermitian? True   Lin Dep Dim?  5 (5)
  post-proj low-frequency mode:    0.0000  [cm^-1] (TR)
  post-proj low-frequency mode:    0.0000  [cm^-1] (TR)
  post-proj low-frequency mode:    0.0000  [cm^-1] (TR)
  post-proj low-frequency mode:    0.0000  [cm^-1] (TR)
  post-proj low-frequency mode:    0.0000  [cm^-1] (TR)
  post-proj  all modes:['0.0000' '0.0000' '0.0000' '0.0000' '0.0000' '1757.0531']

  Vibration                       6           
  Freq [cm^-1]                1757.0531       
  Irrep                           A1          
  Reduced mass [u]              1.0172        
  Force const [mDyne/A]         1.8503        
  Turning point v=0 [a0]        0.2595        
  RMS dev v=0 [a0 u^1/2]        0.1851        
  Char temp [K]               2528.0082       
  ----------------------------------------------------------------------------------
      1   AG               0.00  0.00 -0.01   
      2   H                0.00  0.00  1.00   

  ==> Thermochemistry Components <==

  Entropy, S
    Electronic S            0.000 [cal/(mol K)]        0.000 [J/(mol K)]       0.00000000 [mEh/K] (multiplicity = 1)
    Translational S        39.945 [cal/(mol K)]      167.130 [J/(mol K)]       0.06365640 [mEh/K] (mol. weight = 107.9129 [u], P = 101325.00 [Pa])
    Rotational S            8.905 [cal/(mol K)]       37.259 [J/(mol K)]       0.01419116 [mEh/K] (symmetry no. = 1)
    Vibrational S           0.004 [cal/(mol K)]        0.016 [J/(mol K)]       0.00000624 [mEh/K]
  Total S                  48.854 [cal/(mol K)]      204.405 [J/(mol K)]       0.07785380 [mEh/K]
  Correction S              0.000 [cal/(mol K)]        0.000 [J/(mol K)]       0.00000000 [mEh/K]

  Constant volume heat capacity, Cv
    Electronic Cv           0.000 [cal/(mol K)]        0.000 [J/(mol K)]       0.00000000 [mEh/K]
    Translational Cv        2.981 [cal/(mol K)]       12.472 [J/(mol K)]       0.00475022 [mEh/K]
    Rotational Cv           1.987 [cal/(mol K)]        8.314 [J/(mol K)]       0.00316681 [mEh/K]
    Vibrational Cv          0.030 [cal/(mol K)]        0.124 [J/(mol K)]       0.00004733 [mEh/K]
  Total Cv                  4.998 [cal/(mol K)]       20.910 [J/(mol K)]       0.00796435 [mEh/K]
  Correction Cv             0.000 [cal/(mol K)]        0.000 [J/(mol K)]       0.00000000 [mEh/K]

  Constant pressure heat capacity, Cp
    Electronic Cp           0.000 [cal/(mol K)]        0.000 [J/(mol K)]       0.00000000 [mEh/K]
    Translational Cp        4.968 [cal/(mol K)]       20.786 [J/(mol K)]       0.00791703 [mEh/K]
    Rotational Cp           1.987 [cal/(mol K)]        8.314 [J/(mol K)]       0.00316681 [mEh/K]
    Vibrational Cp          0.030 [cal/(mol K)]        0.124 [J/(mol K)]       0.00004733 [mEh/K]
  Total Cp                  6.985 [cal/(mol K)]       29.225 [J/(mol K)]       0.01113116 [mEh/K]
  Correction Cp             0.000 [cal/(mol K)]        0.000 [J/(mol K)]       0.00000000 [mEh/K]

  ==> Thermochemistry Energy Analysis <==

  Raw electronic energy, E0
  Total E0, Electronic energy at well bottom at 0 [K]                 -147.41652369 [Eh]

  Zero-point energy, ZPE_vib = Sum_i nu_i / 2
    Electronic ZPE          0.000 [kcal/mol]        0.000 [kJ/mol]       0.00000000 [Eh]
    Translational ZPE       0.000 [kcal/mol]        0.000 [kJ/mol]       0.00000000 [Eh]
    Rotational ZPE          0.000 [kcal/mol]        0.000 [kJ/mol]       0.00000000 [Eh]
    Vibrational ZPE         2.512 [kcal/mol]       10.510 [kJ/mol]       0.00400286 [Eh]         878.527 [cm^-1]
  Correction ZPE            2.512 [kcal/mol]       10.510 [kJ/mol]       0.00400286 [Eh]         878.527 [cm^-1]
  Total ZPE, Electronic energy at 0 [K]                               -147.41252083 [Eh]

  Thermal Energy, E (includes ZPE)
    Electronic E            0.000 [kcal/mol]        0.000 [kJ/mol]       0.00000000 [Eh]
    Translational E         0.889 [kcal/mol]        3.718 [kJ/mol]       0.00141628 [Eh]
    Rotational E            0.592 [kcal/mol]        2.479 [kJ/mol]       0.00094418 [Eh]
    Vibrational E           2.513 [kcal/mol]       10.514 [kJ/mol]       0.00400453 [Eh]
  Correction E              3.994 [kcal/mol]       16.711 [kJ/mol]       0.00636499 [Eh]
  Total E, Electronic energy at  298.15 [K]                           -147.41015871 [Eh]

  Enthalpy, H_trans = E_trans + k_B * T
    Electronic H            0.000 [kcal/mol]        0.000 [kJ/mol]       0.00000000 [Eh]
    Translational H         1.481 [kcal/mol]        6.197 [kJ/mol]       0.00236046 [Eh]
    Rotational H            0.592 [kcal/mol]        2.479 [kJ/mol]       0.00094418 [Eh]
    Vibrational H           2.513 [kcal/mol]       10.514 [kJ/mol]       0.00400453 [Eh]
  Correction H              4.587 [kcal/mol]       19.190 [kJ/mol]       0.00730917 [Eh]
  Total H, Enthalpy at  298.15 [K]                                    -147.40921452 [Eh]

  Gibbs free energy, G = H - T * S
    Electronic G            0.000 [kcal/mol]        0.000 [kJ/mol]       0.00000000 [Eh]
    Translational G       -10.428 [kcal/mol]      -43.632 [kJ/mol]      -0.01661869 [Eh]
    Rotational G           -2.063 [kcal/mol]       -8.630 [kJ/mol]      -0.00328691 [Eh]
    Vibrational G           2.512 [kcal/mol]       10.509 [kJ/mol]       0.00400267 [Eh]
  Correction G             -9.979 [kcal/mol]      -41.753 [kJ/mol]      -0.01590294 [Eh]
  Total G, Free enthalpy at  298.15 [K]                               -147.43242663 [Eh]

    Psi4 stopped on: Friday, 29 October 2021 08:30AM
    Psi4 wall time for execution: 0:04:25.14

*** Psi4 exiting successfully. Buy a developer a beer!
