Optimizer: Optimization complete!
 3 displacements needed.
 1 2 3
Warning: used thermodynamics relations inappropriate for low-frequency modes: ['191.8317']
At level 1: Red. Int., RFO, no backsteps, dynamic trust
At level 1: Red. Int., RFO, no backsteps, dynamic trust
At level 1: Red. Int., RFO, no backsteps, dynamic trust
DePrince III, E. G. Hohenstein, U. Bozkaya, A. Yu. Sokolov,
    R. Di Remigio, R. M. Richard, J. F. Gonthier, A. M. James,
    H. R. McAlexander, A. Kumar, M. Saitow, X. Wang, B. P. Pritchard,
    P. Verma, H. F. Schaefer III, K. Patkowski, R. A. King, E. F. Valeev,
    F. A. Evangelista, J. M. Turney, T. D. Crawford, and C. D. Sherrill,
    J. Chem. Theory Comput. 13(7) pp 3185--3197 (2017).
    (doi: 10.1021/acs.jctc.7b00174)


                         Additional Contributions by
    P. Kraus, H. Kruse, M. H. Lechner, M. C. Schieber, R. A. Shaw,
    A. Alenaizan, R. Galvelis, Z. L. Glick, S. Lehtola, and J. P. Misiewicz

    -----------------------------------------------------------------------


    Psi4 started on: Friday, 29 October 2021 08:25AM

    Process ID: 162207
    Host:       bp1-compute00159.data.bp.acrc.priv
    PSIDATADIR: /work/zw18965/.conda/envs/p4env/share/psi4
    Memory:     500.0 MiB
    Threads:    24
    
  ==> Input File <==

--------------------------------------------------------------------------
memory 144 GB

molecule {
0 1
Ag       0.000000    0.000000    1.261821 
Ag       0.000000    0.000000   -1.261821 
 }

set dynamic_level 1
set basis Def2-TZVPPD

optimize("M11-D3BJ")
frequencies("M11-D3BJ")
--------------------------------------------------------------------------

  Memory set to 134.110 GiB by Python driver.
gradient() will perform analytic gradient computation.

*** tstart() called on bp1-compute00159.data.bp.acrc.priv
*** at Fri Oct 29 08:25:49 2021

   => Loading Basis Set <=

    Name: DEF2-TZVPPD
    Role: ORBITAL
    Keyword: BASIS
    atoms 1-2 entry AG         line  2174 (ECP: line  3646) file /work/zw18965/.conda/envs/p4env/share/psi4/basis/def2-tzvppd.gbs 

    !!!  WARNING: ECP capability is in beta. Please check occupations closely.  !!!


         ---------------------------------------------------------
                                   SCF
               by Justin Turney, Rob Parrish, Andy Simmonett
                          and Daniel G. A. Smith
                              RKS Reference
                       24 Threads, 137329 MiB Core
         ---------------------------------------------------------

  ==> Geometry <==

    Molecular point group: d2h
    Full point group: D_inf_h

    Geometry (in Angstrom), charge = 0, multiplicity = 1:

       Center              X                  Y                   Z               Mass       
    ------------   -----------------  -----------------  -----------------  -----------------
         AG           0.000000000000     0.000000000000     1.261821000000   106.905091600000
         AG           0.000000000000     0.000000000000    -1.261821000000   106.905091600000

  Running in d2h symmetry.

  Rotational constants: A = ************  B =      0.04952  C =      0.04952 [cm^-1]
  Rotational constants: A = ************  B =   1484.54481  C =   1484.54481 [MHz]
  Nuclear repulsion =   75.697334666275978

  Charge       = 0
  Multiplicity = 1
  Electrons    = 38
  Nalpha       = 19
  Nbeta        = 19

  ==> Algorithm <==

  SCF Algorithm Type is DF.
  DIIS enabled.
  MOM disabled.
  Fractional occupation disabled.
  Guess Type is SAD.
  Energy threshold   = 1.00e-08
  Density threshold  = 1.00e-08
  Integral threshold = 0.00e+00

  ==> Primary Basis <==

  Basis Set: DEF2-TZVPPD
    Blend: DEF2-TZVPPD
    Number of shells: 32
    Number of basis function: 112
    Number of Cartesian functions: 142
    Spherical Harmonics?: true
    Max angular momentum: 4

  Core potential: DEF2-TZVPPD
    Number of shells: 8
    Number of ECP primitives: 28
    Number of ECP core electrons: 56
    Max angular momentum: 3

  ==> DFT Potential <==

   => Composite Functional: M11-D3BJ <= 

    M11 Meta-GGA XC Functional

    R. Peverati and D. G. Truhlar, J. Phys. Chem. Lett., 2, 2810, 2011


    Deriv               =              1
    GGA                 =           TRUE
    Meta                =           TRUE

    Exchange Hybrid     =           TRUE
    MP2 Hybrid          =          FALSE

   => Exchange Functionals <=

    1.0000   XC_HYB_MGGA_X_M11 [omega = 0.2500]

   => Exact (HF) Exchange <=

    0.5720            HF,LR [omega = 0.2500]
    0.4280               HF 

   => Correlation Functionals <=

    1.0000    XC_MGGA_C_M11

   => Molecular Quadrature <=

    Radial Scheme          =       TREUTLER
    Pruning Scheme         =           FLAT
    Nuclear Scheme         =       TREUTLER

    BS radius alpha        =              1
    Pruning alpha          =              1
    Radial Points          =             75
    Spherical Points       =            302
    Total Points           =          44842
    Total Blocks           =            420
    Max Points             =            255
    Max Functions          =            110

   => M11-D3(BJ): Empirical Dispersion <=

    Grimme's -D3 (BJ-damping) Dispersion Correction
    Grimme S.; Ehrlich S.; Goerigk L. (2011), J. Comput. Chem., 32: 1456
    Parametrisation from:    L. Goerigk, J. Phys. Chem. Lett. 6, 3891-3896, 2015

        s6 =       1.000000
        s8 =       2.811200
        a1 =       0.000000
        a2 =      10.138900

   => Loading Basis Set <=

    Name: (DEF2-TZVPPD AUX)
    Role: JKFIT
    Keyword: DF_BASIS_SCF
    atoms 1-2 entry AG         line  4369 file /work/zw18965/.conda/envs/p4env/share/psi4/basis/def2-tzvpp-jkfit.gbs 

  ==> Pre-Iterations <==

   -------------------------------------------------------
    Irrep   Nso     Nmo     Nalpha   Nbeta   Ndocc  Nsocc
   -------------------------------------------------------
     Ag        23      23       0       0       0       0
     B1g        7       7       0       0       0       0
     B2g       13      13       0       0       0       0
     B3g       13      13       0       0       0       0
     Au         7       7       0       0       0       0
     B1u       23      23       0       0       0       0
     B2u       13      13       0       0       0       0
     B3u       13      13       0       0       0       0
   -------------------------------------------------------
    Total     112     112      19      19      19       0
   -------------------------------------------------------

  ==> Integral Setup <==

  ==> DiskDFJK: Density-Fitted J/K Matrices <==

    J tasked:                  Yes
    K tasked:                  Yes
    wK tasked:                 Yes
    Omega:               2.500E-01
    OpenMP threads:             24
    Integrals threads:          24
    Memory [MiB]:           102701
    Algorithm:                Core
    Integral Cache:           NONE
    Schwarz Cutoff:          1E-12
    Fitting Condition:       1E-10

   => Auxiliary Basis Set <=

  Basis Set: (DEF2-TZVPPD AUX)
    Blend: DEF2-TZVPP-JKFIT
    Number of shells: 98
    Number of basis function: 510
    Number of Cartesian functions: 768
    Spherical Harmonics?: true
    Max angular momentum: 6

  Cached 100.0% of DFT collocation blocks in 0.288 [GiB].

  Minimum eigenvalue in the overlap matrix is 4.1833102936E-03.
  Using Symmetric Orthogonalization.

  SCF Guess: Superposition of Atomic Densities via on-the-fly atomic UHF.

  ==> Iterations <==

                           Total Energy        Delta E     RMS |[F,P]|

   @DF-RKS iter SAD:  -293.17484142187203   -2.93175e+02   0.00000e+00 
   @DF-RKS iter   1:  -293.68286679759126   -5.08025e-01   5.42925e-03 DIIS
   @DF-RKS iter   2:  -293.69025548319081   -7.38869e-03   5.03318e-03 DIIS
   @DF-RKS iter   3:  -293.70258313328674   -1.23277e-02   3.56296e-04 DIIS
   @DF-RKS iter   4:  -293.70281446674005   -2.31333e-04   2.71638e-04 DIIS
   @DF-RKS iter   5:  -293.70289722804182   -8.27613e-05   8.95946e-05 DIIS
   @DF-RKS iter   6:  -293.70292736567313   -3.01376e-05   2.85460e-05 DIIS
   @DF-RKS iter   7:  -293.70293173632524   -4.37065e-06   7.37527e-06 DIIS
   @DF-RKS iter   8:  -293.70293202767306   -2.91348e-07   1.79076e-06 DIIS
   @DF-RKS iter   9:  -293.70293203852805   -1.08550e-08   4.65343e-07 DIIS
   @DF-RKS iter  10:  -293.70293203918936   -6.61316e-10   1.13875e-07 DIIS
   @DF-RKS iter  11:  -293.70293203924177   -5.24096e-11   2.35437e-08 DIIS
   @DF-RKS iter  12:  -293.70293203924427   -2.50111e-12   4.46834e-09 DIIS
  Energy and wave function converged.


  ==> Post-Iterations <==

    Orbital Energies [Eh]
    ---------------------

    Doubly Occupied:                                                      

       1Ag    -3.851859     1B1u   -3.851114     2Ag    -2.451132  
       1B3u   -2.443188     1B2u   -2.443188     2B1u   -2.442631  
       1B2g   -2.442426     1B3g   -2.442426     3Ag    -0.472649  
       2B3u   -0.455882     2B2u   -0.455882     1B1g   -0.433612  
       4Ag    -0.433598     1Au    -0.425341     3B1u   -0.425327  
       2B3g   -0.410599     2B2g   -0.410599     4B1u   -0.402252  
       5Ag    -0.260485  

    Virtual:                                                              

       5B1u   -0.014256     6Ag     0.038237     3B3u    0.040943  
       3B2u    0.040943     3B2g    0.077770     3B3g    0.077770  
       6B1u    0.105025     7Ag     0.158124     7B1u    0.179576  
       8Ag     0.239227     4B3u    0.241816     4B2u    0.241816  
       4B3g    0.313433     4B2g    0.313433     8B1u    0.467583  
       9Ag     0.474866     2B1g    0.474875     5B3u    0.515684  
       5B2u    0.515684     9B1u    0.561668     2Au     0.561676  
      10Ag     0.668474     5B3g    0.673049     5B2g    0.673049  
      10B1u    0.794578    11Ag     1.518956     6B3u    1.664316  
       6B2u    1.664316     7B2u    1.708219     7B3u    1.708219  
       3B1g    1.712668    12Ag     1.712706     6B3g    1.722427  
       6B2g    1.722427     8B2u    1.727786     8B3u    1.727786  
       7B3g    1.730245     7B2g    1.730245    11B1u    1.731158  
       3Au     1.746164    12B1u    1.746205    13Ag     1.814490  
       8B2g    1.859367     8B3g    1.859367    13B1u    1.883548  
      14Ag     2.046013    15Ag     2.156998     4B1g    2.157067  
       9B2u    2.176443     9B3u    2.176443    14B1u    2.190781  
       4Au     2.190861    16Ag     2.243489     9B3g    2.263352  
       9B2g    2.263352    15B1u    2.414383    16B1u    2.481702  
      10B2u    4.860069    10B3u    4.860069    17Ag     4.869049  
       5B1g    4.899458    18Ag     4.899592    11B2u    4.909161  
      11B3u    4.909161    10B3g    4.911122    10B2g    4.911122  
       5Au     4.926391    17B1u    4.926525    11B3g    5.012433  
      11B2g    5.012433    18B1u    5.208953    12B3u    5.675865  
      12B2u    5.675865    19Ag     5.677520    20Ag     5.677563  
       6B1g    5.677947    19B1u    5.678186     6Au     5.678613  
      13B3u    5.679443    13B2u    5.679443    12B3g    5.679479  
      12B2g    5.679479    21Ag     5.680458    20B1u    5.680458  
       7B1g    5.680891     7Au     5.680891    13B2g    5.681098  
      13B3g    5.681098    21B1u    5.696001    22Ag    33.316588  
      22B1u   33.560046    23Ag   110.516860    23B1u  110.595583  

    Final Occupation by Irrep:
             Ag   B1g   B2g   B3g    Au   B1u   B2u   B3u 
    DOCC [     5,    1,    2,    2,    1,    4,    2,    2 ]

  @DF-RKS Final Energy:  -293.70293203924427

   => Energetics <=

    Nuclear Repulsion Energy =             75.6973346662759781
    One-Electron Energy =                -674.2661541332140587
    Two-Electron Energy =                 318.6141744207077409
    DFT Exchange-Correlation Energy =     -13.7474335430139529
    Empirical Dispersion Energy =          -0.0008534500000000
    VV10 Nonlocal Energy =                  0.0000000000000000
    Total Energy =                       -293.7029320392442742

Computation Completed


Properties will be evaluated at   0.000000,   0.000000,   0.000000 [a0]

Properties computed using the SCF density matrix

  Nuclear Dipole Moment: [e a0]
     X:     0.0000      Y:     0.0000      Z:     0.0000

  Electronic Dipole Moment: [e a0]
     X:     0.0000      Y:     0.0000      Z:     0.0000

  Dipole Moment: [e a0]
     X:     0.0000      Y:     0.0000      Z:     0.0000     Total:     0.0000

  Dipole Moment: [D]
     X:     0.0000      Y:     0.0000      Z:     0.0000     Total:     0.0000


*** tstop() called on bp1-compute00159.data.bp.acrc.priv at Fri Oct 29 08:25:56 2021
Module time:
	user time   =      80.39 seconds =       1.34 minutes
	system time =       5.62 seconds =       0.09 minutes
	total time  =          7 seconds =       0.12 minutes
Total time:
	user time   =      80.39 seconds =       1.34 minutes
	system time =       5.62 seconds =       0.09 minutes
	total time  =          7 seconds =       0.12 minutes

*** tstart() called on bp1-compute00159.data.bp.acrc.priv
*** at Fri Oct 29 08:25:56 2021


         ------------------------------------------------------------
                                   SCF GRAD                          
                          Rob Parrish, Justin Turney,                
                       Andy Simmonett, and Alex Sokolov              
         ------------------------------------------------------------

  ==> Geometry <==

    Molecular point group: d2h
    Full point group: D_inf_h

    Geometry (in Angstrom), charge = 0, multiplicity = 1:

       Center              X                  Y                   Z               Mass       
    ------------   -----------------  -----------------  -----------------  -----------------
         AG           0.000000000000     0.000000000000     1.261821000000   106.905091600000
         AG           0.000000000000     0.000000000000    -1.261821000000   106.905091600000

  Nuclear repulsion =   75.697334666275978

  ==> Basis Set <==

  Basis Set: DEF2-TZVPPD
    Blend: DEF2-TZVPPD
    Number of shells: 32
    Number of basis function: 112
    Number of Cartesian functions: 142
    Spherical Harmonics?: true
    Max angular momentum: 4

  Core potential: DEF2-TZVPPD
    Number of shells: 8
    Number of ECP primitives: 28
    Number of ECP core electrons: 56
    Max angular momentum: 3

  ==> DFJKGrad: Density-Fitted SCF Gradients <==

    Gradient:                    1
    J tasked:                  Yes
    K tasked:                  Yes
    wK tasked:                 Yes
    Omega:               2.500E-01
    OpenMP threads:             24
    Integrals threads:          24
    Memory [MiB]:           102996
    Schwarz Cutoff:          0E+00
    Fitting Condition:       1E-10

   => Auxiliary Basis Set <=

  Basis Set: (DEF2-TZVPPD AUX)
    Blend: DEF2-TZVPP-JKFIT
    Number of shells: 98
    Number of basis function: 510
    Number of Cartesian functions: 768
    Spherical Harmonics?: true
    Max angular momentum: 6

  ==> DFT Potential <==

   => Composite Functional: M11-D3BJ <= 

    M11 Meta-GGA XC Functional

    R. Peverati and D. G. Truhlar, J. Phys. Chem. Lett., 2, 2810, 2011


    Deriv               =              1
    GGA                 =           TRUE
    Meta                =           TRUE

    Exchange Hybrid     =           TRUE
    MP2 Hybrid          =          FALSE

   => Exchange Functionals <=

    1.0000   XC_HYB_MGGA_X_M11 [omega = 0.2500]

   => Exact (HF) Exchange <=

    0.5720            HF,LR [omega = 0.2500]
    0.4280               HF 

   => Correlation Functionals <=

    1.0000    XC_MGGA_C_M11

   => Molecular Quadrature <=

    Radial Scheme          =       TREUTLER
    Pruning Scheme         =           FLAT
    Nuclear Scheme         =       TREUTLER

    BS radius alpha        =              1
    Pruning alpha          =              1
    Radial Points          =             75
    Spherical Points       =            302
    Total Points           =          44842
    Total Blocks           =            420
    Max Points             =            255
    Max Functions          =            110


  -Total Gradient:
     Atom            X                  Y                   Z
    ------   -----------------  -----------------  -----------------
       1        0.000000000000    -0.000000000000    -0.189569346072
       2        0.000000000000    -0.000000000000     0.189569346072


*** tstop() called on bp1-compute00159.data.bp.acrc.priv at Fri Oct 29 08:26:01 2021
Module time:
	user time   =      43.25 seconds =       0.72 minutes
	system time =       3.21 seconds =       0.05 minutes
	total time  =          5 seconds =       0.08 minutes
Total time:
	user time   =     124.89 seconds =       2.08 minutes
	system time =       8.94 seconds =       0.15 minutes
	total time  =         12 seconds =       0.20 minutes


  ==> Adding ECP gradient terms (computed numerically) <==

  -ECP Gradient:
     Atom            X                  Y                   Z
    ------   -----------------  -----------------  -----------------
       1       -0.000000000000     0.000000000000     0.183427783194
       2       -0.000000000000     0.000000000000    -0.183427783194


  -Total Gradient:
     Atom            X                  Y                   Z
    ------   -----------------  -----------------  -----------------
       1       -0.000000000000    -0.000000000000    -0.006141562879
       2       -0.000000000000    -0.000000000000     0.006141562879


			-----------------------------------------
			 OPTKING 2.0: for geometry optimizations 
			  - R.A. King,  Bethel University        
			-----------------------------------------
	At level 1: Red. Int., RFO, no backsteps, dynamic trust

	Internal coordinates to be generated automatically.
	Detected frag 1 with atoms:  1 2
	---Fragment 1 Bond Connectivity---
	 1 : 2
	 2 : 1

	---Fragment 1 Geometry and Gradient---
	 AG          0.0000000000        0.0000000000        2.3844961094
	 AG          0.0000000000        0.0000000000       -2.3844961094
	            -0.0000000000       -0.0000000000       -0.0061415629
	            -0.0000000000       -0.0000000000        0.0061415629

	Previous optimization step data not found.  Starting new optimization.

	---Fragment 1 Intrafragment Coordinates---
	 - Coordinate -           - BOHR/RAD -       - ANG/DEG -
	 R(1,2)           =         4.768992	       2.523642

	Current energy   :      -293.7029320392

	Generating empirical Hessian (Schlegel '84) for each fragment.
	Taking RFO optimization step.
	Going to follow RFO solution 1.
	Using RFO vector 1.
	Norm of target step-size    0.06945
	Projected energy change by RFO approximation:         0.0019758666

	Back-transformation to cartesian coordinates...
	Successfully converged to displaced geometry.

	--- Internal Coordinate Step in ANG or DEG, aJ/ANG or AJ/DEG ---
	 ---------------------------------------------------------------------------
	   Coordinate                Previous        Force       Change         New 
	   ----------                --------       ------       ------       ------
	    1 R(1,2)          =      2.523642     0.050599     0.036754     2.560396
	 ---------------------------------------------------------------------------
	Successfully symmetrized geometry.

  ==> Convergence Check <==

  Measures of convergence in internal coordinates in au.
  Criteria marked as inactive (o), active & met (*), and active & unmet ( ).
  --------------------------------------------------------------------------------------------- ~
   Step     Total Energy     Delta E     MAX Force     RMS Force      MAX Disp      RMS Disp    ~
  --------------------------------------------------------------------------------------------- ~
    Convergence Criteria    1.00e-06 *    3.00e-04 *             o    1.20e-03 *             o  ~
  --------------------------------------------------------------------------------------------- ~
      1    -293.70293204   -2.94e+02      6.14e-03      6.14e-03 o    6.95e-02      6.95e-02 o  ~
  ---------------------------------------------------------------------------------------------

	Writing optimization data to binary file.
	Structure for next step:
	Cartesian Geometry (in Angstrom)
	   AG     0.0000000000   0.0000000000   1.2801978368
	   AG     0.0000000000   0.0000000000  -1.2801978368
			--------------------------
			 OPTKING Finished Execution 
			--------------------------

    Structure for next step:
    Molecular point group: d2h
    Full point group: D_inf_h

    Geometry (in Angstrom), charge = 0, multiplicity = 1:

    AG           0.000000000000     0.000000000000     1.280197841834
    AG           0.000000000000     0.000000000000    -1.280197841834

gradient() will perform analytic gradient computation.

*** tstart() called on bp1-compute00159.data.bp.acrc.priv
*** at Fri Oct 29 08:26:50 2021

   => Loading Basis Set <=

    Name: DEF2-TZVPPD
    Role: ORBITAL
    Keyword: BASIS
    atoms 1-2 entry AG         line  2174 (ECP: line  3646) file /work/zw18965/.conda/envs/p4env/share/psi4/basis/def2-tzvppd.gbs 

    !!!  WARNING: ECP capability is in beta. Please check occupations closely.  !!!


         ---------------------------------------------------------
                                   SCF
               by Justin Turney, Rob Parrish, Andy Simmonett
                          and Daniel G. A. Smith
                              RKS Reference
                       24 Threads, 137329 MiB Core
         ---------------------------------------------------------

  ==> Geometry <==

    Molecular point group: d2h
    Full point group: D_inf_h

    Geometry (in Angstrom), charge = 0, multiplicity = 1:

       Center              X                  Y                   Z               Mass       
    ------------   -----------------  -----------------  -----------------  -----------------
         AG           0.000000000000     0.000000000000     1.280197841834   106.905091600000
         AG           0.000000000000     0.000000000000    -1.280197841834   106.905091600000

  Running in d2h symmetry.

  Rotational constants: A = ************  B =      0.04811  C =      0.04811 [cm^-1]
  Rotational constants: A = ************  B =   1442.23036  C =   1442.23036 [MHz]
  Nuclear repulsion =   74.610722971623801

  Charge       = 0
  Multiplicity = 1
  Electrons    = 38
  Nalpha       = 19
  Nbeta        = 19

  ==> Algorithm <==

  SCF Algorithm Type is DF.
  DIIS enabled.
  MOM disabled.
  Fractional occupation disabled.
  Guess Type is READ.
  Energy threshold   = 1.00e-08
  Density threshold  = 1.00e-08
  Integral threshold = 0.00e+00

  ==> Primary Basis <==

  Basis Set: DEF2-TZVPPD
    Blend: DEF2-TZVPPD
    Number of shells: 32
    Number of basis function: 112
    Number of Cartesian functions: 142
    Spherical Harmonics?: true
    Max angular momentum: 4

  Core potential: DEF2-TZVPPD
    Number of shells: 8
    Number of ECP primitives: 28
    Number of ECP core electrons: 56
    Max angular momentum: 3

  ==> DFT Potential <==

   => Composite Functional: M11-D3BJ <= 

    M11 Meta-GGA XC Functional

    R. Peverati and D. G. Truhlar, J. Phys. Chem. Lett., 2, 2810, 2011


    Deriv               =              1
    GGA                 =           TRUE
    Meta                =           TRUE

    Exchange Hybrid     =           TRUE
    MP2 Hybrid          =          FALSE

   => Exchange Functionals <=

    1.0000   XC_HYB_MGGA_X_M11 [omega = 0.2500]

   => Exact (HF) Exchange <=

    0.5720            HF,LR [omega = 0.2500]
    0.4280               HF 

   => Correlation Functionals <=

    1.0000    XC_MGGA_C_M11

   => Molecular Quadrature <=

    Radial Scheme          =       TREUTLER
    Pruning Scheme         =           FLAT
    Nuclear Scheme         =       TREUTLER

    BS radius alpha        =              1
    Pruning alpha          =              1
    Radial Points          =             75
    Spherical Points       =            302
    Total Points           =          44842
    Total Blocks           =            422
    Max Points             =            255
    Max Functions          =            110

   => M11-D3(BJ): Empirical Dispersion <=

    Grimme's -D3 (BJ-damping) Dispersion Correction
    Grimme S.; Ehrlich S.; Goerigk L. (2011), J. Comput. Chem., 32: 1456
    Parametrisation from:    L. Goerigk, J. Phys. Chem. Lett. 6, 3891-3896, 2015

        s6 =       1.000000
        s8 =       2.811200
        a1 =       0.000000
        a2 =      10.138900

   => Loading Basis Set <=

    Name: (DEF2-TZVPPD AUX)
    Role: JKFIT
    Keyword: DF_BASIS_SCF
    atoms 1-2 entry AG         line  4369 file /work/zw18965/.conda/envs/p4env/share/psi4/basis/def2-tzvpp-jkfit.gbs 

   => Loading Basis Set <=

    Name: DEF2-TZVPPD
    Role: ORBITAL
    Keyword: BASIS
    atoms 1-2 entry AG         line  2174 (ECP: line  3646) file /work/zw18965/.conda/envs/p4env/share/psi4/basis/def2-tzvppd.gbs 

    !!!  WARNING: ECP capability is in beta. Please check occupations closely.  !!!

  Reading orbitals from file 180, no projection.

  ==> Pre-Iterations <==

   -------------------------------------------------------
    Irrep   Nso     Nmo     Nalpha   Nbeta   Ndocc  Nsocc
   -------------------------------------------------------
     Ag        23      23       0       0       0       0
     B1g        7       7       0       0       0       0
     B2g       13      13       0       0       0       0
     B3g       13      13       0       0       0       0
     Au         7       7       0       0       0       0
     B1u       23      23       0       0       0       0
     B2u       13      13       0       0       0       0
     B3u       13      13       0       0       0       0
   -------------------------------------------------------
    Total     112     112      19      19      19       0
   -------------------------------------------------------

  ==> Integral Setup <==

  ==> DiskDFJK: Density-Fitted J/K Matrices <==

    J tasked:                  Yes
    K tasked:                  Yes
    wK tasked:                 Yes
    Omega:               2.500E-01
    OpenMP threads:             24
    Integrals threads:          24
    Memory [MiB]:           102702
    Algorithm:                Core
    Integral Cache:           NONE
    Schwarz Cutoff:          1E-12
    Fitting Condition:       1E-10

   => Auxiliary Basis Set <=

  Basis Set: (DEF2-TZVPPD AUX)
    Blend: DEF2-TZVPP-JKFIT
    Number of shells: 98
    Number of basis function: 510
    Number of Cartesian functions: 768
    Spherical Harmonics?: true
    Max angular momentum: 6

  Cached 100.0% of DFT collocation blocks in 0.287 [GiB].

  Minimum eigenvalue in the overlap matrix is 4.4882027053E-03.
  Using Symmetric Orthogonalization.

  SCF Guess: Orbitals guess was supplied from a previous computation.

  ==> Iterations <==

                           Total Energy        Delta E     RMS |[F,P]|

   @DF-RKS iter   0:  -293.70438625290217   -2.93704e+02   1.36170e-03 
   @DF-RKS iter   1:  -293.70312898896924    1.25726e-03   5.96531e-05 DIIS
   @DF-RKS iter   2:  -293.70313032440379   -1.33543e-06   4.62178e-05 DIIS
   @DF-RKS iter   3:  -293.70313129796824   -9.73564e-07   7.89868e-06 DIIS
   @DF-RKS iter   4:  -293.70313141457518   -1.16607e-07   3.05335e-06 DIIS
   @DF-RKS iter   5:  -293.70313145017610   -3.56009e-08   1.57914e-06 DIIS
   @DF-RKS iter   6:  -293.70313145746195   -7.28585e-09   4.46494e-07 DIIS
   @DF-RKS iter   7:  -293.70313145871103   -1.24908e-09   1.44293e-07 DIIS
   @DF-RKS iter   8:  -293.70313145881966   -1.08628e-10   3.54930e-08 DIIS
   @DF-RKS iter   9:  -293.70313145882386   -4.20641e-12   8.25597e-09 DIIS
  Energy and wave function converged.


  ==> Post-Iterations <==

    Orbital Energies [Eh]
    ---------------------

    Doubly Occupied:                                                      

       1Ag    -3.851473     1B1u   -3.850859     2Ag    -2.450003  
       1B2u   -2.442944     1B3u   -2.442944     2B1u   -2.442614  
       1B3g   -2.442289     1B2g   -2.442289     3Ag    -0.469658  
       2B2u   -0.453704     2B3u   -0.453704     1B1g   -0.433148  
       4Ag    -0.433138     1Au    -0.425583     3B1u   -0.425574  
       2B3g   -0.411725     2B2g   -0.411725     4B1u   -0.403705  
       5Ag    -0.259209  

    Virtual:                                                              

       5B1u   -0.014919     6Ag     0.038041     3B3u    0.041224  
       3B2u    0.041224     3B3g    0.077562     3B2g    0.077562  
       6B1u    0.104172     7Ag     0.158548     7B1u    0.180068  
       8Ag     0.238117     4B3u    0.242786     4B2u    0.242786  
       4B3g    0.311989     4B2g    0.311989     8B1u    0.461631  
       9Ag     0.475402     2B1g    0.475412     5B2u    0.512099  
       5B3u    0.512099     9B1u    0.560383     2Au     0.560387  
      10Ag     0.666352     5B3g    0.672021     5B2g    0.672021  
      10B1u    0.791579    11Ag     1.543051     6B3u    1.672511  
       6B2u    1.672511     7B3u    1.708752     7B2u    1.708752  
       3B1g    1.715010    12Ag     1.715039     6B3g    1.719988  
       6B2g    1.719988     8B2u    1.727840     8B3u    1.727840  
       7B3g    1.729854     7B2g    1.729854    11B1u    1.730125  
       3Au     1.743638    12B1u    1.743672    13Ag     1.814313  
       8B2g    1.850117     8B3g    1.850117    13B1u    1.871961  
      14Ag     2.034796    15Ag     2.157124     4B1g    2.157179  
       9B3u    2.182417     9B2u    2.182417    14B1u    2.189971  
       4Au     2.190034    16Ag     2.251308     9B2g    2.257474  
       9B3g    2.257474    15B1u    2.406997    16B1u    2.457019  
      10B3u    4.866969    10B2u    4.866969    17Ag     4.867526  
       5B1g    4.901634    18Ag     4.901795    11B3u    4.909368  
      11B2u    4.909368    10B2g    4.910956    10B3g    4.910956  
       5Au     4.924152    17B1u    4.924313    11B2g    5.001663  
      11B3g    5.001663    18B1u    5.188792    12B3u    5.676536  
      12B2u    5.676536    19Ag     5.677829    20Ag     5.677935  
       6B1g    5.678330    19B1u    5.678418     6Au     5.678814  
      13B2u    5.679539    13B3u    5.679539    12B3g    5.679561  
      12B2g    5.679561    20B1u    5.680353    21Ag     5.680354  
      13B2g    5.680653    13B3g    5.680653     7Au     5.680777  
       7B1g    5.680778    21B1u    5.691872    22Ag    33.310698  
      22B1u   33.553597    23Ag   110.515127    23B1u  110.593602  

    Final Occupation by Irrep:
             Ag   B1g   B2g   B3g    Au   B1u   B2u   B3u 
    DOCC [     5,    1,    2,    2,    1,    4,    2,    2 ]

  @DF-RKS Final Energy:  -293.70313145882386

   => Energetics <=

    Nuclear Repulsion Energy =             74.6107229716238010
    One-Electron Energy =                -672.1103063332921010
    Two-Electron Energy =                 317.5422410283269414
    DFT Exchange-Correlation Energy =     -13.7449353954824680
    Empirical Dispersion Energy =          -0.0008537300000000
    VV10 Nonlocal Energy =                  0.0000000000000000
    Total Energy =                       -293.7031314588238615

Computation Completed


Properties will be evaluated at   0.000000,   0.000000,   0.000000 [a0]

Properties computed using the SCF density matrix

  Nuclear Dipole Moment: [e a0]
     X:     0.0000      Y:     0.0000      Z:    -0.0000

  Electronic Dipole Moment: [e a0]
     X:     0.0000      Y:     0.0000      Z:     0.0000

  Dipole Moment: [e a0]
     X:     0.0000      Y:     0.0000      Z:    -0.0000     Total:     0.0000

  Dipole Moment: [D]
     X:     0.0000      Y:     0.0000      Z:    -0.0000     Total:     0.0000


*** tstop() called on bp1-compute00159.data.bp.acrc.priv at Fri Oct 29 08:26:54 2021
Module time:
	user time   =      62.60 seconds =       1.04 minutes
	system time =       3.62 seconds =       0.06 minutes
	total time  =          4 seconds =       0.07 minutes
Total time:
	user time   =     529.96 seconds =       8.83 minutes
	system time =      24.92 seconds =       0.42 minutes
	total time  =         65 seconds =       1.08 minutes

*** tstart() called on bp1-compute00159.data.bp.acrc.priv
*** at Fri Oct 29 08:26:54 2021


         ------------------------------------------------------------
                                   SCF GRAD                          
                          Rob Parrish, Justin Turney,                
                       Andy Simmonett, and Alex Sokolov              
         ------------------------------------------------------------

  ==> Geometry <==

    Molecular point group: d2h
    Full point group: D_inf_h

    Geometry (in Angstrom), charge = 0, multiplicity = 1:

       Center              X                  Y                   Z               Mass       
    ------------   -----------------  -----------------  -----------------  -----------------
         AG           0.000000000000     0.000000000000     1.280197841834   106.905091600000
         AG           0.000000000000     0.000000000000    -1.280197841834   106.905091600000

  Nuclear repulsion =   74.610722971623801

  ==> Basis Set <==

  Basis Set: DEF2-TZVPPD
    Blend: DEF2-TZVPPD
    Number of shells: 32
    Number of basis function: 112
    Number of Cartesian functions: 142
    Spherical Harmonics?: true
    Max angular momentum: 4

  Core potential: DEF2-TZVPPD
    Number of shells: 8
    Number of ECP primitives: 28
    Number of ECP core electrons: 56
    Max angular momentum: 3

  ==> DFJKGrad: Density-Fitted SCF Gradients <==

    Gradient:                    1
    J tasked:                  Yes
    K tasked:                  Yes
    wK tasked:                 Yes
    Omega:               2.500E-01
    OpenMP threads:             24
    Integrals threads:          24
    Memory [MiB]:           102996
    Schwarz Cutoff:          0E+00
    Fitting Condition:       1E-10

   => Auxiliary Basis Set <=

  Basis Set: (DEF2-TZVPPD AUX)
    Blend: DEF2-TZVPP-JKFIT
    Number of shells: 98
    Number of basis function: 510
    Number of Cartesian functions: 768
    Spherical Harmonics?: true
    Max angular momentum: 6

  ==> DFT Potential <==

   => Composite Functional: M11-D3BJ <= 

    M11 Meta-GGA XC Functional

    R. Peverati and D. G. Truhlar, J. Phys. Chem. Lett., 2, 2810, 2011


    Deriv               =              1
    GGA                 =           TRUE
    Meta                =           TRUE

    Exchange Hybrid     =           TRUE
    MP2 Hybrid          =          FALSE

   => Exchange Functionals <=

    1.0000   XC_HYB_MGGA_X_M11 [omega = 0.2500]

   => Exact (HF) Exchange <=

    0.5720            HF,LR [omega = 0.2500]
    0.4280               HF 

   => Correlation Functionals <=

    1.0000    XC_MGGA_C_M11

   => Molecular Quadrature <=

    Radial Scheme          =       TREUTLER
    Pruning Scheme         =           FLAT
    Nuclear Scheme         =       TREUTLER

    BS radius alpha        =              1
    Pruning alpha          =              1
    Radial Points          =             75
    Spherical Points       =            302
    Total Points           =          44842
    Total Blocks           =            422
    Max Points             =            255
    Max Functions          =            110


  -Total Gradient:
     Atom            X                  Y                   Z
    ------   -----------------  -----------------  -----------------
       1        0.000000000000    -0.000000000000    -0.171257854848
       2        0.000000000000    -0.000000000000     0.171257854848


*** tstop() called on bp1-compute00159.data.bp.acrc.priv at Fri Oct 29 08:26:59 2021
Module time:
	user time   =      40.31 seconds =       0.67 minutes
	system time =       2.78 seconds =       0.05 minutes
	total time  =          5 seconds =       0.08 minutes
Total time:
	user time   =     571.85 seconds =       9.53 minutes
	system time =      27.79 seconds =       0.46 minutes
	total time  =         70 seconds =       1.17 minutes


  ==> Adding ECP gradient terms (computed numerically) <==

  -ECP Gradient:
     Atom            X                  Y                   Z
    ------   -----------------  -----------------  -----------------
       1        0.000000000000     0.000000000000     0.170768659021
       2        0.000000000000     0.000000000000    -0.170768659021


  -Total Gradient:
     Atom            X                  Y                   Z
    ------   -----------------  -----------------  -----------------
       1        0.000000000000    -0.000000000000    -0.000489195827
       2        0.000000000000    -0.000000000000     0.000489195827


			-----------------------------------------
			 OPTKING 2.0: for geometry optimizations 
			  - R.A. King,  Bethel University        
			-----------------------------------------
	At level 1: Red. Int., RFO, no backsteps, dynamic trust

	Previous internal coordinate definitions found.
	---Fragment 1 Geometry and Gradient---
	 AG          0.0000000000        0.0000000000        2.4192233075
	 AG          0.0000000000        0.0000000000       -2.4192233075
	             0.0000000000       -0.0000000000       -0.0004891958
	             0.0000000000       -0.0000000000        0.0004891958

	---Fragment 1 Intrafragment Coordinates---
	 - Coordinate -           - BOHR/RAD -       - ANG/DEG -
	 R(1,2)           =         4.838447	       2.560396

	Current energy   :      -293.7031314588

	Energy change for the previous step:
		Projected    :         0.0019758666
		Actual       :        -0.0001994196

	Performing BFGS update.
	Previous computed or guess Hessian on step 1.
	Steps to be used in Hessian update: 1
	Taking RFO optimization step.
	Going to follow RFO solution 1.
	Using RFO vector 1.
	Norm of target step-size    0.00601
	Projected energy change by RFO approximation:         0.0000151242

	Back-transformation to cartesian coordinates...
	Successfully converged to displaced geometry.

	--- Internal Coordinate Step in ANG or DEG, aJ/ANG or AJ/DEG ---
	 ---------------------------------------------------------------------------
	   Coordinate                Previous        Force       Change         New 
	   ----------                --------       ------       ------       ------
	    1 R(1,2)          =      2.560396     0.004030     0.003181     2.563576
	 ---------------------------------------------------------------------------
	Successfully symmetrized geometry.

  ==> Convergence Check <==

  Measures of convergence in internal coordinates in au.
  Criteria marked as inactive (o), active & met (*), and active & unmet ( ).
  ---------------------------------------------------------------------------------------------
   Step     Total Energy     Delta E     MAX Force     RMS Force      MAX Disp      RMS Disp   
  ---------------------------------------------------------------------------------------------
    Convergence Criteria    1.00e-06 *    3.00e-04 *             o    1.20e-03 *             o
  ---------------------------------------------------------------------------------------------
      2    -293.70313146   -1.99e-04      4.89e-04      4.89e-04 o    6.01e-03      6.01e-03 o  ~
  ---------------------------------------------------------------------------------------------

	Writing optimization data to binary file.
	Structure for next step:
	Cartesian Geometry (in Angstrom)
	   AG     0.0000000000   0.0000000000   1.2817882412
	   AG     0.0000000000   0.0000000000  -1.2817882412
			--------------------------
			 OPTKING Finished Execution 
			--------------------------

    Structure for next step:
    Molecular point group: d2h
    Full point group: D_inf_h

    Geometry (in Angstrom), charge = 0, multiplicity = 1:

    AG           0.000000000000     0.000000000000     1.281788246252
    AG           0.000000000000     0.000000000000    -1.281788246252

gradient() will perform analytic gradient computation.

*** tstart() called on bp1-compute00159.data.bp.acrc.priv
*** at Fri Oct 29 08:27:48 2021

   => Loading Basis Set <=

    Name: DEF2-TZVPPD
    Role: ORBITAL
    Keyword: BASIS
    atoms 1-2 entry AG         line  2174 (ECP: line  3646) file /work/zw18965/.conda/envs/p4env/share/psi4/basis/def2-tzvppd.gbs 

    !!!  WARNING: ECP capability is in beta. Please check occupations closely.  !!!


         ---------------------------------------------------------
                                   SCF
               by Justin Turney, Rob Parrish, Andy Simmonett
                          and Daniel G. A. Smith
                              RKS Reference
                       24 Threads, 137329 MiB Core
         ---------------------------------------------------------

  ==> Geometry <==

    Molecular point group: d2h
    Full point group: D_inf_h

    Geometry (in Angstrom), charge = 0, multiplicity = 1:

       Center              X                  Y                   Z               Mass       
    ------------   -----------------  -----------------  -----------------  -----------------
         AG           0.000000000000     0.000000000000     1.281788246252   106.905091600000
         AG           0.000000000000     0.000000000000    -1.281788246252   106.905091600000

  Running in d2h symmetry.

  Rotational constants: A = ************  B =      0.04799  C =      0.04799 [cm^-1]
  Rotational constants: A = ************  B =   1438.65362  C =   1438.65362 [MHz]
  Nuclear repulsion =   74.518148223959741

  Charge       = 0
  Multiplicity = 1
  Electrons    = 38
  Nalpha       = 19
  Nbeta        = 19

  ==> Algorithm <==

  SCF Algorithm Type is DF.
  DIIS enabled.
  MOM disabled.
  Fractional occupation disabled.
  Guess Type is READ.
  Energy threshold   = 1.00e-08
  Density threshold  = 1.00e-08
  Integral threshold = 0.00e+00

  ==> Primary Basis <==

  Basis Set: DEF2-TZVPPD
    Blend: DEF2-TZVPPD
    Number of shells: 32
    Number of basis function: 112
    Number of Cartesian functions: 142
    Spherical Harmonics?: true
    Max angular momentum: 4

  Core potential: DEF2-TZVPPD
    Number of shells: 8
    Number of ECP primitives: 28
    Number of ECP core electrons: 56
    Max angular momentum: 3

  ==> DFT Potential <==

   => Composite Functional: M11-D3BJ <= 

    M11 Meta-GGA XC Functional

    R. Peverati and D. G. Truhlar, J. Phys. Chem. Lett., 2, 2810, 2011


    Deriv               =              1
    GGA                 =           TRUE
    Meta                =           TRUE

    Exchange Hybrid     =           TRUE
    MP2 Hybrid          =          FALSE

   => Exchange Functionals <=

    1.0000   XC_HYB_MGGA_X_M11 [omega = 0.2500]

   => Exact (HF) Exchange <=

    0.5720            HF,LR [omega = 0.2500]
    0.4280               HF 

   => Correlation Functionals <=

    1.0000    XC_MGGA_C_M11

   => Molecular Quadrature <=

    Radial Scheme          =       TREUTLER
    Pruning Scheme         =           FLAT
    Nuclear Scheme         =       TREUTLER

    BS radius alpha        =              1
    Pruning alpha          =              1
    Radial Points          =             75
    Spherical Points       =            302
    Total Points           =          44842
    Total Blocks           =            422
    Max Points             =            255
    Max Functions          =            110

   => M11-D3(BJ): Empirical Dispersion <=

    Grimme's -D3 (BJ-damping) Dispersion Correction
    Grimme S.; Ehrlich S.; Goerigk L. (2011), J. Comput. Chem., 32: 1456
    Parametrisation from:    L. Goerigk, J. Phys. Chem. Lett. 6, 3891-3896, 2015

        s6 =       1.000000
        s8 =       2.811200
        a1 =       0.000000
        a2 =      10.138900

   => Loading Basis Set <=

    Name: (DEF2-TZVPPD AUX)
    Role: JKFIT
    Keyword: DF_BASIS_SCF
    atoms 1-2 entry AG         line  4369 file /work/zw18965/.conda/envs/p4env/share/psi4/basis/def2-tzvpp-jkfit.gbs 

   => Loading Basis Set <=

    Name: DEF2-TZVPPD
    Role: ORBITAL
    Keyword: BASIS
    atoms 1-2 entry AG         line  2174 (ECP: line  3646) file /work/zw18965/.conda/envs/p4env/share/psi4/basis/def2-tzvppd.gbs 

    !!!  WARNING: ECP capability is in beta. Please check occupations closely.  !!!

  Reading orbitals from file 180, no projection.

  ==> Pre-Iterations <==

   -------------------------------------------------------
    Irrep   Nso     Nmo     Nalpha   Nbeta   Ndocc  Nsocc
   -------------------------------------------------------
     Ag        23      23       0       0       0       0
     B1g        7       7       0       0       0       0
     B2g       13      13       0       0       0       0
     B3g       13      13       0       0       0       0
     Au         7       7       0       0       0       0
     B1u       23      23       0       0       0       0
     B2u       13      13       0       0       0       0
     B3u       13      13       0       0       0       0
   -------------------------------------------------------
    Total     112     112      19      19      19       0
   -------------------------------------------------------

  ==> Integral Setup <==

  ==> DiskDFJK: Density-Fitted J/K Matrices <==

    J tasked:                  Yes
    K tasked:                  Yes
    wK tasked:                 Yes
    Omega:               2.500E-01
    OpenMP threads:             24
    Integrals threads:          24
    Memory [MiB]:           102703
    Algorithm:                Core
    Integral Cache:           NONE
    Schwarz Cutoff:          1E-12
    Fitting Condition:       1E-10

   => Auxiliary Basis Set <=

  Basis Set: (DEF2-TZVPPD AUX)
    Blend: DEF2-TZVPP-JKFIT
    Number of shells: 98
    Number of basis function: 510
    Number of Cartesian functions: 768
    Spherical Harmonics?: true
    Max angular momentum: 6

  Cached 100.0% of DFT collocation blocks in 0.287 [GiB].

  Minimum eigenvalue in the overlap matrix is 4.5152460466E-03.
  Using Symmetric Orthogonalization.

  SCF Guess: Orbitals guess was supplied from a previous computation.

  ==> Iterations <==

                           Total Energy        Delta E     RMS |[F,P]|

   @DF-RKS iter   0:  -293.70317912837464   -2.93703e+02   1.14969e-04 
   @DF-RKS iter   1:  -293.70313087660190    4.82518e-05   4.30340e-06 DIIS
   @DF-RKS iter   2:  -293.70313088677682   -1.01749e-08   2.86077e-06 DIIS
   @DF-RKS iter   3:  -293.70313089069094   -3.91412e-09   7.14752e-07 DIIS
   @DF-RKS iter   4:  -293.70313089150977   -8.18829e-10   2.52645e-07 DIIS
   @DF-RKS iter   5:  -293.70313089176443   -2.54659e-10   1.14380e-07 DIIS
   @DF-RKS iter   6:  -293.70313089180672   -4.22915e-11   3.94889e-08 DIIS
   @DF-RKS iter   7:  -293.70313089181485   -8.12861e-12   1.27026e-08 DIIS
   @DF-RKS iter   8:  -293.70313089181536   -5.11591e-13   3.05614e-09 DIIS
  Energy and wave function converged.


  ==> Post-Iterations <==

    Orbital Energies [Eh]
    ---------------------

    Doubly Occupied:                                                      

       1Ag    -3.851443     1B1u   -3.850839     2Ag    -2.449913  
       1B3u   -2.442926     1B2u   -2.442926     2B1u   -2.442613  
       1B2g   -2.442279     1B3g   -2.442279     3Ag    -0.469410  
       2B3u   -0.453525     2B2u   -0.453525     1B1g   -0.433112  
       4Ag    -0.433102     1Au    -0.425605     3B1u   -0.425596  
       2B2g   -0.411820     2B3g   -0.411820     4B1u   -0.403827  
       5Ag    -0.259098  

    Virtual:                                                              

       5B1u   -0.014976     6Ag     0.038026     3B3u    0.041248  
       3B2u    0.041248     3B3g    0.077544     3B2g    0.077544  
       6B1u    0.104099     7Ag     0.158584     7B1u    0.180110  
       8Ag     0.238024     4B2u    0.242870     4B3u    0.242870  
       4B3g    0.311866     4B2g    0.311866     8B1u    0.461120  
       9Ag     0.475450     2B1g    0.475460     5B2u    0.511789  
       5B3u    0.511789     9B1u    0.560270     2Au     0.560274  
      10Ag     0.666153     5B2g    0.671930     5B3g    0.671930  
      10B1u    0.791330    11Ag     1.545118     6B3u    1.673105  
       6B2u    1.673105     7B3u    1.708849     7B2u    1.708849  
       3B1g    1.715195    12Ag     1.715224     6B2g    1.719782  
       6B3g    1.719782     8B3u    1.727841     8B2u    1.727841  
       7B2g    1.729820     7B3g    1.729820    11B1u    1.730018  
       3Au     1.743433    12B1u    1.743467    13Ag     1.814275  
       8B2g    1.849341     8B3g    1.849341    13B1u    1.870995  
      14Ag     2.033863    15Ag     2.157127     4B1g    2.157181  
       9B3u    2.182910     9B2u    2.182910    14B1u    2.189903  
       4Au     2.189965    16Ag     2.252048     9B2g    2.257007  
       9B3g    2.257007    15B1u    2.406127    16B1u    2.455194  
      17Ag     4.867451    10B2u    4.867546    10B3u    4.867546  
       5B1g    4.901805    18Ag     4.901968    11B3u    4.909383  
      11B2u    4.909383    10B2g    4.910941    10B3g    4.910941  
       5Au     4.923972    17B1u    4.924135    11B3g    5.000775  
      11B2g    5.000775    18B1u    5.187076    12B3u    5.676588  
      12B2u    5.676588    19Ag     5.677846    20Ag     5.677966  
       6B1g    5.678358    19B1u    5.678436     6Au     5.678829  
      13B2u    5.679545    13B3u    5.679545    12B3g    5.679566  
      12B2g    5.679566    20B1u    5.680343    21Ag     5.680343  
      13B2g    5.680624    13B3g    5.680624     7Au     5.680766  
       7B1g    5.680766    21B1u    5.691579    22Ag    33.310193  
      22B1u   33.553012    23Ag   110.514978    23B1u  110.593421  

    Final Occupation by Irrep:
             Ag   B1g   B2g   B3g    Au   B1u   B2u   B3u 
    DOCC [     5,    1,    2,    2,    1,    4,    2,    2 ]

  @DF-RKS Final Energy:  -293.70313089181536

   => Energetics <=

    Nuclear Repulsion Energy =             74.5181482239597415
    One-Electron Energy =                -671.9265135560369799
    Two-Electron Energy =                 317.4508169919380407
    DFT Exchange-Correlation Energy =     -13.7447287916761809
    Empirical Dispersion Energy =          -0.0008537600000000
    VV10 Nonlocal Energy =                  0.0000000000000000
    Total Energy =                       -293.7031308918153059

Computation Completed


Properties will be evaluated at   0.000000,   0.000000,   0.000000 [a0]

Properties computed using the SCF density matrix

  Nuclear Dipole Moment: [e a0]
     X:     0.0000      Y:     0.0000      Z:     0.0000

  Electronic Dipole Moment: [e a0]
     X:     0.0000      Y:     0.0000      Z:     0.0000

  Dipole Moment: [e a0]
     X:     0.0000      Y:     0.0000      Z:     0.0000     Total:     0.0000

  Dipole Moment: [D]
     X:     0.0000      Y:     0.0000      Z:     0.0000     Total:     0.0000


*** tstop() called on bp1-compute00159.data.bp.acrc.priv at Fri Oct 29 08:27:53 2021
Module time:
	user time   =      61.22 seconds =       1.02 minutes
	system time =       2.86 seconds =       0.05 minutes
	total time  =          5 seconds =       0.08 minutes
Total time:
	user time   =     979.59 seconds =      16.33 minutes
	system time =      43.64 seconds =       0.73 minutes
	total time  =        124 seconds =       2.07 minutes

*** tstart() called on bp1-compute00159.data.bp.acrc.priv
*** at Fri Oct 29 08:27:53 2021


         ------------------------------------------------------------
                                   SCF GRAD                          
                          Rob Parrish, Justin Turney,                
                       Andy Simmonett, and Alex Sokolov              
         ------------------------------------------------------------

  ==> Geometry <==

    Molecular point group: d2h
    Full point group: D_inf_h

    Geometry (in Angstrom), charge = 0, multiplicity = 1:

       Center              X                  Y                   Z               Mass       
    ------------   -----------------  -----------------  -----------------  -----------------
         AG           0.000000000000     0.000000000000     1.281788246252   106.905091600000
         AG           0.000000000000     0.000000000000    -1.281788246252   106.905091600000

  Nuclear repulsion =   74.518148223959741

  ==> Basis Set <==

  Basis Set: DEF2-TZVPPD
    Blend: DEF2-TZVPPD
    Number of shells: 32
    Number of basis function: 112
    Number of Cartesian functions: 142
    Spherical Harmonics?: true
    Max angular momentum: 4

  Core potential: DEF2-TZVPPD
    Number of shells: 8
    Number of ECP primitives: 28
    Number of ECP core electrons: 56
    Max angular momentum: 3

  ==> DFJKGrad: Density-Fitted SCF Gradients <==

    Gradient:                    1
    J tasked:                  Yes
    K tasked:                  Yes
    wK tasked:                 Yes
    Omega:               2.500E-01
    OpenMP threads:             24
    Integrals threads:          24
    Memory [MiB]:           102996
    Schwarz Cutoff:          0E+00
    Fitting Condition:       1E-10

   => Auxiliary Basis Set <=

  Basis Set: (DEF2-TZVPPD AUX)
    Blend: DEF2-TZVPP-JKFIT
    Number of shells: 98
    Number of basis function: 510
    Number of Cartesian functions: 768
    Spherical Harmonics?: true
    Max angular momentum: 6

  ==> DFT Potential <==

   => Composite Functional: M11-D3BJ <= 

    M11 Meta-GGA XC Functional

    R. Peverati and D. G. Truhlar, J. Phys. Chem. Lett., 2, 2810, 2011


    Deriv               =              1
    GGA                 =           TRUE
    Meta                =           TRUE

    Exchange Hybrid     =           TRUE
    MP2 Hybrid          =          FALSE

   => Exchange Functionals <=

    1.0000   XC_HYB_MGGA_X_M11 [omega = 0.2500]

   => Exact (HF) Exchange <=

    0.5720            HF,LR [omega = 0.2500]
    0.4280               HF 

   => Correlation Functionals <=

    1.0000    XC_MGGA_C_M11

   => Molecular Quadrature <=

    Radial Scheme          =       TREUTLER
    Pruning Scheme         =           FLAT
    Nuclear Scheme         =       TREUTLER

    BS radius alpha        =              1
    Pruning alpha          =              1
    Radial Points          =             75
    Spherical Points       =            302
    Total Points           =          44842
    Total Blocks           =            422
    Max Points             =            255
    Max Functions          =            110


  -Total Gradient:
     Atom            X                  Y                   Z
    ------   -----------------  -----------------  -----------------
       1        0.000000000000    -0.000000000000    -0.169756494954
       2        0.000000000000    -0.000000000000     0.169756494954


*** tstop() called on bp1-compute00159.data.bp.acrc.priv at Fri Oct 29 08:27:58 2021
Module time:
	user time   =      40.79 seconds =       0.68 minutes
	system time =       2.67 seconds =       0.04 minutes
	total time  =          5 seconds =       0.08 minutes
Total time:
	user time   =    1022.04 seconds =      17.03 minutes
	system time =      46.40 seconds =       0.77 minutes
	total time  =        129 seconds =       2.15 minutes


  ==> Adding ECP gradient terms (computed numerically) <==

  -ECP Gradient:
     Atom            X                  Y                   Z
    ------   -----------------  -----------------  -----------------
       1       -0.000000000000     0.000000000000     0.169717619810
       2       -0.000000000000     0.000000000000    -0.169717619810


  -Total Gradient:
     Atom            X                  Y                   Z
    ------   -----------------  -----------------  -----------------
       1       -0.000000000000    -0.000000000000    -0.000038875145
       2       -0.000000000000    -0.000000000000     0.000038875145


			-----------------------------------------
			 OPTKING 2.0: for geometry optimizations 
			  - R.A. King,  Bethel University        
			-----------------------------------------
	At level 1: Red. Int., RFO, no backsteps, dynamic trust

	Previous internal coordinate definitions found.
	---Fragment 1 Geometry and Gradient---
	 AG          0.0000000000        0.0000000000        2.4222287362
	 AG          0.0000000000        0.0000000000       -2.4222287362
	            -0.0000000000       -0.0000000000       -0.0000388751
	            -0.0000000000       -0.0000000000        0.0000388751

	---Fragment 1 Intrafragment Coordinates---
	 - Coordinate -           - BOHR/RAD -       - ANG/DEG -
	 R(1,2)           =         4.844457	       2.563576

	Current energy   :      -293.7031308918

	Energy change for the previous step:
		Projected    :         0.0000151242
		Actual       :         0.0000005670

	Performing BFGS update.
	Previous computed or guess Hessian on step 1.
	Steps to be used in Hessian update: 2 1
	Taking RFO optimization step.
	Going to follow RFO solution 1.
	Using RFO vector 1.
	Norm of target step-size    0.00048
	Projected energy change by RFO approximation:         0.0000000969

	Back-transformation to cartesian coordinates...
	Successfully converged to displaced geometry.

	--- Internal Coordinate Step in ANG or DEG, aJ/ANG or AJ/DEG ---
	 ---------------------------------------------------------------------------
	   Coordinate                Previous        Force       Change         New 
	   ----------                --------       ------       ------       ------
	    1 R(1,2)          =      2.563576     0.000320     0.000254     2.563831
	 ---------------------------------------------------------------------------
	Successfully symmetrized geometry.

  ==> Convergence Check <==

  Measures of convergence in internal coordinates in au.
  Criteria marked as inactive (o), active & met (*), and active & unmet ( ).
  ---------------------------------------------------------------------------------------------
   Step     Total Energy     Delta E     MAX Force     RMS Force      MAX Disp      RMS Disp   
  ---------------------------------------------------------------------------------------------
    Convergence Criteria    1.00e-06 *    3.00e-04 *             o    1.20e-03 *             o
  ---------------------------------------------------------------------------------------------
      3    -293.70313089    5.67e-07 *    3.89e-05 *    3.89e-05 o    4.81e-04 *    4.81e-04 o  ~
  ---------------------------------------------------------------------------------------------


  **** Optimization is complete! (in 3 steps) ****

  ==> Optimization Summary <==

  Measures of convergence in internal coordinates in au.
  --------------------------------------------------------------------------------------------------------------- ~
   Step         Total Energy             Delta E       MAX Force       RMS Force        MAX Disp        RMS Disp  ~
  --------------------------------------------------------------------------------------------------------------- ~
      1    -293.702932039244   -293.702932039244      0.00614156      0.00614156      0.06945440      0.06945440  ~
      2    -293.703131458824     -0.000199419580      0.00048920      0.00048920      0.00601086      0.00601086  ~
      3    -293.703130891815      0.000000567008      0.00003888      0.00003888      0.00048073      0.00048073  ~
  --------------------------------------------------------------------------------------------------------------- ~

	Writing optimization data to binary file.
	Final energy is   -293.7031308918154
	Final (previous) structure:
	Cartesian Geometry (in Angstrom)
	   AG     0.0000000000   0.0000000000   1.2817882412
	   AG     0.0000000000   0.0000000000  -1.2817882412
	Saving final (previous) structure.
			--------------------------
			 OPTKING Finished Execution 
			--------------------------

    Final optimized geometry and variables:
    Molecular point group: d2h
    Full point group: D_inf_h

    Geometry (in Angstrom), charge = 0, multiplicity = 1:

    AG           0.000000000000     0.000000000000     1.281788246252
    AG           0.000000000000     0.000000000000    -1.281788246252

	Removing binary optimization data file.
	Cleaning optimization helper files.
gradient() will perform analytic gradient computation.

*** tstart() called on bp1-compute00159.data.bp.acrc.priv
*** at Fri Oct 29 08:28:45 2021

   => Loading Basis Set <=

    Name: DEF2-TZVPPD
    Role: ORBITAL
    Keyword: BASIS
    atoms 1-2 entry AG         line  2174 (ECP: line  3646) file /work/zw18965/.conda/envs/p4env/share/psi4/basis/def2-tzvppd.gbs 

    !!!  WARNING: ECP capability is in beta. Please check occupations closely.  !!!


         ---------------------------------------------------------
                                   SCF
               by Justin Turney, Rob Parrish, Andy Simmonett
                          and Daniel G. A. Smith
                              RKS Reference
                       24 Threads, 137329 MiB Core
         ---------------------------------------------------------

  ==> Geometry <==

    Molecular point group: d2h
    Full point group: D_inf_h

    Geometry (in Angstrom), charge = 0, multiplicity = 1:

       Center              X                  Y                   Z               Mass       
    ------------   -----------------  -----------------  -----------------  -----------------
         AG           0.000000000000     0.000000000000     1.281788246252   106.905091600000
         AG           0.000000000000     0.000000000000    -1.281788246252   106.905091600000

  Running in d2h symmetry.

  Rotational constants: A = ************  B =      0.04799  C =      0.04799 [cm^-1]
  Rotational constants: A = ************  B =   1438.65362  C =   1438.65362 [MHz]
  Nuclear repulsion =   74.518148223959741

  Charge       = 0
  Multiplicity = 1
  Electrons    = 38
  Nalpha       = 19
  Nbeta        = 19

  ==> Algorithm <==

  SCF Algorithm Type is DF.
  DIIS enabled.
  MOM disabled.
  Fractional occupation disabled.
  Guess Type is SAD.
  Energy threshold   = 1.00e-08
  Density threshold  = 1.00e-08
  Integral threshold = 0.00e+00

  ==> Primary Basis <==

  Basis Set: DEF2-TZVPPD
    Blend: DEF2-TZVPPD
    Number of shells: 32
    Number of basis function: 112
    Number of Cartesian functions: 142
    Spherical Harmonics?: true
    Max angular momentum: 4

  Core potential: DEF2-TZVPPD
    Number of shells: 8
    Number of ECP primitives: 28
    Number of ECP core electrons: 56
    Max angular momentum: 3

  ==> DFT Potential <==

   => Composite Functional: M11-D3BJ <= 

    M11 Meta-GGA XC Functional

    R. Peverati and D. G. Truhlar, J. Phys. Chem. Lett., 2, 2810, 2011


    Deriv               =              1
    GGA                 =           TRUE
    Meta                =           TRUE

    Exchange Hybrid     =           TRUE
    MP2 Hybrid          =          FALSE

   => Exchange Functionals <=

    1.0000   XC_HYB_MGGA_X_M11 [omega = 0.2500]

   => Exact (HF) Exchange <=

    0.5720            HF,LR [omega = 0.2500]
    0.4280               HF 

   => Correlation Functionals <=

    1.0000    XC_MGGA_C_M11

   => Molecular Quadrature <=

    Radial Scheme          =       TREUTLER
    Pruning Scheme         =           FLAT
    Nuclear Scheme         =       TREUTLER

    BS radius alpha        =              1
    Pruning alpha          =              1
    Radial Points          =             75
    Spherical Points       =            302
    Total Points           =          44842
    Total Blocks           =            422
    Max Points             =            255
    Max Functions          =            110

   => M11-D3(BJ): Empirical Dispersion <=

    Grimme's -D3 (BJ-damping) Dispersion Correction
    Grimme S.; Ehrlich S.; Goerigk L. (2011), J. Comput. Chem., 32: 1456
    Parametrisation from:    L. Goerigk, J. Phys. Chem. Lett. 6, 3891-3896, 2015

        s6 =       1.000000
        s8 =       2.811200
        a1 =       0.000000
        a2 =      10.138900

   => Loading Basis Set <=

    Name: (DEF2-TZVPPD AUX)
    Role: JKFIT
    Keyword: DF_BASIS_SCF
    atoms 1-2 entry AG         line  4369 file /work/zw18965/.conda/envs/p4env/share/psi4/basis/def2-tzvpp-jkfit.gbs 

  ==> Pre-Iterations <==

   -------------------------------------------------------
    Irrep   Nso     Nmo     Nalpha   Nbeta   Ndocc  Nsocc
   -------------------------------------------------------
     Ag        23      23       0       0       0       0
     B1g        7       7       0       0       0       0
     B2g       13      13       0       0       0       0
     B3g       13      13       0       0       0       0
     Au         7       7       0       0       0       0
     B1u       23      23       0       0       0       0
     B2u       13      13       0       0       0       0
     B3u       13      13       0       0       0       0
   -------------------------------------------------------
    Total     112     112      19      19      19       0
   -------------------------------------------------------

  ==> Integral Setup <==

  ==> DiskDFJK: Density-Fitted J/K Matrices <==

    J tasked:                  Yes
    K tasked:                  Yes
    wK tasked:                 Yes
    Omega:               2.500E-01
    OpenMP threads:             24
    Integrals threads:          24
    Memory [MiB]:           102703
    Algorithm:                Core
    Integral Cache:           NONE
    Schwarz Cutoff:          1E-12
    Fitting Condition:       1E-10

   => Auxiliary Basis Set <=

  Basis Set: (DEF2-TZVPPD AUX)
    Blend: DEF2-TZVPP-JKFIT
    Number of shells: 98
    Number of basis function: 510
    Number of Cartesian functions: 768
    Spherical Harmonics?: true
    Max angular momentum: 6

  Cached 100.0% of DFT collocation blocks in 0.287 [GiB].

  Minimum eigenvalue in the overlap matrix is 4.5152460466E-03.
  Using Symmetric Orthogonalization.

  SCF Guess: Superposition of Atomic Densities via on-the-fly atomic UHF.

  ==> Iterations <==

                           Total Energy        Delta E     RMS |[F,P]|

   @DF-RKS iter SAD:  -293.14868349873240   -2.93149e+02   0.00000e+00 
   @DF-RKS iter   1:  -293.68231961054505   -5.33636e-01   5.52633e-03 DIIS
   @DF-RKS iter   2:  -293.69000776583772   -7.68816e-03   5.12049e-03 DIIS
   @DF-RKS iter   3:  -293.70275946310289   -1.27517e-02   3.61816e-04 DIIS
   @DF-RKS iter   4:  -293.70300370057373   -2.44237e-04   2.74961e-04 DIIS
   @DF-RKS iter   5:  -293.70309253019923   -8.88296e-05   9.13141e-05 DIIS
   @DF-RKS iter   6:  -293.70312583391495   -3.33037e-05   2.93247e-05 DIIS
   @DF-RKS iter   7:  -293.70313057853735   -4.74462e-06   7.61091e-06 DIIS
   @DF-RKS iter   8:  -293.70313088111703   -3.02580e-07   1.75053e-06 DIIS
   @DF-RKS iter   9:  -293.70313089119060   -1.00736e-08   4.36073e-07 DIIS
   @DF-RKS iter  10:  -293.70313089177051   -5.79917e-10   1.02119e-07 DIIS
   @DF-RKS iter  11:  -293.70313089181332   -4.28031e-11   2.40938e-08 DIIS
   @DF-RKS iter  12:  -293.70313089181559   -2.27374e-12   4.44175e-09 DIIS
  Energy and wave function converged.


  ==> Post-Iterations <==

    Orbital Energies [Eh]
    ---------------------

    Doubly Occupied:                                                      

       1Ag    -3.851443     1B1u   -3.850839     2Ag    -2.449913  
       1B2u   -2.442926     1B3u   -2.442926     2B1u   -2.442613  
       1B3g   -2.442279     1B2g   -2.442279     3Ag    -0.469410  
       2B2u   -0.453525     2B3u   -0.453525     1B1g   -0.433112  
       4Ag    -0.433102     1Au    -0.425605     3B1u   -0.425596  
       2B2g   -0.411820     2B3g   -0.411820     4B1u   -0.403827  
       5Ag    -0.259098  

    Virtual:                                                              

       5B1u   -0.014976     6Ag     0.038026     3B2u    0.041248  
       3B3u    0.041248     3B3g    0.077544     3B2g    0.077544  
       6B1u    0.104099     7Ag     0.158584     7B1u    0.180110  
       8Ag     0.238024     4B2u    0.242870     4B3u    0.242870  
       4B2g    0.311866     4B3g    0.311866     8B1u    0.461120  
       9Ag     0.475450     2B1g    0.475460     5B2u    0.511789  
       5B3u    0.511789     9B1u    0.560270     2Au     0.560274  
      10Ag     0.666153     5B2g    0.671930     5B3g    0.671930  
      10B1u    0.791330    11Ag     1.545118     6B2u    1.673105  
       6B3u    1.673105     7B3u    1.708849     7B2u    1.708849  
       3B1g    1.715195    12Ag     1.715224     6B2g    1.719782  
       6B3g    1.719782     8B3u    1.727841     8B2u    1.727841  
       7B2g    1.729820     7B3g    1.729820    11B1u    1.730018  
       3Au     1.743433    12B1u    1.743467    13Ag     1.814275  
       8B3g    1.849341     8B2g    1.849341    13B1u    1.870995  
      14Ag     2.033863    15Ag     2.157127     4B1g    2.157181  
       9B3u    2.182910     9B2u    2.182910    14B1u    2.189903  
       4Au     2.189965    16Ag     2.252048     9B2g    2.257007  
       9B3g    2.257007    15B1u    2.406127    16B1u    2.455194  
      17Ag     4.867451    10B3u    4.867546    10B2u    4.867546  
       5B1g    4.901805    18Ag     4.901968    11B3u    4.909383  
      11B2u    4.909383    10B2g    4.910941    10B3g    4.910941  
       5Au     4.923972    17B1u    4.924135    11B2g    5.000775  
      11B3g    5.000775    18B1u    5.187076    12B2u    5.676588  
      12B3u    5.676588    19Ag     5.677846    20Ag     5.677966  
       6B1g    5.678358    19B1u    5.678436     6Au     5.678829  
      13B2u    5.679545    13B3u    5.679545    12B2g    5.679566  
      12B3g    5.679566    20B1u    5.680343    21Ag     5.680343  
      13B3g    5.680624    13B2g    5.680624     7Au     5.680766  
       7B1g    5.680766    21B1u    5.691579    22Ag    33.310193  
      22B1u   33.553012    23Ag   110.514978    23B1u  110.593421  

    Final Occupation by Irrep:
             Ag   B1g   B2g   B3g    Au   B1u   B2u   B3u 
    DOCC [     5,    1,    2,    2,    1,    4,    2,    2 ]

  @DF-RKS Final Energy:  -293.70313089181559

   => Energetics <=

    Nuclear Repulsion Energy =             74.5181482239597415
    One-Electron Energy =                -671.9265136325709591
    Two-Electron Energy =                 317.4508170799131221
    DFT Exchange-Correlation Energy =     -13.7447288031175319
    Empirical Dispersion Energy =          -0.0008537600000000
    VV10 Nonlocal Energy =                  0.0000000000000000
    Total Energy =                       -293.7031308918155901

Computation Completed


Properties will be evaluated at   0.000000,   0.000000,   0.000000 [a0]

Properties computed using the SCF density matrix

  Nuclear Dipole Moment: [e a0]
     X:     0.0000      Y:     0.0000      Z:     0.0000

  Electronic Dipole Moment: [e a0]
     X:     0.0000      Y:     0.0000      Z:     0.0000

  Dipole Moment: [e a0]
     X:     0.0000      Y:     0.0000      Z:     0.0000     Total:     0.0000

  Dipole Moment: [D]
     X:     0.0000      Y:     0.0000      Z:     0.0000     Total:     0.0000


*** tstop() called on bp1-compute00159.data.bp.acrc.priv at Fri Oct 29 08:28:52 2021
Module time:
	user time   =      78.84 seconds =       1.31 minutes
	system time =       4.16 seconds =       0.07 minutes
	total time  =          7 seconds =       0.12 minutes
Total time:
	user time   =    1450.15 seconds =      24.17 minutes
	system time =      62.91 seconds =       1.05 minutes
	total time  =        183 seconds =       3.05 minutes

*** tstart() called on bp1-compute00159.data.bp.acrc.priv
*** at Fri Oct 29 08:28:52 2021


         ------------------------------------------------------------
                                   SCF GRAD                          
                          Rob Parrish, Justin Turney,                
                       Andy Simmonett, and Alex Sokolov              
         ------------------------------------------------------------

  ==> Geometry <==

    Molecular point group: d2h
    Full point group: D_inf_h

    Geometry (in Angstrom), charge = 0, multiplicity = 1:

       Center              X                  Y                   Z               Mass       
    ------------   -----------------  -----------------  -----------------  -----------------
         AG           0.000000000000     0.000000000000     1.281788246252   106.905091600000
         AG           0.000000000000     0.000000000000    -1.281788246252   106.905091600000

  Nuclear repulsion =   74.518148223959741

  ==> Basis Set <==

  Basis Set: DEF2-TZVPPD
    Blend: DEF2-TZVPPD
    Number of shells: 32
    Number of basis function: 112
    Number of Cartesian functions: 142
    Spherical Harmonics?: true
    Max angular momentum: 4

  Core potential: DEF2-TZVPPD
    Number of shells: 8
    Number of ECP primitives: 28
    Number of ECP core electrons: 56
    Max angular momentum: 3

  ==> DFJKGrad: Density-Fitted SCF Gradients <==

    Gradient:                    1
    J tasked:                  Yes
    K tasked:                  Yes
    wK tasked:                 Yes
    Omega:               2.500E-01
    OpenMP threads:             24
    Integrals threads:          24
    Memory [MiB]:           102996
    Schwarz Cutoff:          0E+00
    Fitting Condition:       1E-10

   => Auxiliary Basis Set <=

  Basis Set: (DEF2-TZVPPD AUX)
    Blend: DEF2-TZVPP-JKFIT
    Number of shells: 98
    Number of basis function: 510
    Number of Cartesian functions: 768
    Spherical Harmonics?: true
    Max angular momentum: 6

  ==> DFT Potential <==

   => Composite Functional: M11-D3BJ <= 

    M11 Meta-GGA XC Functional

    R. Peverati and D. G. Truhlar, J. Phys. Chem. Lett., 2, 2810, 2011


    Deriv               =              1
    GGA                 =           TRUE
    Meta                =           TRUE

    Exchange Hybrid     =           TRUE
    MP2 Hybrid          =          FALSE

   => Exchange Functionals <=

    1.0000   XC_HYB_MGGA_X_M11 [omega = 0.2500]

   => Exact (HF) Exchange <=

    0.5720            HF,LR [omega = 0.2500]
    0.4280               HF 

   => Correlation Functionals <=

    1.0000    XC_MGGA_C_M11

   => Molecular Quadrature <=

    Radial Scheme          =       TREUTLER
    Pruning Scheme         =           FLAT
    Nuclear Scheme         =       TREUTLER

    BS radius alpha        =              1
    Pruning alpha          =              1
    Radial Points          =             75
    Spherical Points       =            302
    Total Points           =          44842
    Total Blocks           =            422
    Max Points             =            255
    Max Functions          =            110


  -Total Gradient:
     Atom            X                  Y                   Z
    ------   -----------------  -----------------  -----------------
       1        0.000000000000    -0.000000000000    -0.169756492974
       2        0.000000000000    -0.000000000000     0.169756492974


*** tstop() called on bp1-compute00159.data.bp.acrc.priv at Fri Oct 29 08:28:57 2021
Module time:
	user time   =      41.18 seconds =       0.69 minutes
	system time =       2.74 seconds =       0.05 minutes
	total time  =          5 seconds =       0.08 minutes
Total time:
	user time   =    1493.18 seconds =      24.89 minutes
	system time =      65.75 seconds =       1.10 minutes
	total time  =        188 seconds =       3.13 minutes


  ==> Adding ECP gradient terms (computed numerically) <==

  -ECP Gradient:
     Atom            X                  Y                   Z
    ------   -----------------  -----------------  -----------------
       1        0.000000000000     0.000000000000     0.169717611644
       2        0.000000000000     0.000000000000    -0.169717611644


  -Total Gradient:
     Atom            X                  Y                   Z
    ------   -----------------  -----------------  -----------------
       1        0.000000000000     0.000000000000    -0.000038881329
       2        0.000000000000     0.000000000000     0.000038881329


  Based on options and gradient (rms=2.24E-05), recommend projecting translations and projecting rotations.
hessian() will perform frequency computation by finite difference of analytic gradients.

         ----------------------------------------------------------
                                   FINDIF
                     R. A. King and Jonathon Misiewicz
         ---------------------------------------------------------

  Using finite-differences of gradients to determine vibrational frequencies and 
  normal modes.  Resulting frequencies are only valid at stationary points.
    Generating geometries for use with 3-point formula.
    Displacement size will be 5.00e-03.
    Number of atoms is 2.
    Number of irreps is 8.
    Number of SALCs is 1.
    Translations projected? 1. Rotations projected? 1.
    Index of SALCs per irrep:
     1 :  0 
     2 : 
     3 : 
     4 : 
     5 : 
     6 : 
     7 : 
     8 : 
    Number of SALCs per irrep:
     Irrep 1: 1
     Irrep 2: 0
     Irrep 3: 0
     Irrep 4: 0
     Irrep 5: 0
     Irrep 6: 0
     Irrep 7: 0
     Irrep 8: 0
    Number of geometries (including reference) is 3.
    Number of displacements per irrep:
      Irrep 1: 2
      Irrep 2: 0
      Irrep 3: 0
      Irrep 4: 0
      Irrep 5: 0
      Irrep 6: 0
      Irrep 7: 0
      Irrep 8: 0

  //>>>>>>>>>>>>>>>>>>>>>>>>>>>>>>>>>>>//
  //    Loading displacement 1 of 3    //
  //<<<<<<<<<<<<<<<<<<<<<<<<<<<<<<<<<<<//
gradient() will perform analytic gradient computation.

*** tstart() called on bp1-compute00159.data.bp.acrc.priv
*** at Fri Oct 29 08:29:46 2021

   => Loading Basis Set <=

    Name: DEF2-TZVPPD
    Role: ORBITAL
    Keyword: BASIS
    atoms 1-2 entry AG         line  2174 (ECP: line  3646) file /work/zw18965/.conda/envs/p4env/share/psi4/basis/def2-tzvppd.gbs 

    !!!  WARNING: ECP capability is in beta. Please check occupations closely.  !!!


         ---------------------------------------------------------
                                   SCF
               by Justin Turney, Rob Parrish, Andy Simmonett
                          and Daniel G. A. Smith
                              RKS Reference
                       24 Threads, 137329 MiB Core
         ---------------------------------------------------------

  ==> Geometry <==

    Molecular point group: d2h
    Full point group: D_inf_h

    Geometry (in Angstrom), charge = 0, multiplicity = 1:

       Center              X                  Y                   Z               Mass       
    ------------   -----------------  -----------------  -----------------  -----------------
         AG           0.000000000000     0.000000000000     1.281788246252   106.905091600000
         AG           0.000000000000     0.000000000000    -1.281788246252   106.905091600000

  Running in d2h symmetry.

  Rotational constants: A = ************  B =      0.04799  C =      0.04799 [cm^-1]
  Rotational constants: A = ************  B =   1438.65362  C =   1438.65362 [MHz]
  Nuclear repulsion =   74.518148223959741

  Charge       = 0
  Multiplicity = 1
  Electrons    = 38
  Nalpha       = 19
  Nbeta        = 19

  ==> Algorithm <==

  SCF Algorithm Type is DF.
  DIIS enabled.
  MOM disabled.
  Fractional occupation disabled.
  Guess Type is SAD.
  Energy threshold   = 1.00e-08
  Density threshold  = 1.00e-08
  Integral threshold = 0.00e+00

  ==> Primary Basis <==

  Basis Set: DEF2-TZVPPD
    Blend: DEF2-TZVPPD
    Number of shells: 32
    Number of basis function: 112
    Number of Cartesian functions: 142
    Spherical Harmonics?: true
    Max angular momentum: 4

  Core potential: DEF2-TZVPPD
    Number of shells: 8
    Number of ECP primitives: 28
[...]
    0.4280               HF 

   => Correlation Functionals <=

    1.0000    XC_MGGA_C_M11

   => Molecular Quadrature <=

    Radial Scheme          =       TREUTLER
    Pruning Scheme         =           FLAT
    Nuclear Scheme         =       TREUTLER

    BS radius alpha        =              1
    Pruning alpha          =              1
    Radial Points          =             75
    Spherical Points       =            302
    Total Points           =          44842
    Total Blocks           =            422
    Max Points             =            255
    Max Functions          =            110

   => M11-D3(BJ): Empirical Dispersion <=

    Grimme's -D3 (BJ-damping) Dispersion Correction
    Grimme S.; Ehrlich S.; Goerigk L. (2011), J. Comput. Chem., 32: 1456
    Parametrisation from:    L. Goerigk, J. Phys. Chem. Lett. 6, 3891-3896, 2015

        s6 =       1.000000
        s8 =       2.811200
        a1 =       0.000000
        a2 =      10.138900

   => Loading Basis Set <=

    Name: (DEF2-TZVPPD AUX)
    Role: JKFIT
    Keyword: DF_BASIS_SCF
    atoms 1-2 entry AG         line  4369 file /work/zw18965/.conda/envs/p4env/share/psi4/basis/def2-tzvpp-jkfit.gbs 

  ==> Pre-Iterations <==

   -------------------------------------------------------
    Irrep   Nso     Nmo     Nalpha   Nbeta   Ndocc  Nsocc
   -------------------------------------------------------
     Ag        23      23       0       0       0       0
     B1g        7       7       0       0       0       0
     B2g       13      13       0       0       0       0
     B3g       13      13       0       0       0       0
     Au         7       7       0       0       0       0
     B1u       23      23       0       0       0       0
     B2u       13      13       0       0       0       0
     B3u       13      13       0       0       0       0
   -------------------------------------------------------
    Total     112     112      19      19      19       0
   -------------------------------------------------------

  ==> Integral Setup <==

  ==> DiskDFJK: Density-Fitted J/K Matrices <==

    J tasked:                  Yes
    K tasked:                  Yes
    wK tasked:                 Yes
    Omega:               2.500E-01
    OpenMP threads:             24
    Integrals threads:          24
    Memory [MiB]:           102703
    Algorithm:                Core
    Integral Cache:           NONE
    Schwarz Cutoff:          1E-12
    Fitting Condition:       1E-10

   => Auxiliary Basis Set <=

  Basis Set: (DEF2-TZVPPD AUX)
    Blend: DEF2-TZVPP-JKFIT
    Number of shells: 98
    Number of basis function: 510
    Number of Cartesian functions: 768
    Spherical Harmonics?: true
    Max angular momentum: 6

  Cached 100.0% of DFT collocation blocks in 0.287 [GiB].

  Minimum eigenvalue in the overlap matrix is 4.5183295698E-03.
  Using Symmetric Orthogonalization.

  SCF Guess: Superposition of Atomic Densities via on-the-fly atomic UHF.

  ==> Iterations <==

                           Total Energy        Delta E     RMS |[F,P]|

   @DF-RKS iter SAD:  -293.18082938866382   -2.93181e+02   0.00000e+00 
   @DF-RKS iter   1:  -293.68406758647262   -5.03238e-01   5.25732e-03 DIIS
   @DF-RKS iter   2:  -293.69154766848891   -7.48008e-03   4.79426e-03 DIIS
   @DF-RKS iter   3:  -293.70278957590995   -1.12419e-02   3.49701e-04 DIIS
   @DF-RKS iter   4:  -293.70301640149097   -2.26826e-04   2.62480e-04 DIIS
   @DF-RKS iter   5:  -293.70309625412608   -7.98526e-05   9.02051e-05 DIIS
   @DF-RKS iter   6:  -293.70312592171865   -2.96676e-05   2.89408e-05 DIIS
   @DF-RKS iter   7:  -293.70313033734874   -4.41563e-06   7.18792e-06 DIIS
   @DF-RKS iter   8:  -293.70313061730940   -2.79961e-07   1.76571e-06 DIIS
   @DF-RKS iter   9:  -293.70313062811232   -1.08029e-08   4.61729e-07 DIIS
   @DF-RKS iter  10:  -293.70313062876056   -6.48242e-10   1.19192e-07 DIIS
   @DF-RKS iter  11:  -293.70313062881667   -5.61045e-11   2.46128e-08 DIIS
   @DF-RKS iter  12:  -293.70313062881922   -2.55795e-12   4.58014e-09 DIIS
  Energy and wave function converged.


  ==> Post-Iterations <==

    Orbital Energies [Eh]
    ---------------------

    Doubly Occupied:                                                      

       1Ag    -3.851440     1B1u   -3.850837     2Ag    -2.449903  
       1B3u   -2.442924     1B2u   -2.442924     2B1u   -2.442613  
       1B2g   -2.442277     1B3g   -2.442277     3Ag    -0.469382  
       2B3u   -0.453504     2B2u   -0.453504     1B1g   -0.433108  
       4Ag    -0.433098     1Au    -0.425607     3B1u   -0.425598  
       2B3g   -0.411830     2B2g   -0.411830     4B1u   -0.403841  
       5Ag    -0.259086  

    Virtual:                                                              

       5B1u   -0.014983     6Ag     0.038024     3B3u    0.041251  
       3B2u    0.041251     3B2g    0.077542     3B3g    0.077542  
       6B1u    0.104091     7Ag     0.158588     7B1u    0.180115  
       8Ag     0.238014     4B3u    0.242880     4B2u    0.242880  
       4B3g    0.311852     4B2g    0.311852     8B1u    0.461062  
       9Ag     0.475455     2B1g    0.475465     5B3u    0.511754  
       5B2u    0.511754     9B1u    0.560257     2Au     0.560262  
      10Ag     0.666130     5B3g    0.671919     5B2g    0.671919  
      10B1u    0.791302    11Ag     1.545353     6B3u    1.673171  
       6B2u    1.673171     7B2u    1.708860     7B3u    1.708860  
       3B1g    1.715216    12Ag     1.715244     6B3g    1.719759  
       6B2g    1.719759     8B2u    1.727841     8B3u    1.727841  
       7B3g    1.729816     7B2g    1.729816    11B1u    1.730005  
       3Au     1.743410    12B1u    1.743444    13Ag     1.814270  
       8B2g    1.849253     8B3g    1.849253    13B1u    1.870886  
      14Ag     2.033757    15Ag     2.157127     4B1g    2.157181  
       9B2u    2.182965     9B3u    2.182965    14B1u    2.189895  
       4Au     2.189957    16Ag     2.252132     9B3g    2.256954  
       9B2g    2.256954    15B1u    2.406025    16B1u    2.454990  
      17Ag     4.867443    10B2u    4.867611    10B3u    4.867611  
       5B1g    4.901825    18Ag     4.901988    11B3u    4.909384  
      11B2u    4.909384    10B2g    4.910940    10B3g    4.910940  
       5Au     4.923952    17B1u    4.924115    11B3g    5.000675  
      11B2g    5.000675    18B1u    5.186881    12B3u    5.676594  
      12B2u    5.676594    19Ag     5.677847    20Ag     5.677969  
       6B1g    5.678362    19B1u    5.678438     6Au     5.678830  
      13B3u    5.679545    13B2u    5.679545    12B3g    5.679566  
      12B2g    5.679566    20B1u    5.680341    21Ag     5.680342  
      13B2g    5.680620    13B3g    5.680620     7Au     5.680764  
       7B1g    5.680765    21B1u    5.691546    22Ag    33.310135  
      22B1u   33.552946    23Ag   110.514961    23B1u  110.593400  

    Final Occupation by Irrep:
             Ag   B1g   B2g   B3g    Au   B1u   B2u   B3u 
    DOCC [     5,    1,    2,    2,    1,    4,    2,    2 ]

  @DF-RKS Final Energy:  -293.70313062881922

   => Energetics <=

    Nuclear Repulsion Energy =             74.5076300243408980
    One-Electron Energy =                -671.9056302497107254
    Two-Electron Energy =                 317.4404287578645381
    DFT Exchange-Correlation Energy =     -13.7447053913139001
    Empirical Dispersion Energy =          -0.0008537700000000
    VV10 Nonlocal Energy =                  0.0000000000000000
    Total Energy =                       -293.7031306288192241

Computation Completed


Properties will be evaluated at   0.000000,   0.000000,   0.000000 [a0]

Properties computed using the SCF density matrix

  Nuclear Dipole Moment: [e a0]
     X:     0.0000      Y:     0.0000      Z:     0.0000

  Electronic Dipole Moment: [e a0]
     X:     0.0000      Y:     0.0000      Z:     0.0000

  Dipole Moment: [e a0]
     X:     0.0000      Y:     0.0000      Z:     0.0000     Total:     0.0000

  Dipole Moment: [D]
     X:     0.0000      Y:     0.0000      Z:     0.0000     Total:     0.0000


*** tstop() called on bp1-compute00159.data.bp.acrc.priv at Fri Oct 29 08:31:51 2021
Module time:
	user time   =      78.63 seconds =       1.31 minutes
	system time =       3.87 seconds =       0.06 minutes
	total time  =          6 seconds =       0.10 minutes
Total time:
	user time   =    2856.90 seconds =      47.62 minutes
	system time =     120.36 seconds =       2.01 minutes
	total time  =        362 seconds =       6.03 minutes

*** tstart() called on bp1-compute00159.data.bp.acrc.priv
*** at Fri Oct 29 08:31:51 2021


         ------------------------------------------------------------
                                   SCF GRAD                          
                          Rob Parrish, Justin Turney,                
                       Andy Simmonett, and Alex Sokolov              
         ------------------------------------------------------------

  ==> Geometry <==

    Molecular point group: d2h
    Full point group: D_inf_h

    Geometry (in Angstrom), charge = 0, multiplicity = 1:

       Center              X                  Y                   Z               Mass       
    ------------   -----------------  -----------------  -----------------  -----------------
         AG           0.000000000000     0.000000000000     1.281969195567   106.905091600000
         AG           0.000000000000     0.000000000000    -1.281969195567   106.905091600000

  Nuclear repulsion =   74.507630024340898

  ==> Basis Set <==

  Basis Set: DEF2-TZVPPD
    Blend: DEF2-TZVPPD
    Number of shells: 32
    Number of basis function: 112
    Number of Cartesian functions: 142
    Spherical Harmonics?: true
    Max angular momentum: 4

  Core potential: DEF2-TZVPPD
    Number of shells: 8
    Number of ECP primitives: 28
    Number of ECP core electrons: 56
    Max angular momentum: 3

  ==> DFJKGrad: Density-Fitted SCF Gradients <==

    Gradient:                    1
    J tasked:                  Yes
    K tasked:                  Yes
    wK tasked:                 Yes
    Omega:               2.500E-01
    OpenMP threads:             24
    Integrals threads:          24
    Memory [MiB]:           102996
    Schwarz Cutoff:          0E+00
    Fitting Condition:       1E-10

   => Auxiliary Basis Set <=

  Basis Set: (DEF2-TZVPPD AUX)
    Blend: DEF2-TZVPP-JKFIT
    Number of shells: 98
    Number of basis function: 510
    Number of Cartesian functions: 768
    Spherical Harmonics?: true
    Max angular momentum: 6

  ==> DFT Potential <==

   => Composite Functional: M11-D3BJ <= 

    M11 Meta-GGA XC Functional

    R. Peverati and D. G. Truhlar, J. Phys. Chem. Lett., 2, 2810, 2011


    Deriv               =              1
    GGA                 =           TRUE
    Meta                =           TRUE

    Exchange Hybrid     =           TRUE
    MP2 Hybrid          =          FALSE

   => Exchange Functionals <=

    1.0000   XC_HYB_MGGA_X_M11 [omega = 0.2500]

   => Exact (HF) Exchange <=

    0.5720            HF,LR [omega = 0.2500]
    0.4280               HF 

   => Correlation Functionals <=

    1.0000    XC_MGGA_C_M11

   => Molecular Quadrature <=

    Radial Scheme          =       TREUTLER
    Pruning Scheme         =           FLAT
    Nuclear Scheme         =       TREUTLER

    BS radius alpha        =              1
    Pruning alpha          =              1
    Radial Points          =             75
    Spherical Points       =            302
    Total Points           =          44842
    Total Blocks           =            422
    Max Points             =            255
    Max Functions          =            110


  -Total Gradient:
     Atom            X                  Y                   Z
    ------   -----------------  -----------------  -----------------
       1        0.000000000000    -0.000000000000    -0.169586462340
       2        0.000000000000    -0.000000000000     0.169586462340


*** tstop() called on bp1-compute00159.data.bp.acrc.priv at Fri Oct 29 08:31:56 2021
Module time:
	user time   =      40.86 seconds =       0.68 minutes
	system time =       2.64 seconds =       0.04 minutes
	total time  =          5 seconds =       0.08 minutes
Total time:
	user time   =    2900.08 seconds =      48.33 minutes
	system time =     123.17 seconds =       2.05 minutes
	total time  =        367 seconds =       6.12 minutes


  ==> Adding ECP gradient terms (computed numerically) <==

  -ECP Gradient:
     Atom            X                  Y                   Z
    ------   -----------------  -----------------  -----------------
       1        0.000000000000     0.000000000000     0.169598467759
       2        0.000000000000     0.000000000000    -0.169598467759


  -Total Gradient:
     Atom            X                  Y                   Z
    ------   -----------------  -----------------  -----------------
       1        0.000000000000     0.000000000000     0.000012005418
       2        0.000000000000     0.000000000000    -0.000012005418


         ----------------------------------------------------------
                                   FINDIF
                     R. A. King and Jonathon Misiewicz
         ---------------------------------------------------------

  Computing second-derivative from gradients using projected, 
  symmetry-adapted, cartesian coordinates.

  3 gradients passed in, including the reference geometry.
  Generating complete list of displacements from unique ones.


-------------------------------------------------------------


  ==> Harmonic Vibrational Analysis <==

  non-mass-weighted Hessian:       Symmetric? True   Hermitian? True   Lin Dep Dim?  5 (0)
  projection of translations (True) and rotations (True) removed 5 degrees of freedom (5)
  total projector:                 Symmetric? True   Hermitian? True   Lin Dep Dim?  5 (5)
  mass-weighted Hessian:           Symmetric? True   Hermitian? True   Lin Dep Dim?  5 (0)
  pre-proj  low-frequency mode:    0.0000  [cm^-1]
  pre-proj  low-frequency mode:    0.0000  [cm^-1]
  pre-proj  low-frequency mode:    0.0000  [cm^-1]
  pre-proj  low-frequency mode:    0.0000  [cm^-1]
  pre-proj  low-frequency mode:    0.0000  [cm^-1]
  pre-proj  all modes:['0.0000' '0.0000' '0.0000' '0.0000' '0.0000' '191.8317']
  projected mass-weighted Hessian: Symmetric? True   Hermitian? True   Lin Dep Dim?  5 (5)
  post-proj low-frequency mode:    0.0000  [cm^-1] (TR)
  post-proj low-frequency mode:    0.0000  [cm^-1] (TR)
  post-proj low-frequency mode:    0.0000  [cm^-1] (TR)
  post-proj low-frequency mode:    0.0000  [cm^-1] (TR)
  post-proj low-frequency mode:    0.0000  [cm^-1] (TR)
  post-proj  all modes:['0.0000' '0.0000' '0.0000' '0.0000' '0.0000' '191.8317']

  Vibration                       6           
  Freq [cm^-1]                 191.8317       
  Irrep                           Ag          
  Reduced mass [u]             106.9051       
  Force const [mDyne/A]         2.3179        
  Turning point v=0 [a0]        0.0766        
  RMS dev v=0 [a0 u^1/2]        0.5602        
  Char temp [K]                276.0031       
  ----------------------------------------------------------------------------------
      1   AG               0.00  0.00  0.71   
      2   AG               0.00  0.00 -0.71   

  ==> Thermochemistry Components <==

  Entropy, S
    Electronic S            0.000 [cal/(mol K)]        0.000 [J/(mol K)]       0.00000000 [mEh/K] (multiplicity = 1)
    Translational S        41.983 [cal/(mol K)]      175.658 [J/(mol K)]       0.06690442 [mEh/K] (mol. weight = 213.8102 [u], P = 101325.00 [Pa])
    Rotational S           17.244 [cal/(mol K)]       72.148 [J/(mol K)]       0.02747985 [mEh/K] (symmetry no. = 2)
    Vibrational S           2.210 [cal/(mol K)]        9.247 [J/(mol K)]       0.00352195 [mEh/K]
  Total S                  61.437 [cal/(mol K)]      257.053 [J/(mol K)]       0.09790622 [mEh/K]
  Correction S              0.000 [cal/(mol K)]        0.000 [J/(mol K)]       0.00000000 [mEh/K]

  Constant volume heat capacity, Cv
    Electronic Cv           0.000 [cal/(mol K)]        0.000 [J/(mol K)]       0.00000000 [mEh/K]
    Translational Cv        2.981 [cal/(mol K)]       12.472 [J/(mol K)]       0.00475022 [mEh/K]
    Rotational Cv           1.987 [cal/(mol K)]        8.314 [J/(mol K)]       0.00316681 [mEh/K]
    Vibrational Cv          1.851 [cal/(mol K)]        7.745 [J/(mol K)]       0.00295003 [mEh/K]
  Total Cv                  6.819 [cal/(mol K)]       28.531 [J/(mol K)]       0.01086706 [mEh/K]
  Correction Cv             0.000 [cal/(mol K)]        0.000 [J/(mol K)]       0.00000000 [mEh/K]

  Constant pressure heat capacity, Cp
    Electronic Cp           0.000 [cal/(mol K)]        0.000 [J/(mol K)]       0.00000000 [mEh/K]
    Translational Cp        4.968 [cal/(mol K)]       20.786 [J/(mol K)]       0.00791703 [mEh/K]
    Rotational Cp           1.987 [cal/(mol K)]        8.314 [J/(mol K)]       0.00316681 [mEh/K]
    Vibrational Cp          1.851 [cal/(mol K)]        7.745 [J/(mol K)]       0.00295003 [mEh/K]
  Total Cp                  8.806 [cal/(mol K)]       36.846 [J/(mol K)]       0.01403387 [mEh/K]
  Correction Cp             0.000 [cal/(mol K)]        0.000 [J/(mol K)]       0.00000000 [mEh/K]

  ==> Thermochemistry Energy Analysis <==

  Raw electronic energy, E0
  Total E0, Electronic energy at well bottom at 0 [K]                 -293.70313089 [Eh]

  Zero-point energy, ZPE_vib = Sum_i nu_i / 2
    Electronic ZPE          0.000 [kcal/mol]        0.000 [kJ/mol]       0.00000000 [Eh]
    Translational ZPE       0.000 [kcal/mol]        0.000 [kJ/mol]       0.00000000 [Eh]
    Rotational ZPE          0.000 [kcal/mol]        0.000 [kJ/mol]       0.00000000 [Eh]
    Vibrational ZPE         0.274 [kcal/mol]        1.147 [kJ/mol]       0.00043702 [Eh]          95.916 [cm^-1]
  Correction ZPE            0.274 [kcal/mol]        1.147 [kJ/mol]       0.00043702 [Eh]          95.916 [cm^-1]
  Total ZPE, Electronic energy at 0 [K]                               -293.70269387 [Eh]

  Thermal Energy, E (includes ZPE)
    Electronic E            0.000 [kcal/mol]        0.000 [kJ/mol]       0.00000000 [Eh]
    Translational E         0.889 [kcal/mol]        3.718 [kJ/mol]       0.00141628 [Eh]
    Rotational E            0.592 [kcal/mol]        2.479 [kJ/mol]       0.00094418 [Eh]
    Vibrational E           0.634 [kcal/mol]        2.654 [kJ/mol]       0.00101067 [Eh]
  Correction E              2.115 [kcal/mol]        8.851 [kJ/mol]       0.00337113 [Eh]
  Total E, Electronic energy at  298.15 [K]                           -293.69975976 [Eh]

  Enthalpy, H_trans = E_trans + k_B * T
    Electronic H            0.000 [kcal/mol]        0.000 [kJ/mol]       0.00000000 [Eh]
    Translational H         1.481 [kcal/mol]        6.197 [kJ/mol]       0.00236046 [Eh]
    Rotational H            0.592 [kcal/mol]        2.479 [kJ/mol]       0.00094418 [Eh]
    Vibrational H           0.634 [kcal/mol]        2.654 [kJ/mol]       0.00101067 [Eh]
  Correction H              2.708 [kcal/mol]       11.330 [kJ/mol]       0.00431531 [Eh]
  Total H, Enthalpy at  298.15 [K]                                    -293.69881558 [Eh]

  Gibbs free energy, G = H - T * S
    Electronic G            0.000 [kcal/mol]        0.000 [kJ/mol]       0.00000000 [Eh]
    Translational G       -11.036 [kcal/mol]      -46.175 [kJ/mol]      -0.01758709 [Eh]
    Rotational G           -4.549 [kcal/mol]      -19.032 [kJ/mol]      -0.00724893 [Eh]
    Vibrational G          -0.025 [kcal/mol]       -0.103 [kJ/mol]      -0.00003940 [Eh]
  Correction G            -15.610 [kcal/mol]      -65.310 [kJ/mol]      -0.02487543 [Eh]
  Total G, Free enthalpy at  298.15 [K]                               -293.72800632 [Eh]

    Psi4 stopped on: Friday, 29 October 2021 08:32AM
    Psi4 wall time for execution: 0:06:54.87

*** Psi4 exiting successfully. Buy a developer a beer!
