Optimizer: Optimization complete!
 6 displacements needed.
 1 2 3 4 5 6
Warning: thermodynamics relations excluded imaginary frequencies: ['45.2066i']
Warning: used thermodynamics relations inappropriate for low-frequency modes: ['108.0643' '187.0769']
At level 1: Red. Int., RFO, no backsteps, dynamic trust
At level 1: Red. Int., RFO, no backsteps, dynamic trust
At level 1: Red. Int., RFO, no backsteps, dynamic trust
At level 1: Red. Int., RFO, no backsteps, dynamic trust
At level 1: Red. Int., RFO, no backsteps, dynamic trust
At level 1: Red. Int., RFO, no backsteps, dynamic trust
v,
    F. A. Evangelista, J. M. Turney, T. D. Crawford, and C. D. Sherrill,
    J. Chem. Theory Comput. 13(7) pp 3185--3197 (2017).
    (doi: 10.1021/acs.jctc.7b00174)


                         Additional Contributions by
    P. Kraus, H. Kruse, M. H. Lechner, M. C. Schieber, R. A. Shaw,
    A. Alenaizan, R. Galvelis, Z. L. Glick, S. Lehtola, and J. P. Misiewicz

    -----------------------------------------------------------------------


    Psi4 started on: Friday, 29 October 2021 08:29AM

    Process ID: 114777
    Host:       bp1-compute00092.data.bp.acrc.priv
    PSIDATADIR: /work/zw18965/.conda/envs/p4env/share/psi4
    Memory:     500.0 MiB
    Threads:    24
    
  ==> Input File <==

--------------------------------------------------------------------------
memory 144 GB

molecule {
0 2
Ag       0.000000    1.533951   -0.000000 
Ag       1.328441   -0.766976    0.000000 
Ag      -1.328441   -0.766976   -0.000000 
 }

set reference uks
set dynamic_level 1
set basis Def2-TZVPPD

optimize("M11-D3BJ")
frequencies("M11-D3BJ")
--------------------------------------------------------------------------

  Memory set to 134.110 GiB by Python driver.
gradient() will perform analytic gradient computation.

*** tstart() called on bp1-compute00092.data.bp.acrc.priv
*** at Fri Oct 29 08:29:35 2021

   => Loading Basis Set <=

    Name: DEF2-TZVPPD
    Role: ORBITAL
    Keyword: BASIS
    atoms 1-3 entry AG         line  2174 (ECP: line  3646) file /work/zw18965/.conda/envs/p4env/share/psi4/basis/def2-tzvppd.gbs 

    !!!  WARNING: ECP capability is in beta. Please check occupations closely.  !!!


         ---------------------------------------------------------
                                   SCF
               by Justin Turney, Rob Parrish, Andy Simmonett
                          and Daniel G. A. Smith
                              UKS Reference
                       24 Threads, 137329 MiB Core
         ---------------------------------------------------------

  ==> Geometry <==

    Molecular point group: c2v
    Full point group: C2v

    Geometry (in Angstrom), charge = 0, multiplicity = 2:

       Center              X                  Y                   Z               Mass       
    ------------   -----------------  -----------------  -----------------  -----------------
         AG           0.000000000000    -0.000000000000     1.533951333333   106.905091600000
         AG           1.328441000000     0.000000000000    -0.766975666667   106.905091600000
         AG          -1.328441000000    -0.000000000000    -0.766975666667   106.905091600000

  Running in c2v symmetry.

  Rotational constants: A =      0.04468  B =      0.04468  C =      0.02234 [cm^-1]
  Rotational constants: A =   1339.38178  B =   1339.38143  C =    669.69080 [MHz]
  Nuclear repulsion =  215.703579372583732

  Charge       = 0
  Multiplicity = 2
  Electrons    = 57
  Nalpha       = 29
  Nbeta        = 28

  ==> Algorithm <==

  SCF Algorithm Type is DF.
  DIIS enabled.
  MOM disabled.
  Fractional occupation disabled.
  Guess Type is SAD.
  Energy threshold   = 1.00e-08
  Density threshold  = 1.00e-08
  Integral threshold = 0.00e+00

  ==> Primary Basis <==

  Basis Set: DEF2-TZVPPD
    Blend: DEF2-TZVPPD
    Number of shells: 48
    Number of basis function: 168
    Number of Cartesian functions: 213
    Spherical Harmonics?: true
    Max angular momentum: 4

  Core potential: DEF2-TZVPPD
    Number of shells: 12
    Number of ECP primitives: 42
    Number of ECP core electrons: 84
    Max angular momentum: 3

  ==> DFT Potential <==

   => Composite Functional: M11-D3BJ <= 

    M11 Meta-GGA XC Functional

    R. Peverati and D. G. Truhlar, J. Phys. Chem. Lett., 2, 2810, 2011


    Deriv               =              1
    GGA                 =           TRUE
    Meta                =           TRUE

    Exchange Hybrid     =           TRUE
    MP2 Hybrid          =          FALSE

   => Exchange Functionals <=

    1.0000   XC_HYB_MGGA_X_M11 [omega = 0.2500]

   => Exact (HF) Exchange <=

    0.5720            HF,LR [omega = 0.2500]
    0.4280               HF 

   => Correlation Functionals <=

    1.0000    XC_MGGA_C_M11

   => Molecular Quadrature <=

    Radial Scheme          =       TREUTLER
    Pruning Scheme         =           FLAT
    Nuclear Scheme         =       TREUTLER

    BS radius alpha        =              1
    Pruning alpha          =              1
    Radial Points          =             75
    Spherical Points       =            302
    Total Points           =          67397
    Total Blocks           =            591
    Max Points             =            255
    Max Functions          =            166

   => M11-D3(BJ): Empirical Dispersion <=

    Grimme's -D3 (BJ-damping) Dispersion Correction
    Grimme S.; Ehrlich S.; Goerigk L. (2011), J. Comput. Chem., 32: 1456
    Parametrisation from:    L. Goerigk, J. Phys. Chem. Lett. 6, 3891-3896, 2015

        s6 =       1.000000
        s8 =       2.811200
        a1 =       0.000000
        a2 =      10.138900

   => Loading Basis Set <=

    Name: (DEF2-TZVPPD AUX)
    Role: JKFIT
    Keyword: DF_BASIS_SCF
    atoms 1-3 entry AG         line  4369 file /work/zw18965/.conda/envs/p4env/share/psi4/basis/def2-tzvpp-jkfit.gbs 

  ==> Pre-Iterations <==

   -------------------------------------------------------
    Irrep   Nso     Nmo     Nalpha   Nbeta   Ndocc  Nsocc
   -------------------------------------------------------
     A1        59      59       0       0       0       0
     A2        27      27       0       0       0       0
     B1        49      49       0       0       0       0
     B2        33      33       0       0       0       0
   -------------------------------------------------------
    Total     168     168      29      28      28       1
   -------------------------------------------------------

  ==> Integral Setup <==

  ==> DiskDFJK: Density-Fitted J/K Matrices <==

    J tasked:                  Yes
    K tasked:                  Yes
    wK tasked:                 Yes
    Omega:               2.500E-01
    OpenMP threads:             24
    Integrals threads:          24
    Memory [MiB]:           102385
    Algorithm:                Core
    Integral Cache:           NONE
    Schwarz Cutoff:          1E-12
    Fitting Condition:       1E-10

   => Auxiliary Basis Set <=

  Basis Set: (DEF2-TZVPPD AUX)
    Blend: DEF2-TZVPP-JKFIT
    Number of shells: 147
    Number of basis function: 765
    Number of Cartesian functions: 1152
    Spherical Harmonics?: true
    Max angular momentum: 6

  Cached 100.0% of DFT collocation blocks in 0.597 [GiB].

  Minimum eigenvalue in the overlap matrix is 2.9352212695E-03.
  Using Symmetric Orthogonalization.

  SCF Guess: Superposition of Atomic Densities via on-the-fly atomic UHF.

  ==> Iterations <==

                           Total Energy        Delta E     RMS |[F,P]|

   @DF-UKS iter SAD:  -439.89598509837003   -4.39896e+02   0.00000e+00 
   @DF-UKS iter   1:  -440.51121692086826   -6.15232e-01   3.51007e-03 DIIS
   @DF-UKS iter   2:  -440.52334132395777   -1.21244e-02   3.44758e-03 DIIS
   @DF-UKS iter   3:  -440.54818807113884   -2.48467e-02   2.52386e-04 DIIS
   @DF-UKS iter   4:  -440.54890808292771   -7.20012e-04   1.74574e-04 DIIS
   @DF-UKS iter   5:  -440.54920353086629   -2.95448e-04   7.38816e-05 DIIS
   @DF-UKS iter   6:  -440.54930803648244   -1.04506e-04   2.40791e-05 DIIS
   @DF-UKS iter   7:  -440.54932809655418   -2.00601e-05   1.69298e-05 DIIS
   @DF-UKS iter   8:  -440.54933306474982   -4.96820e-06   8.49729e-06 DIIS
   @DF-UKS iter   9:  -440.54933619162239   -3.12687e-06   4.73687e-06 DIIS
   @DF-UKS iter  10:  -440.54933713874675   -9.47124e-07   2.65316e-06 DIIS
   @DF-UKS iter  11:  -440.54933753752175   -3.98775e-07   9.21839e-07 DIIS
   @DF-UKS iter  12:  -440.54933758198001   -4.44583e-08   4.76139e-07 DIIS
   @DF-UKS iter  13:  -440.54933758679590   -4.81589e-09   2.04459e-07 DIIS
   @DF-UKS iter  14:  -440.54933758782931   -1.03341e-09   7.10654e-08 DIIS
   @DF-UKS iter  15:  -440.54933758789218   -6.28688e-11   3.94158e-08 DIIS
   @DF-UKS iter  16:  -440.54933758790696   -1.47793e-11   1.13546e-08 DIIS
   @DF-UKS iter  17:  -440.54933758790878   -1.81899e-12   3.79314e-09 DIIS
  Energy and wave function converged.


  ==> Post-Iterations <==

   @Spin Contamination Metric:   1.976234319E-02
   @S^2 Expected:                7.500000000E-01
   @S^2 Observed:                7.697623432E-01
   @S   Expected:                5.000000000E-01
   @S   Observed:                5.000000000E-01

    Orbital Energies [Eh]
    ---------------------

    Alpha Occupied:                                                       

       1A1    -3.873933     1B1    -3.873559     2A1    -3.851879  
       3A1    -2.471342     4A1    -2.466637     2B1    -2.466557  
       3B1    -2.465634     1B2    -2.465119     1A2    -2.464672  
       5A1    -2.444499     4B1    -2.444260     2B2    -2.441759  
       6A1    -0.497141     7A1    -0.484525     3B2    -0.477313  
       5B1    -0.475058     8A1    -0.461956     4B2    -0.461088  
       2A2    -0.455291     6B1    -0.441627     3A2    -0.437405  
       7B1    -0.433640     9A1    -0.425565     4A2    -0.423924  
       5B2    -0.419899    10A1    -0.418770     8B1    -0.404352  
      11A1    -0.316080    12A1    -0.181605  

    Alpha Virtual:                                                        

       9B1    -0.029842     6B2     0.024726    13A1     0.031689  
      14A1     0.050457    10B1     0.060626     5A2     0.074721  
       7B2     0.090074    11B1     0.093370    15A1     0.122373  
      12B1     0.129311    16A1     0.163226    13B1     0.191533  
      17A1     0.204916     8B2     0.220688    18A1     0.221434  
      19A1     0.246230    14B1     0.249023     6A2     0.293192  
       9B2     0.304438    15B1     0.379687    16B1     0.448496  
      20A1     0.448845    21A1     0.452864    10B2     0.481426  
       7A2     0.486827    11B2     0.497932    17B1     0.579322  
      22A1     0.580903     8A2     0.615217    23A1     0.639676  
       9A2     0.665546    12B2     0.672073    24A1     0.683082  
      18B1     0.686015    19B1     0.752459    25A1     0.758211  
      20B1     0.802008    26A1     1.591693    21B1     1.595773  
      27A1     1.629171    28A1     1.644444    13B2     1.662316  
      14B2     1.673481    10A2     1.673859    29A1     1.684848  
      22B1     1.685245    11A2     1.695212    15B2     1.697118  
      16B2     1.701343    23B1     1.710668    12A2     1.711905  
      30A1     1.718063    17B2     1.718830    24B1     1.727089  
      18B2     1.731534    25B1     1.742756    31A1     1.746169  
      13A2     1.770620    26B1     1.775931    32A1     1.802545  
      27B1     1.807513    33A1     1.816608    14A2     1.830296  
      19B2     1.837214    34A1     1.856627    28B1     1.857100  
      29B1     2.011629    35A1     2.054396    36A1     2.155695  
      20B2     2.160517    15A2     2.168707    30B1     2.190124  
      37A1     2.198697    21B2     2.200227    16A2     2.212176  
      31B1     2.221360    38A1     2.221771    17A2     2.234185  
      22B2     2.248605    32B1     2.333977    39A1     2.339799  
      33B1     2.369790    40A1     2.468864    34B1     2.634205  
      41A1     2.639844    42A1     4.840421    43A1     4.851653  
      35B1     4.856138    23B2     4.859388    18A2     4.869863  
      24B2     4.870789    44A1     4.876805    25B2     4.885111  
      45A1     4.887772    36B1     4.892243    19A2     4.894167  
      37B1     4.914098    26B2     4.914465    20A2     4.947122  
      38B1     4.964412    21A2     4.969882    27B2     4.974962  
      46A1     4.977101    39B1     5.118815    47A1     5.123343  
      40B1     5.139863    28B2     5.653988    48A1     5.654004  
      22A2     5.654081    41B1     5.654846    49A1     5.655077  
      29B2     5.655637    23A2     5.655785    42B1     5.655903  
      50A1     5.656187    30B2     5.656726    43B1     5.657190  
      24A2     5.657274    31B2     5.657586    25A2     5.657718  
      51A1     5.657841    44B1     5.657957    45B1     5.662200  
      52A1     5.662921    53A1     5.678881    32B2     5.679951  
      26A2     5.680587    33B2     5.681922    46B1     5.682268  
      54A1     5.682500    27A2     5.683017    55A1     5.685393  
      47B1     5.686091    56A1    33.339952    48B1    33.666075  
      57A1    33.679730    58A1   110.513459    49B1   110.614389  
      59A1   110.629747  

    Beta Occupied:                                                        

       1A1    -3.873078     1B1    -3.872707     2A1    -3.848727  
       3A1    -2.470758     2B1    -2.466810     4A1    -2.465423  
       1B2    -2.464675     1A2    -2.464251     3B1    -2.463681  
       5A1    -2.443257     4B1    -2.441168     2B2    -2.439008  
       6A1    -0.496677     7A1    -0.482401     3B2    -0.477001  
       5B1    -0.472255     8A1    -0.459869     4B2    -0.459729  
       2A2    -0.454165     6B1    -0.440316     3A2    -0.436863  
       7B1    -0.433485     9A1    -0.422418     4A2    -0.421195  
       5B2    -0.416741    10A1    -0.414856     8B1    -0.399847  
      11A1    -0.298998  

    Beta Virtual:                                                         

       9B1    -0.033994    12A1    -0.014858    13A1     0.013274  
       6B2     0.016885    10B1     0.043164    14A1     0.047303  
       5A2     0.055033     7B2     0.063716    11B1     0.078831  
      15A1     0.086741    12B1     0.086847    16A1     0.150232  
      13B1     0.174680    17A1     0.185468     8B2     0.210880  
      18A1     0.214764    14B1     0.243377    19A1     0.243690  
       6A2     0.290085     9B2     0.305392    15B1     0.383854  
      16B1     0.448446    20A1     0.452761    21A1     0.461004  
      10B2     0.484660     7A2     0.493601    11B2     0.503702  
      17B1     0.584733    22A1     0.589325     8A2     0.622861  
      23A1     0.637505     9A2     0.667062    12B2     0.678603  
      18B1     0.688870    24A1     0.689680    19B1     0.752334  
      25A1     0.762111    20B1     0.805843    26A1     1.592756  
      21B1     1.597974    27A1     1.631121    28A1     1.646505  
      13B2     1.662239    14B2     1.674517    10A2     1.675030  
      22B1     1.684480    29A1     1.684755    11A2     1.695038  
      15B2     1.696608    16B2     1.702176    23B1     1.711421  
      12A2     1.712934    30A1     1.718972    17B2     1.721236  
      24B1     1.728017    18B2     1.734067    25B1     1.743768  
      31A1     1.748285    13A2     1.771832    26B1     1.776915  
      32A1     1.803936    27B1     1.808505    33A1     1.820542  
      14A2     1.830685    19B2     1.837960    28B1     1.856529  
      34A1     1.857369    29B1     2.013706    35A1     2.054616  
      36A1     2.155507    20B2     2.161026    15A2     2.166738  
      30B1     2.189243    21B2     2.198080    37A1     2.198348  
      16A2     2.211056    38A1     2.221035    31B1     2.221932  
      17A2     2.232327    22B2     2.246523    32B1     2.332580  
      39A1     2.339468    33B1     2.368859    40A1     2.467381  
      34B1     2.634796    41A1     2.645222    42A1     4.840292  
      43A1     4.851364    35B1     4.855954    23B2     4.858999  
      18A2     4.869515    24B2     4.870575    44A1     4.876186  
      25B2     4.884731    45A1     4.887544    36B1     4.892005  
      19A2     4.893885    37B1     4.913035    26B2     4.913327  
      20A2     4.946573    38B1     4.964217    21A2     4.969228  
      27B2     4.974641    46A1     4.977053    39B1     5.118051  
      47A1     5.123907    40B1     5.140280    28B2     5.654348  
      48A1     5.654730    49A1     5.655168    22A2     5.655537  
      29B2     5.655755    41B1     5.656034    23A2     5.656687  
      24A2     5.656810    42B1     5.656831    50A1     5.657305  
      30B2     5.657596    43B1     5.657900    51A1     5.658298  
      25A2     5.658550    31B2     5.658940    44B1     5.658979  
      45B1     5.662627    52A1     5.664697    32B2     5.683525  
      53A1     5.683841    54A1     5.684419    26A2     5.684558  
      27A2     5.684823    46B1     5.685312    33B2     5.686388  
      55A1     5.689320    47B1     5.690758    56A1    33.341049  
      48B1    33.666647    57A1    33.681765    58A1   110.513482  
      49B1   110.614413    59A1   110.629808  

    Final Occupation by Irrep:
             A1    A2    B1    B2 
    DOCC [    11,    4,    8,    5 ]
    SOCC [     1,    0,    0,    0 ]

  @DF-UKS Final Energy:  -440.54933758790878

   => Energetics <=

    Nuclear Repulsion Energy =            215.7035793725837323
    One-Electron Energy =               -1214.9035541190746699
    Two-Electron Energy =                 579.2784719797257367
    DFT Exchange-Correlation Energy =     -20.6253074111435311
    Empirical Dispersion Energy =          -0.0025274100000000
    VV10 Nonlocal Energy =                  0.0000000000000000
    Total Energy =                       -440.5493375879087807

  UHF NO Occupations:
  HONO-2 :    8 B1 1.9992665
  HONO-1 :   11 A1 1.9913432
  HONO-0 :   12 A1 1.0000000
  LUNO+0 :   13 A1 0.0086568
  LUNO+1 :    9 B1 0.0007335
  LUNO+2 :   10 B1 0.0001547
  LUNO+3 :    6 B2 0.0001139


Computation Completed


Properties will be evaluated at   0.000000,   0.000000,   0.000000 [a0]

Properties computed using the SCF density matrix

  Nuclear Dipole Moment: [e a0]
     X:    -0.0000      Y:    -0.0000      Z:     0.0000

  Electronic Dipole Moment: [e a0]
     X:     0.0000      Y:     0.0000      Z:    -0.5073

  Dipole Moment: [e a0]
     X:    -0.0000      Y:    -0.0000      Z:    -0.5073     Total:     0.5073

  Dipole Moment: [D]
     X:    -0.0000      Y:    -0.0000      Z:    -1.2894     Total:     1.2894


*** tstop() called on bp1-compute00092.data.bp.acrc.priv at Fri Oct 29 08:30:00 2021
Module time:
	user time   =     478.70 seconds =       7.98 minutes
	system time =      23.86 seconds =       0.40 minutes
	total time  =         25 seconds =       0.42 minutes
Total time:
	user time   =     478.70 seconds =       7.98 minutes
	system time =      23.86 seconds =       0.40 minutes
	total time  =         25 seconds =       0.42 minutes

*** tstart() called on bp1-compute00092.data.bp.acrc.priv
*** at Fri Oct 29 08:30:00 2021


         ------------------------------------------------------------
                                   SCF GRAD                          
                          Rob Parrish, Justin Turney,                
                       Andy Simmonett, and Alex Sokolov              
         ------------------------------------------------------------

  ==> Geometry <==

    Molecular point group: c2v
    Full point group: C2v

    Geometry (in Angstrom), charge = 0, multiplicity = 2:

       Center              X                  Y                   Z               Mass       
    ------------   -----------------  -----------------  -----------------  -----------------
         AG           0.000000000000    -0.000000000000     1.533951333333   106.905091600000
         AG           1.328441000000     0.000000000000    -0.766975666667   106.905091600000
         AG          -1.328441000000    -0.000000000000    -0.766975666667   106.905091600000

  Nuclear repulsion =  215.703579372583732

  ==> Basis Set <==

  Basis Set: DEF2-TZVPPD
    Blend: DEF2-TZVPPD
    Number of shells: 48
    Number of basis function: 168
    Number of Cartesian functions: 213
    Spherical Harmonics?: true
    Max angular momentum: 4

  Core potential: DEF2-TZVPPD
    Number of shells: 12
    Number of ECP primitives: 42
    Number of ECP core electrons: 84
    Max angular momentum: 3

  ==> DFJKGrad: Density-Fitted SCF Gradients <==

    Gradient:                    1
    J tasked:                  Yes
    K tasked:                  Yes
    wK tasked:                 Yes
    Omega:               2.500E-01
    OpenMP threads:             24
    Integrals threads:          24
    Memory [MiB]:           102996
    Schwarz Cutoff:          0E+00
    Fitting Condition:       1E-10

   => Auxiliary Basis Set <=

  Basis Set: (DEF2-TZVPPD AUX)
    Blend: DEF2-TZVPP-JKFIT
    Number of shells: 147
    Number of basis function: 765
    Number of Cartesian functions: 1152
    Spherical Harmonics?: true
    Max angular momentum: 6

  ==> DFT Potential <==

   => Composite Functional: M11-D3BJ <= 

    M11 Meta-GGA XC Functional

    R. Peverati and D. G. Truhlar, J. Phys. Chem. Lett., 2, 2810, 2011


    Deriv               =              1
    GGA                 =           TRUE
    Meta                =           TRUE

    Exchange Hybrid     =           TRUE
    MP2 Hybrid          =          FALSE

   => Exchange Functionals <=

    1.0000   XC_HYB_MGGA_X_M11 [omega = 0.2500]

   => Exact (HF) Exchange <=

    0.5720            HF,LR [omega = 0.2500]
    0.4280               HF 

   => Correlation Functionals <=

    1.0000    XC_MGGA_C_M11

   => Molecular Quadrature <=

    Radial Scheme          =       TREUTLER
    Pruning Scheme         =           FLAT
    Nuclear Scheme         =       TREUTLER

    BS radius alpha        =              1
    Pruning alpha          =              1
    Radial Points          =             75
    Spherical Points       =            302
    Total Points           =          67397
    Total Blocks           =            591
    Max Points             =            255
    Max Functions          =            166


  -Total Gradient:
     Atom            X                  Y                   Z
    ------   -----------------  -----------------  -----------------
       1        0.000000000000     0.000000000000    -0.156150229879
       2       -0.162724411040    -0.000000000000     0.078067446549
       3        0.162724411040     0.000000000000     0.078067446549


*** tstop() called on bp1-compute00092.data.bp.acrc.priv at Fri Oct 29 08:30:08 2021
Module time:
	user time   =      95.95 seconds =       1.60 minutes
	system time =       4.92 seconds =       0.08 minutes
	total time  =          8 seconds =       0.13 minutes
Total time:
	user time   =     575.84 seconds =       9.60 minutes
	system time =      28.88 seconds =       0.48 minutes
	total time  =         33 seconds =       0.55 minutes


  ==> Adding ECP gradient terms (computed numerically) <==

  -ECP Gradient:
     Atom            X                  Y                   Z
    ------   -----------------  -----------------  -----------------
       1        0.000000000000     0.000000000000     0.138131060972
       2        0.164083026242     0.000000000000    -0.069065530569
       3       -0.164083026242    -0.000000000000    -0.069065530569


  -Total Gradient:
     Atom            X                  Y                   Z
    ------   -----------------  -----------------  -----------------
       1        0.000000000000     0.000000000000    -0.018019168907
       2        0.001358615202     0.000000000000     0.009001915980
       3       -0.001358615202    -0.000000000000     0.009001915980


			-----------------------------------------
			 OPTKING 2.0: for geometry optimizations 
			  - R.A. King,  Bethel University        
			-----------------------------------------
	At level 1: Red. Int., RFO, no backsteps, dynamic trust

	Internal coordinates to be generated automatically.
	Detected frag 1 with atoms:  1 2 3
	---Fragment 1 Bond Connectivity---
	 1 : 2 3
	 2 : 1 3
	 3 : 1 2

	---Fragment 1 Geometry and Gradient---
	 AG          0.0000000000       -0.0000000000        2.8987479098
	 AG          2.5103896638        0.0000000000       -1.4493739549
	 AG         -2.5103896638       -0.0000000000       -1.4493739549
	             0.0000000000        0.0000000000       -0.0180191689
	             0.0013586152        0.0000000000        0.0090019160
	            -0.0013586152       -0.0000000000        0.0090019160

	Previous optimization step data not found.  Starting new optimization.

	---Fragment 1 Intrafragment Coordinates---
	 - Coordinate -           - BOHR/RAD -       - ANG/DEG -
	 R(1,2)           =         5.020779	       2.656882
	 R(1,3)           =         5.020779	       2.656882
	 R(2,3)           =         5.020779	       2.656882
	 B(1,2,3)         =         1.047197	      59.999997
	 B(1,3,2)         =         1.047197	      59.999997
	 B(2,1,3)         =         1.047198	      60.000007

	Current energy   :      -440.5493375879

	Generating empirical Hessian (Schlegel '84) for each fragment.
	Taking RFO optimization step.
	Going to follow RFO solution 1.
	Using RFO vector 1.
	Norm of target step-size    0.18716
	Projected energy change by RFO approximation:        -0.0030484164

	Back-transformation to cartesian coordinates...
	Successfully converged to displaced geometry.

	--- Internal Coordinate Step in ANG or DEG, aJ/ANG or AJ/DEG ---
	 ---------------------------------------------------------------------------
	   Coordinate                Previous        Force       Change         New 
	   ----------                --------       ------       ------       ------
	    1 R(1,2)          =      2.656882     0.080733     0.065679     2.722561
	    2 R(1,3)          =      2.656882     0.080733     0.065679     2.722561
	    3 R(2,3)          =      2.656882    -0.044130    -0.024047     2.632835
	    4 B(1,2,3)        =     59.999997     0.000133     1.084333    61.084330
	    5 B(1,3,2)        =     59.999997     0.000133     1.084333    61.084330
	    6 B(2,1,3)        =     60.000007    -0.000265    -2.168666    57.831341
	 ---------------------------------------------------------------------------
	Successfully symmetrized geometry.

  ==> Convergence Check <==

  Measures of convergence in internal coordinates in au.
  Criteria marked as inactive (o), active & met (*), and active & unmet ( ).
  --------------------------------------------------------------------------------------------- ~
   Step     Total Energy     Delta E     MAX Force     RMS Force      MAX Disp      RMS Disp    ~
  --------------------------------------------------------------------------------------------- ~
    Convergence Criteria    1.00e-06 *    3.00e-04 *             o    1.20e-03 *             o  ~
  --------------------------------------------------------------------------------------------- ~
      1    -440.54933759   -4.41e+02      9.80e-03      6.31e-03 o    1.24e-01      7.64e-02 o  ~
  ---------------------------------------------------------------------------------------------

	Writing optimization data to binary file.
	Structure for next step:
	Cartesian Geometry (in Angstrom)
	   AG     0.0000000000  -0.0000000000   1.5887636045
	   AG     1.3164174921   0.0000000000  -0.7943818022
	   AG    -1.3164174921  -0.0000000000  -0.7943818022
			--------------------------
			 OPTKING Finished Execution 
			--------------------------

    Structure for next step:
    Molecular point group: c2v
    Full point group: C2v

    Geometry (in Angstrom), charge = 0, multiplicity = 2:

    AG           0.000000000000    -0.000000000000     1.588763610730
    AG           1.316417497265     0.000000000000    -0.794381805365
    AG          -1.316417497265    -0.000000000000    -0.794381805365

gradient() will perform analytic gradient computation.

*** tstart() called on bp1-compute00092.data.bp.acrc.priv
*** at Fri Oct 29 08:32:26 2021

   => Loading Basis Set <=

    Name: DEF2-TZVPPD
    Role: ORBITAL
    Keyword: BASIS
    atoms 1-3 entry AG         line  2174 (ECP: line  3646) file /work/zw18965/.conda/envs/p4env/share/psi4/basis/def2-tzvppd.gbs 

    !!!  WARNING: ECP capability is in beta. Please check occupations closely.  !!!


         ---------------------------------------------------------
                                   SCF
               by Justin Turney, Rob Parrish, Andy Simmonett
                          and Daniel G. A. Smith
                              UKS Reference
                       24 Threads, 137329 MiB Core
         ---------------------------------------------------------

  ==> Geometry <==

    Molecular point group: c2v
    Full point group: C2v

    Geometry (in Angstrom), charge = 0, multiplicity = 2:

       Center              X                  Y                   Z               Mass       
    ------------   -----------------  -----------------  -----------------  -----------------
         AG           0.000000000000    -0.000000000000     1.588763610730   106.905091600000
         AG           1.316417497265     0.000000000000    -0.794381805365   106.905091600000
         AG          -1.316417497265    -0.000000000000    -0.794381805365   106.905091600000

  Running in c2v symmetry.

  Rotational constants: A =      0.04550  B =      0.04165  C =      0.02174 [cm^-1]
  Rotational constants: A =   1363.95965  B =   1248.55875  C =    651.85522 [MHz]
  Nuclear repulsion =  212.891201683504875

  Charge       = 0
  Multiplicity = 2
  Electrons    = 57
  Nalpha       = 29
  Nbeta        = 28

  ==> Algorithm <==

  SCF Algorithm Type is DF.
  DIIS enabled.
  MOM disabled.
  Fractional occupation disabled.
  Guess Type is READ.
  Energy threshold   = 1.00e-08
  Density threshold  = 1.00e-08
  Integral threshold = 0.00e+00

  ==> Primary Basis <==

  Basis Set: DEF2-TZVPPD
    Blend: DEF2-TZVPPD
    Number of shells: 48
    Number of basis function: 168
    Number of Cartesian functions: 213
    Spherical Harmonics?: true
    Max angular momentum: 4

  Core potential: DEF2-TZVPPD
    Number of shells: 12
    Number of ECP primitives: 42
    Number of ECP core electrons: 84
    Max angular momentum: 3

  ==> DFT Potential <==

   => Composite Functional: M11-D3BJ <= 

    M11 Meta-GGA XC Functional

    R. Peverati and D. G. Truhlar, J. Phys. Chem. Lett., 2, 2810, 2011


    Deriv               =              1
    GGA                 =           TRUE
    Meta                =           TRUE

    Exchange Hybrid     =           TRUE
    MP2 Hybrid          =          FALSE

   => Exchange Functionals <=

    1.0000   XC_HYB_MGGA_X_M11 [omega = 0.2500]

   => Exact (HF) Exchange <=

    0.5720            HF,LR [omega = 0.2500]
    0.4280               HF 

   => Correlation Functionals <=

    1.0000    XC_MGGA_C_M11

   => Molecular Quadrature <=

    Radial Scheme          =       TREUTLER
    Pruning Scheme         =           FLAT
    Nuclear Scheme         =       TREUTLER

    BS radius alpha        =              1
    Pruning alpha          =              1
    Radial Points          =             75
    Spherical Points       =            302
    Total Points           =          67397
    Total Blocks           =            592
    Max Points             =            256
    Max Functions          =            165

   => M11-D3(BJ): Empirical Dispersion <=

    Grimme's -D3 (BJ-damping) Dispersion Correction
    Grimme S.; Ehrlich S.; Goerigk L. (2011), J. Comput. Chem., 32: 1456
    Parametrisation from:    L. Goerigk, J. Phys. Chem. Lett. 6, 3891-3896, 2015

        s6 =       1.000000
        s8 =       2.811200
        a1 =       0.000000
        a2 =      10.138900

   => Loading Basis Set <=

    Name: (DEF2-TZVPPD AUX)
    Role: JKFIT
    Keyword: DF_BASIS_SCF
    atoms 1-3 entry AG         line  4369 file /work/zw18965/.conda/envs/p4env/share/psi4/basis/def2-tzvpp-jkfit.gbs 

   => Loading Basis Set <=

    Name: DEF2-TZVPPD
    Role: ORBITAL
    Keyword: BASIS
    atoms 1-3 entry AG         line  2174 (ECP: line  3646) file /work/zw18965/.conda/envs/p4env/share/psi4/basis/def2-tzvppd.gbs 

    !!!  WARNING: ECP capability is in beta. Please check occupations closely.  !!!

  Reading orbitals from file 180, no projection.

  ==> Pre-Iterations <==

   -------------------------------------------------------
    Irrep   Nso     Nmo     Nalpha   Nbeta   Ndocc  Nsocc
   -------------------------------------------------------
     A1        59      59       0       0       0       0
     A2        27      27       0       0       0       0
     B1        49      49       0       0       0       0
     B2        33      33       0       0       0       0
   -------------------------------------------------------
    Total     168     168      29      28      28       1
   -------------------------------------------------------

  ==> Integral Setup <==

  ==> DiskDFJK: Density-Fitted J/K Matrices <==

    J tasked:                  Yes
    K tasked:                  Yes
    wK tasked:                 Yes
    Omega:               2.500E-01
    OpenMP threads:             24
    Integrals threads:          24
    Memory [MiB]:           102392
    Algorithm:                Core
    Integral Cache:           NONE
    Schwarz Cutoff:          1E-12
    Fitting Condition:       1E-10

   => Auxiliary Basis Set <=

  Basis Set: (DEF2-TZVPPD AUX)
    Blend: DEF2-TZVPP-JKFIT
    Number of shells: 147
    Number of basis function: 765
    Number of Cartesian functions: 1152
    Spherical Harmonics?: true
    Max angular momentum: 6

  Cached 100.0% of DFT collocation blocks in 0.590 [GiB].

  Minimum eigenvalue in the overlap matrix is 2.9264378482E-03.
  Using Symmetric Orthogonalization.

  SCF Guess: Orbitals guess was supplied from a previous computation.

  ==> Iterations <==

                           Total Energy        Delta E     RMS |[F,P]|

   @DF-UKS iter   0:  -440.56012473170961   -4.40560e+02   1.44186e-03 
   @DF-UKS iter   1:  -440.55144708552996    8.67765e-03   6.90666e-05 DIIS
   @DF-UKS iter   2:  -440.55146039910665   -1.33136e-05   6.82751e-05 DIIS
   @DF-UKS iter   3:  -440.55147125858934   -1.08595e-05   1.05592e-05 DIIS
   @DF-UKS iter   4:  -440.55147458400802   -3.32542e-06   6.97605e-06 DIIS
   @DF-UKS iter   5:  -440.55147634354375   -1.75954e-06   4.05925e-06 DIIS
   @DF-UKS iter   6:  -440.55147707032495   -7.26781e-07   2.31757e-06 DIIS
   @DF-UKS iter   7:  -440.55147729430064   -2.23976e-07   1.18585e-06 DIIS
   @DF-UKS iter   8:  -440.55147734137859   -4.70779e-08   5.95121e-07 DIIS
   @DF-UKS iter   9:  -440.55147735725154   -1.58730e-08   3.12282e-07 DIIS
   @DF-UKS iter  10:  -440.55147736035906   -3.10752e-09   1.52384e-07 DIIS
   @DF-UKS iter  11:  -440.55147736102981   -6.70752e-10   3.46178e-08 DIIS
   @DF-UKS iter  12:  -440.55147736106426   -3.44471e-11   8.01645e-09 DIIS
  Energy and wave function converged.


  ==> Post-Iterations <==

   @Spin Contamination Metric:   2.002857958E-02
   @S^2 Expected:                7.500000000E-01
   @S^2 Observed:                7.700285796E-01
   @S   Expected:                5.000000000E-01
   @S   Observed:                5.000000000E-01

    Orbital Energies [Eh]
    ---------------------

    Alpha Occupied:                                                       

       1A1    -3.873131     1B1    -3.872708     2A1    -3.849853  
       3A1    -2.470762     4A1    -2.465553     2B1    -2.465312  
       3B1    -2.464781     1B2    -2.464324     1A2    -2.463835  
       5A1    -2.442385     4B1    -2.442277     2B2    -2.440097  
       6A1    -0.493727     7A1    -0.484284     3B2    -0.475540  
       5B1    -0.469248     8A1    -0.460283     4B2    -0.459931  
       2A2    -0.452527     6B1    -0.439778     3A2    -0.435812  
       7B1    -0.432292     9A1    -0.425297     4A2    -0.423798  
       5B2    -0.420140    10A1    -0.419184     8B1    -0.405822  
      11A1    -0.313953    12A1    -0.183907  

    Alpha Virtual:                                                        

       9B1    -0.028881     6B2     0.025129    13A1     0.031781  
      14A1     0.049221    10B1     0.060669     5A2     0.074783  
       7B2     0.088802    11B1     0.093900    15A1     0.120974  
      12B1     0.127813    16A1     0.163693    13B1     0.191914  
      17A1     0.205976    18A1     0.220977     8B2     0.221618  
      19A1     0.243921    14B1     0.249758     6A2     0.294518  
       9B2     0.301732    15B1     0.375919    20A1     0.437119  
      16B1     0.448451    21A1     0.451400    10B2     0.480658  
       7A2     0.484702    11B2     0.493937    22A1     0.578239  
      17B1     0.578467     8A2     0.613660    23A1     0.637450  
       9A2     0.665893    12B2     0.669551    18B1     0.681643  
      24A1     0.681793    19B1     0.752781    25A1     0.755707  
      20B1     0.799400    26A1     1.581264    21B1     1.629040  
      27A1     1.648869    28A1     1.653106    13B2     1.661071  
      14B2     1.676132    10A2     1.679310    29A1     1.683592  
      22B1     1.686002    15B2     1.695253    11A2     1.700152  
      16B2     1.700744    23B1     1.712079    12A2     1.713749  
      30A1     1.715309    17B2     1.722555    24B1     1.729240  
      18B2     1.731510    25B1     1.739965    31A1     1.740342  
      13A2     1.765753    26B1     1.767002    32A1     1.797743  
      27B1     1.808503    33A1     1.811678    19B2     1.825398  
      14A2     1.829378    34A1     1.846072    28B1     1.851397  
      29B1     2.006426    35A1     2.046178    36A1     2.158122  
      20B2     2.160694    15A2     2.172385    30B1     2.193676  
      37A1     2.200190    21B2     2.203709    16A2     2.211668  
      38A1     2.218944    17A2     2.235305    31B1     2.237631  
      22B2     2.245428    39A1     2.312213    32B1     2.322700  
      33B1     2.363097    40A1     2.468236    34B1     2.622946  
      41A1     2.626937    42A1     4.847211    43A1     4.851618  
      23B2     4.857073    35B1     4.862528    24B2     4.878546  
      18A2     4.878737    44A1     4.880521    25B2     4.886318  
      45A1     4.887365    36B1     4.894679    19A2     4.895707  
      26B2     4.915169    37B1     4.915676    20A2     4.944884  
      46A1     4.961968    27B2     4.962736    38B1     4.967947  
      21A2     4.967959    47A1     5.097821    39B1     5.106351  
      40B1     5.134898    48A1     5.654853    28B2     5.654956  
      22A2     5.655219    41B1     5.655812    49A1     5.655827  
      29B2     5.656247    42B1     5.656588    23A2     5.656828  
      50A1     5.656986    30B2     5.657748    43B1     5.658128  
      24A2     5.658217    51A1     5.658496    31B2     5.658550  
      44B1     5.658608    25A2     5.658650    52A1     5.663165  
      45B1     5.664034    53A1     5.680578    32B2     5.681657  
      26A2     5.682040    33B2     5.683192    46B1     5.683447  
      54A1     5.683633    27A2     5.684209    55A1     5.685343  
      47B1     5.687027    56A1    33.327556    48B1    33.651656  
      57A1    33.660404    58A1   110.510782    49B1   110.610286  
      59A1   110.624044  

    Beta Occupied:                                                        

       1A1    -3.872270     1B1    -3.871850     2A1    -3.846605  
       3A1    -2.470001     2B1    -2.465553     4A1    -2.464509  
       1B2    -2.463872     1A2    -2.463407     3B1    -2.462846  
       5A1    -2.441133     4B1    -2.439125     2B2    -2.437308  
       6A1    -0.493455     7A1    -0.482134     3B2    -0.475154  
       5B1    -0.466545     4B2    -0.458627     8A1    -0.458163  
       2A2    -0.451466     6B1    -0.438332     3A2    -0.435266  
       7B1    -0.432094     9A1    -0.421988     4A2    -0.420884  
       5B2    -0.416876    10A1    -0.415290     8B1    -0.401383  
      11A1    -0.296370  

    Beta Virtual:                                                         

       9B1    -0.032987    12A1    -0.015631    13A1     0.013528  
       6B2     0.017566    10B1     0.043712    14A1     0.046355  
       5A2     0.056180     7B2     0.062971    11B1     0.079215  
      15A1     0.085549    12B1     0.086750    16A1     0.151424  
      13B1     0.175841    17A1     0.185976     8B2     0.212363  
      18A1     0.215339    19A1     0.240439    14B1     0.244624  
       6A2     0.291747     9B2     0.302980    15B1     0.380295  
      20A1     0.443764    16B1     0.448363    21A1     0.457014  
      10B2     0.486102     7A2     0.491677    11B2     0.497371  
      17B1     0.583889    22A1     0.586936     8A2     0.621455  
      23A1     0.635661     9A2     0.667237    12B2     0.676315  
      18B1     0.684404    24A1     0.688042    19B1     0.753279  
      25A1     0.759588    20B1     0.802749    26A1     1.581961  
      21B1     1.631296    27A1     1.650385    28A1     1.655275  
      13B2     1.661114    14B2     1.676878    10A2     1.680075  
      29A1     1.684036    22B1     1.685350    15B2     1.694641  
      11A2     1.700449    16B2     1.701960    23B1     1.712897  
      12A2     1.714756    30A1     1.716538    17B2     1.725122  
      24B1     1.730201    18B2     1.734065    25B1     1.740824  
      31A1     1.742872    13A2     1.767189    26B1     1.768385  
      32A1     1.799257    27B1     1.809112    33A1     1.815278  
      19B2     1.825914    14A2     1.829592    34A1     1.846471  
      28B1     1.851141    29B1     2.008270    35A1     2.046949  
      36A1     2.158065    20B2     2.161372    15A2     2.170357  
      30B1     2.192806    37A1     2.199353    21B2     2.201381  
      16A2     2.210073    38A1     2.218444    17A2     2.233703  
      31B1     2.238263    22B2     2.243228    39A1     2.311536  
      32B1     2.321880    33B1     2.361238    40A1     2.466488  
      34B1     2.623271    41A1     2.632107    42A1     4.846967  
      43A1     4.851456    23B2     4.856721    35B1     4.862313  
      24B2     4.878342    18A2     4.878406    44A1     4.879992  
      25B2     4.885931    45A1     4.887087    36B1     4.894509  
      19A2     4.895446    26B2     4.913884    37B1     4.914420  
      20A2     4.944197    46A1     4.961673    27B2     4.962248  
      21A2     4.967306    38B1     4.967759    47A1     5.098256  
      39B1     5.106429    40B1     5.134127    28B2     5.655108  
      48A1     5.655518    49A1     5.656054    29B2     5.656545  
      22A2     5.656614    41B1     5.656903    23A2     5.657595  
      24A2     5.657782    50A1     5.657859    42B1     5.657912  
      30B2     5.658524    43B1     5.658543    51A1     5.659106  
      44B1     5.659648    25A2     5.659678    31B2     5.660055  
      45B1     5.664434    52A1     5.664901    32B2     5.685282  
      53A1     5.685414    26A2     5.685957    54A1     5.685969  
      27A2     5.686425    46B1     5.686677    33B2     5.687952  
      55A1     5.689511    47B1     5.691831    56A1    33.328771  
      48B1    33.652227    57A1    33.662455    58A1   110.510811  
      49B1   110.610301    59A1   110.624132  

    Final Occupation by Irrep:
             A1    A2    B1    B2 
    DOCC [    11,    4,    8,    5 ]
    SOCC [     1,    0,    0,    0 ]

  @DF-UKS Final Energy:  -440.55147736106426

   => Energetics <=

    Nuclear Repulsion Energy =            212.8912016835048746
    One-Electron Energy =               -1209.3574651320755038
    Two-Electron Energy =                 576.5390812969308172
    DFT Exchange-Correlation Energy =     -20.6217694994243743
    Empirical Dispersion Energy =          -0.0025257100000000
    VV10 Nonlocal Energy =                  0.0000000000000000
    Total Energy =                       -440.5514773610642010

  UHF NO Occupations:
  HONO-2 :    8 B1 1.9993157
  HONO-1 :   11 A1 1.9911386
  HONO-0 :   12 A1 1.0000000
  LUNO+0 :   13 A1 0.0088614
  LUNO+1 :    9 B1 0.0006843
  LUNO+2 :   10 B1 0.0001450
  LUNO+3 :    6 B2 0.0001088


Computation Completed


Properties will be evaluated at   0.000000,   0.000000,   0.000000 [a0]

Properties computed using the SCF density matrix

  Nuclear Dipole Moment: [e a0]
     X:    -0.0000      Y:    -0.0000      Z:     0.0000

  Electronic Dipole Moment: [e a0]
     X:     0.0000      Y:     0.0000      Z:    -0.5328

  Dipole Moment: [e a0]
     X:    -0.0000      Y:    -0.0000      Z:    -0.5328     Total:     0.5328

  Dipole Moment: [D]
     X:    -0.0000      Y:    -0.0000      Z:    -1.3542     Total:     1.3542


*** tstop() called on bp1-compute00092.data.bp.acrc.priv at Fri Oct 29 08:32:46 2021
Module time:
	user time   =     362.68 seconds =       6.04 minutes
	system time =      18.47 seconds =       0.31 minutes
	total time  =         20 seconds =       0.33 minutes
Total time:
	user time   =    1846.39 seconds =      30.77 minutes
	system time =      65.76 seconds =       1.10 minutes
	total time  =        191 seconds =       3.18 minutes

*** tstart() called on bp1-compute00092.data.bp.acrc.priv
*** at Fri Oct 29 08:32:46 2021


         ------------------------------------------------------------
                                   SCF GRAD                          
                          Rob Parrish, Justin Turney,                
                       Andy Simmonett, and Alex Sokolov              
         ------------------------------------------------------------

  ==> Geometry <==

    Molecular point group: c2v
    Full point group: C2v

    Geometry (in Angstrom), charge = 0, multiplicity = 2:

       Center              X                  Y                   Z               Mass       
    ------------   -----------------  -----------------  -----------------  -----------------
         AG           0.000000000000    -0.000000000000     1.588763610730   106.905091600000
         AG           1.316417497265     0.000000000000    -0.794381805365   106.905091600000
         AG          -1.316417497265    -0.000000000000    -0.794381805365   106.905091600000

  Nuclear repulsion =  212.891201683504875

  ==> Basis Set <==

  Basis Set: DEF2-TZVPPD
    Blend: DEF2-TZVPPD
    Number of shells: 48
    Number of basis function: 168
    Number of Cartesian functions: 213
    Spherical Harmonics?: true
    Max angular momentum: 4

  Core potential: DEF2-TZVPPD
    Number of shells: 12
    Number of ECP primitives: 42
    Number of ECP core electrons: 84
    Max angular momentum: 3

  ==> DFJKGrad: Density-Fitted SCF Gradients <==

    Gradient:                    1
    J tasked:                  Yes
    K tasked:                  Yes
    wK tasked:                 Yes
    Omega:               2.500E-01
    OpenMP threads:             24
    Integrals threads:          24
    Memory [MiB]:           102996
    Schwarz Cutoff:          0E+00
    Fitting Condition:       1E-10

   => Auxiliary Basis Set <=

  Basis Set: (DEF2-TZVPPD AUX)
    Blend: DEF2-TZVPP-JKFIT
    Number of shells: 147
    Number of basis function: 765
    Number of Cartesian functions: 1152
    Spherical Harmonics?: true
    Max angular momentum: 6

  ==> DFT Potential <==

   => Composite Functional: M11-D3BJ <= 

    M11 Meta-GGA XC Functional

    R. Peverati and D. G. Truhlar, J. Phys. Chem. Lett., 2, 2810, 2011


    Deriv               =              1
    GGA                 =           TRUE
    Meta                =           TRUE

    Exchange Hybrid     =           TRUE
    MP2 Hybrid          =          FALSE

   => Exchange Functionals <=

    1.0000   XC_HYB_MGGA_X_M11 [omega = 0.2500]

   => Exact (HF) Exchange <=

    0.5720            HF,LR [omega = 0.2500]
    0.4280               HF 

   => Correlation Functionals <=

    1.0000    XC_MGGA_C_M11

   => Molecular Quadrature <=

    Radial Scheme          =       TREUTLER
    Pruning Scheme         =           FLAT
    Nuclear Scheme         =       TREUTLER

    BS radius alpha        =              1
    Pruning alpha          =              1
    Radial Points          =             75
    Spherical Points       =            302
    Total Points           =          67397
    Total Blocks           =            592
    Max Points             =            256
    Max Functions          =            165


  -Total Gradient:
     Atom            X                  Y                   Z
    ------   -----------------  -----------------  -----------------
       1        0.000000000000    -0.000000000000    -0.125399469264
       2       -0.161417694754    -0.000000000000     0.062711298237
       3        0.161417694754     0.000000000000     0.062711298237


*** tstop() called on bp1-compute00092.data.bp.acrc.priv at Fri Oct 29 08:32:53 2021
Module time:
	user time   =      92.24 seconds =       1.54 minutes
	system time =       4.82 seconds =       0.08 minutes
	total time  =          7 seconds =       0.12 minutes
Total time:
	user time   =    1940.32 seconds =      32.34 minutes
	system time =      70.70 seconds =       1.18 minutes
	total time  =        198 seconds =       3.30 minutes


  ==> Adding ECP gradient terms (computed numerically) <==

  -ECP Gradient:
     Atom            X                  Y                   Z
    ------   -----------------  -----------------  -----------------
       1        0.000000000000    -0.000000000000     0.116258798298
       2        0.163302449495     0.000000000000    -0.058129399226
       3       -0.163302449495    -0.000000000000    -0.058129399226


  -Total Gradient:
     Atom            X                  Y                   Z
    ------   -----------------  -----------------  -----------------
       1        0.000000000000    -0.000000000000    -0.009140670966
       2        0.001884754741     0.000000000000     0.004581899011
       3       -0.001884754741    -0.000000000000     0.004581899011


			-----------------------------------------
			 OPTKING 2.0: for geometry optimizations 
			  - R.A. King,  Bethel University        
			-----------------------------------------
	At level 1: Red. Int., RFO, no backsteps, dynamic trust

	Previous internal coordinate definitions found.
	---Fragment 1 Geometry and Gradient---
	 AG          0.0000000000       -0.0000000000        3.0023281024
	 AG          2.4876685366        0.0000000000       -1.5011640512
	 AG         -2.4876685366       -0.0000000000       -1.5011640512
	             0.0000000000       -0.0000000000       -0.0091406710
	             0.0018847547        0.0000000000        0.0045818990
	            -0.0018847547       -0.0000000000        0.0045818990

	---Fragment 1 Intrafragment Coordinates---
	 - Coordinate -           - BOHR/RAD -       - ANG/DEG -
	 R(1,2)           =         5.144894	       2.722561
	 R(1,3)           =         5.144894	       2.722561
	 R(2,3)           =         4.975337	       2.632835
	 B(1,2,3)         =         1.066123	      61.084330
	 B(1,3,2)         =         1.066123	      61.084330
	 B(2,1,3)         =         1.009347	      57.831341

	Current energy   :      -440.5514773611

	Energy change for the previous step:
		Projected    :        -0.0030484164
		Actual       :        -0.0021397732

	Performing BFGS update.
	Previous computed or guess Hessian on step 1.
	Steps to be used in Hessian update: 1
	Taking RFO optimization step.
	Going to follow RFO solution 1.
	Using RFO vector 1.
	Norm of target step-size    0.19909
	Projected energy change by RFO approximation:        -0.0038761405

	Back-transformation to cartesian coordinates...
	Successfully converged to displaced geometry.

	--- Internal Coordinate Step in ANG or DEG, aJ/ANG or AJ/DEG ---
	 ---------------------------------------------------------------------------
	   Coordinate                Previous        Force       Change         New 
	   ----------                --------       ------       ------       ------
	    1 R(1,2)          =      2.722561     0.040537     0.066244     2.788804
	    2 R(1,3)          =      2.722561     0.040537     0.066244     2.788804
	    3 R(2,3)          =      2.632835    -0.031142    -0.039641     2.593194
	    4 B(1,2,3)        =     61.084330     0.000072     1.210026    62.294355
	    5 B(1,3,2)        =     61.084330     0.000072     1.210026    62.294355
	    6 B(2,1,3)        =     57.831341    -0.000144    -2.420051    55.411290
	 ---------------------------------------------------------------------------
	Successfully symmetrized geometry.

  ==> Convergence Check <==

  Measures of convergence in internal coordinates in au.
  Criteria marked as inactive (o), active & met (*), and active & unmet ( ).
  ---------------------------------------------------------------------------------------------
   Step     Total Energy     Delta E     MAX Force     RMS Force      MAX Disp      RMS Disp   
  ---------------------------------------------------------------------------------------------
    Convergence Criteria    1.00e-06 *    3.00e-04 *             o    1.20e-03 *             o
  ---------------------------------------------------------------------------------------------
      2    -440.55147736   -2.14e-03      4.92e-03      3.37e-03 o    1.25e-01      8.13e-02 o  ~
  ---------------------------------------------------------------------------------------------

	Writing optimization data to binary file.
	Structure for next step:
	Cartesian Geometry (in Angstrom)
	   AG     0.0000000000  -0.0000000000   1.6460413126
	   AG     1.2965968392   0.0000000000  -0.8230206563
	   AG    -1.2965968392  -0.0000000000  -0.8230206563
			--------------------------
			 OPTKING Finished Execution 
			--------------------------

    Structure for next step:
    Molecular point group: c2v
    Full point group: C2v

    Geometry (in Angstrom), charge = 0, multiplicity = 2:

    AG           0.000000000000    -0.000000000000     1.646041319075
    AG           1.296596844247     0.000000000000    -0.823020659538
    AG          -1.296596844247    -0.000000000000    -0.823020659538

gradient() will perform analytic gradient computation.

*** tstart() called on bp1-compute00092.data.bp.acrc.priv
*** at Fri Oct 29 08:35:11 2021

   => Loading Basis Set <=

    Name: DEF2-TZVPPD
    Role: ORBITAL
    Keyword: BASIS
    atoms 1-3 entry AG         line  2174 (ECP: line  3646) file /work/zw18965/.conda/envs/p4env/share/psi4/basis/def2-tzvppd.gbs 

    !!!  WARNING: ECP capability is in beta. Please check occupations closely.  !!!


         ---------------------------------------------------------
                                   SCF
               by Justin Turney, Rob Parrish, Andy Simmonett
                          and Daniel G. A. Smith
                              UKS Reference
                       24 Threads, 137329 MiB Core
         ---------------------------------------------------------

  ==> Geometry <==

    Molecular point group: c2v
    Full point group: C2v

    Geometry (in Angstrom), charge = 0, multiplicity = 2:

       Center              X                  Y                   Z               Mass       
    ------------   -----------------  -----------------  -----------------  -----------------
         AG           0.000000000000    -0.000000000000     1.646041319075   106.905091600000
         AG           1.296596844247     0.000000000000    -0.823020659538   106.905091600000
         AG          -1.296596844247    -0.000000000000    -0.823020659538   106.905091600000

  Running in c2v symmetry.

  Rotational constants: A =      0.04690  B =      0.03880  C =      0.02123 [cm^-1]
  Rotational constants: A =   1405.97919  B =   1163.17775  C =    636.55267 [MHz]
  Nuclear repulsion =  210.666970942781063

  Charge       = 0
  Multiplicity = 2
  Electrons    = 57
  Nalpha       = 29
  Nbeta        = 28

  ==> Algorithm <==

  SCF Algorithm Type is DF.
  DIIS enabled.
  MOM disabled.
  Fractional occupation disabled.
  Guess Type is READ.
  Energy threshold   = 1.00e-08
  Density threshold  = 1.00e-08
  Integral threshold = 0.00e+00

  ==> Primary Basis <==

  Basis Set: DEF2-TZVPPD
    Blend: DEF2-TZVPPD
    Number of shells: 48
    Number of basis function: 168
    Number of Cartesian functions: 213
    Spherical Harmonics?: true
    Max angular momentum: 4

  Core potential: DEF2-TZVPPD
    Number of shells: 12
    Number of ECP primitives: 42
    Number of ECP core electrons: 84
    Max angular momentum: 3

  ==> DFT Potential <==

   => Composite Functional: M11-D3BJ <= 

    M11 Meta-GGA XC Functional

    R. Peverati and D. G. Truhlar, J. Phys. Chem. Lett., 2, 2810, 2011


    Deriv               =              1
    GGA                 =           TRUE
    Meta                =           TRUE

    Exchange Hybrid     =           TRUE
    MP2 Hybrid          =          FALSE

   => Exchange Functionals <=

    1.0000   XC_HYB_MGGA_X_M11 [omega = 0.2500]

   => Exact (HF) Exchange <=

    0.5720            HF,LR [omega = 0.2500]
    0.4280               HF 

   => Correlation Functionals <=

    1.0000    XC_MGGA_C_M11

   => Molecular Quadrature <=

    Radial Scheme          =       TREUTLER
    Pruning Scheme         =           FLAT
    Nuclear Scheme         =       TREUTLER

    BS radius alpha        =              1
    Pruning alpha          =              1
    Radial Points          =             75
    Spherical Points       =            302
    Total Points           =          67395
    Total Blocks           =            598
    Max Points             =            255
    Max Functions          =            165

   => M11-D3(BJ): Empirical Dispersion <=

    Grimme's -D3 (BJ-damping) Dispersion Correction
    Grimme S.; Ehrlich S.; Goerigk L. (2011), J. Comput. Chem., 32: 1456
    Parametrisation from:    L. Goerigk, J. Phys. Chem. Lett. 6, 3891-3896, 2015

        s6 =       1.000000
        s8 =       2.811200
        a1 =       0.000000
        a2 =      10.138900

   => Loading Basis Set <=

    Name: (DEF2-TZVPPD AUX)
    Role: JKFIT
    Keyword: DF_BASIS_SCF
    atoms 1-3 entry AG         line  4369 file /work/zw18965/.conda/envs/p4env/share/psi4/basis/def2-tzvpp-jkfit.gbs 

   => Loading Basis Set <=

    Name: DEF2-TZVPPD
    Role: ORBITAL
    Keyword: BASIS
    atoms 1-3 entry AG         line  2174 (ECP: line  3646) file /work/zw18965/.conda/envs/p4env/share/psi4/basis/def2-tzvppd.gbs 

    !!!  WARNING: ECP capability is in beta. Please check occupations closely.  !!!

  Reading orbitals from file 180, no projection.

  ==> Pre-Iterations <==

   -------------------------------------------------------
    Irrep   Nso     Nmo     Nalpha   Nbeta   Ndocc  Nsocc
   -------------------------------------------------------
     A1        59      59       0       0       0       0
     A2        27      27       0       0       0       0
     B1        49      49       0       0       0       0
     B2        33      33       0       0       0       0
   -------------------------------------------------------
    Total     168     168      29      28      28       1
   -------------------------------------------------------

  ==> Integral Setup <==

  ==> DiskDFJK: Density-Fitted J/K Matrices <==

    J tasked:                  Yes
    K tasked:                  Yes
    wK tasked:                 Yes
    Omega:               2.500E-01
    OpenMP threads:             24
    Integrals threads:          24
    Memory [MiB]:           102399
    Algorithm:                Core
    Integral Cache:           NONE
    Schwarz Cutoff:          1E-12
    Fitting Condition:       1E-10

   => Auxiliary Basis Set <=

  Basis Set: (DEF2-TZVPPD AUX)
    Blend: DEF2-TZVPP-JKFIT
    Number of shells: 147
    Number of basis function: 765
    Number of Cartesian functions: 1152
    Spherical Harmonics?: true
    Max angular momentum: 6

  Cached 100.0% of DFT collocation blocks in 0.583 [GiB].

  Minimum eigenvalue in the overlap matrix is 2.8325511640E-03.
  Using Symmetric Orthogonalization.

  SCF Guess: Orbitals guess was supplied from a previous computation.

  ==> Iterations <==

                           Total Energy        Delta E     RMS |[F,P]|

   @DF-UKS iter   0:  -440.55865665720808   -4.40559e+02   1.42345e-03 
   @DF-UKS iter   1:  -440.55243832472866    6.21833e-03   4.61143e-05 DIIS
   @DF-UKS iter   2:  -440.55245533652521   -1.70118e-05   3.74936e-05 DIIS
   @DF-UKS iter   3:  -440.55246113639953   -5.79987e-06   1.26270e-05 DIIS
   @DF-UKS iter   4:  -440.55246553683935   -4.40044e-06   7.95384e-06 DIIS
   @DF-UKS iter   5:  -440.55246821686092   -2.68002e-06   4.52549e-06 DIIS
   @DF-UKS iter   6:  -440.55246923193897   -1.01508e-06   2.35133e-06 DIIS
   @DF-UKS iter   7:  -440.55246949897867   -2.67040e-07   1.04173e-06 DIIS
   @DF-UKS iter   8:  -440.55246954519157   -4.62129e-08   6.04171e-07 DIIS
   @DF-UKS iter   9:  -440.55246955896791   -1.37763e-08   2.43747e-07 DIIS
   @DF-UKS iter  10:  -440.55246956127723   -2.30932e-09   1.19404e-07 DIIS
   @DF-UKS iter  11:  -440.55246956146539   -1.88152e-10   4.47307e-08 DIIS
   @DF-UKS iter  12:  -440.55246956149676   -3.13776e-11   1.05375e-08 DIIS
   @DF-UKS iter  13:  -440.55246956149836   -1.59162e-12   5.60572e-09 DIIS
  Energy and wave function converged.


  ==> Post-Iterations <==

   @Spin Contamination Metric:   2.003422432E-02
   @S^2 Expected:                7.500000000E-01
   @S^2 Observed:                7.700342243E-01
   @S   Expected:                5.000000000E-01
   @S   Observed:                5.000000000E-01

    Orbital Energies [Eh]
    ---------------------

    Alpha Occupied:                                                       

       1A1    -3.872483     1B1    -3.871961     2A1    -3.848284  
       3A1    -2.470675     4A1    -2.464609     2B1    -2.464197  
       3B1    -2.463929     1B2    -2.463607     1A2    -2.463036  
       4B1    -2.440749     5A1    -2.440723     2B2    -2.438882  
       6A1    -0.492253     7A1    -0.484762     3B2    -0.475183  
       5B1    -0.464076     8A1    -0.459089     4B2    -0.458841  
       2A2    -0.450089     6B1    -0.437486     3A2    -0.433744  
       7B1    -0.430603     9A1    -0.425164     4A2    -0.423778  
       5B2    -0.420498    10A1    -0.419740     8B1    -0.406940  
      11A1    -0.312245    12A1    -0.186544  

    Alpha Virtual:                                                        

       9B1    -0.027620     6B2     0.025405    13A1     0.031925  
      14A1     0.048021    10B1     0.060775     5A2     0.074951  
       7B2     0.087391    11B1     0.094789    15A1     0.119574  
      12B1     0.126263    16A1     0.164096    13B1     0.192040  
      17A1     0.206774    18A1     0.220596     8B2     0.222274  
      19A1     0.241707    14B1     0.250841     6A2     0.296495  
       9B2     0.298965    15B1     0.371937    20A1     0.424905  
      21A1     0.451481    16B1     0.451643    10B2     0.476341  
       7A2     0.483012    11B2     0.494827    22A1     0.575671  
      17B1     0.577375     8A2     0.612165    23A1     0.634734  
      12B2     0.666389     9A2     0.666638    18B1     0.677005  
      24A1     0.681247    19B1     0.753491    25A1     0.753873  
      20B1     0.798082    26A1     1.559125    27A1     1.652684  
      21B1     1.656541    13B2     1.656995    28A1     1.663682  
      14B2     1.676242    10A2     1.683179    29A1     1.686489  
      22B1     1.686587    15B2     1.691960    16B2     1.700436  
      11A2     1.705133    30A1     1.711889    23B1     1.713879  
      12A2     1.716813    17B2     1.726469    24B1     1.729753  
      18B2     1.731502    31A1     1.734863    25B1     1.738494  
      26B1     1.757562    13A2     1.762013    32A1     1.791210  
      33A1     1.813239    19B2     1.814369    27B1     1.816663  
      14A2     1.833576    34A1     1.837125    28B1     1.849487  
      29B1     2.001584    35A1     2.042201    36A1     2.158678  
      20B2     2.159181    15A2     2.174427    30B1     2.197466  
      37A1     2.198532    21B2     2.203871    16A2     2.211177  
      38A1     2.215125    17A2     2.239177    22B2     2.243194  
      31B1     2.255133    39A1     2.287666    32B1     2.303058  
      33B1     2.383413    40A1     2.464952    34B1     2.611788  
      41A1     2.612221    42A1     4.849056    43A1     4.851180  
      23B2     4.851665    35B1     4.870209    24B2     4.882455  
      44A1     4.882809    18A2     4.885437    45A1     4.888342  
      25B2     4.888700    36B1     4.897217    19A2     4.898154  
      26B2     4.915818    37B1     4.916773    20A2     4.940236  
      46A1     4.950464    27B2     4.952459    21A2     4.975125  
      38B1     4.975887    47A1     5.074127    39B1     5.080662  
      40B1     5.155708    48A1     5.655526    28B2     5.655668  
      22A2     5.656330    49A1     5.656594    41B1     5.656622  
      29B2     5.656764    42B1     5.657663    50A1     5.657782  
      23A2     5.657794    30B2     5.658657    51A1     5.659198  
      24A2     5.659204    43B1     5.659213    44B1     5.659286  
      31B2     5.659618    25A2     5.659693    52A1     5.663264  
      45B1     5.667090    53A1     5.681876    32B2     5.682844  
      26A2     5.682933    33B2     5.683946    46B1     5.684065  
      54A1     5.684353    27A2     5.684873    55A1     5.685444  
      47B1     5.687907    56A1    33.318224    57A1    33.641125  
      48B1    33.641149    58A1   110.509112    49B1   110.607457  
      59A1   110.618079  

    Beta Occupied:                                                        

       1A1    -3.871620     1B1    -3.871102     2A1    -3.844931  
       3A1    -2.469771     2B1    -2.464407     4A1    -2.463705  
       1B2    -2.463150     1A2    -2.462604     3B1    -2.462033  
       5A1    -2.439438     4B1    -2.437547     2B2    -2.436057  
       6A1    -0.492130     7A1    -0.482628     3B2    -0.474713  
       5B1    -0.461513     4B2    -0.457614     8A1    -0.456947  
       2A2    -0.449093     6B1    -0.435883     3A2    -0.433201  
       7B1    -0.430338     9A1    -0.421687     4A2    -0.420677  
       5B2    -0.417116    10A1    -0.415867     8B1    -0.402596  
      11A1    -0.294165  

    Beta Virtual:                                                         

       9B1    -0.031707    12A1    -0.016458    13A1     0.013890  
       6B2     0.018133    10B1     0.044260    14A1     0.045375  
       5A2     0.057546     7B2     0.062046    11B1     0.079440  
      15A1     0.084435    12B1     0.087346    16A1     0.152580  
      13B1     0.176801    17A1     0.186054     8B2     0.213592  
      18A1     0.216145    19A1     0.237332    14B1     0.246337  
       6A2     0.294071     9B2     0.300562    15B1     0.376431  
      20A1     0.432375    16B1     0.451578    21A1     0.456491  
      10B2     0.484249     7A2     0.490252    11B2     0.495635  
      17B1     0.582810    22A1     0.584613     8A2     0.620059  
      23A1     0.633548     9A2     0.667785    12B2     0.673426  
      18B1     0.679690    24A1     0.686969    19B1     0.754730  
      25A1     0.757712    20B1     0.800826    26A1     1.559704  
      27A1     1.653752    13B2     1.657233    21B1     1.658817  
      28A1     1.665103    14B2     1.676771    10A2     1.683768  
      22B1     1.686151    29A1     1.688080    15B2     1.691538  
      16B2     1.701665    11A2     1.705712    30A1     1.713489  
      23B1     1.714748    12A2     1.717765    17B2     1.729122  
      24B1     1.730801    18B2     1.734073    31A1     1.737747  
      25B1     1.739219    26B1     1.758996    13A2     1.763614  
      32A1     1.792706    19B2     1.814672    33A1     1.816554  
      27B1     1.816905    14A2     1.833686    34A1     1.837193  
      28B1     1.849688    29B1     2.003075    35A1     2.043587  
      36A1     2.158731    20B2     2.160024    15A2     2.172270  
      30B1     2.196599    37A1     2.197373    21B2     2.201432  
      16A2     2.209193    38A1     2.214743    17A2     2.237831  
      22B2     2.240826    31B1     2.255875    39A1     2.286659  
      32B1     2.302013    33B1     2.381505    40A1     2.462959  
      34B1     2.611849    41A1     2.617171    42A1     4.848732  
      43A1     4.851139    23B2     4.851326    35B1     4.869957  
      24B2     4.882332    44A1     4.882412    18A2     4.885126  
      45A1     4.887960    25B2     4.888278    36B1     4.897117  
      19A2     4.897915    26B2     4.914378    37B1     4.915330  
      20A2     4.939382    46A1     4.949913    27B2     4.951792  
      21A2     4.974509    38B1     4.975686    47A1     5.074422  
      39B1     5.080504    40B1     5.154856    28B2     5.655552  
      48A1     5.656327    49A1     5.656731    29B2     5.657336  
      22A2     5.657610    41B1     5.657629    50A1     5.658335  
      23A2     5.658570    24A2     5.658831    42B1     5.659101  
      43B1     5.659300    30B2     5.659420    51A1     5.659999  
      44B1     5.660631    25A2     5.660772    31B2     5.661135  
      52A1     5.665019    45B1     5.667477    53A1     5.686442  
      32B2     5.686608    26A2     5.686825    54A1     5.687226  
      27A2     5.687504    46B1     5.687509    33B2     5.688938  
      55A1     5.689899    47B1     5.692802    56A1    33.319580  
      48B1    33.641716    57A1    33.643178    58A1   110.509153  
      49B1   110.607462    59A1   110.618195  

    Final Occupation by Irrep:
             A1    A2    B1    B2 
    DOCC [    11,    4,    8,    5 ]
    SOCC [     1,    0,    0,    0 ]

  @DF-UKS Final Energy:  -440.55246956149836

   => Energetics <=

    Nuclear Repulsion Energy =            210.6669709427810631
    One-Electron Energy =               -1204.9681205479075743
    Two-Electron Energy =                 574.3712840196435536
    DFT Exchange-Correlation Energy =     -20.6200800760155403
    Empirical Dispersion Energy =          -0.0025239000000000
    VV10 Nonlocal Energy =                  0.0000000000000000
    Total Energy =                       -440.5524695614985262

  UHF NO Occupations:
  HONO-2 :    8 B1 1.9993719
  HONO-1 :   11 A1 1.9910530
  HONO-0 :   12 A1 1.0000000
  LUNO+0 :   13 A1 0.0089470
  LUNO+1 :    9 B1 0.0006281
  LUNO+2 :   10 B1 0.0001336
  LUNO+3 :    6 B2 0.0001025


Computation Completed


Properties will be evaluated at   0.000000,   0.000000,   0.000000 [a0]

Properties computed using the SCF density matrix

  Nuclear Dipole Moment: [e a0]
     X:    -0.0000      Y:    -0.0000      Z:    -0.0000

  Electronic Dipole Moment: [e a0]
     X:     0.0000      Y:     0.0000      Z:    -0.5540

  Dipole Moment: [e a0]
     X:    -0.0000      Y:    -0.0000      Z:    -0.5540     Total:     0.5540

  Dipole Moment: [D]
     X:    -0.0000      Y:    -0.0000      Z:    -1.4082     Total:     1.4082


*** tstop() called on bp1-compute00092.data.bp.acrc.priv at Fri Oct 29 08:35:32 2021
Module time:
	user time   =     387.14 seconds =       6.45 minutes
	system time =      24.41 seconds =       0.41 minutes
	total time  =         21 seconds =       0.35 minutes
Total time:
	user time   =    3240.83 seconds =      54.01 minutes
	system time =     113.62 seconds =       1.89 minutes
	total time  =        357 seconds =       5.95 minutes

*** tstart() called on bp1-compute00092.data.bp.acrc.priv
*** at Fri Oct 29 08:35:32 2021


         ------------------------------------------------------------
                                   SCF GRAD                          
                          Rob Parrish, Justin Turney,                
                       Andy Simmonett, and Alex Sokolov              
         ------------------------------------------------------------

  ==> Geometry <==

    Molecular point group: c2v
    Full point group: C2v

    Geometry (in Angstrom), charge = 0, multiplicity = 2:

       Center              X                  Y                   Z               Mass       
    ------------   -----------------  -----------------  -----------------  -----------------
         AG           0.000000000000    -0.000000000000     1.646041319075   106.905091600000
         AG           1.296596844247     0.000000000000    -0.823020659538   106.905091600000
         AG          -1.296596844247    -0.000000000000    -0.823020659538   106.905091600000

  Nuclear repulsion =  210.666970942781063

  ==> Basis Set <==

  Basis Set: DEF2-TZVPPD
    Blend: DEF2-TZVPPD
    Number of shells: 48
    Number of basis function: 168
    Number of Cartesian functions: 213
    Spherical Harmonics?: true
    Max angular momentum: 4

  Core potential: DEF2-TZVPPD
    Number of shells: 12
    Number of ECP primitives: 42
    Number of ECP core electrons: 84
    Max angular momentum: 3

  ==> DFJKGrad: Density-Fitted SCF Gradients <==

    Gradient:                    1
    J tasked:                  Yes
    K tasked:                  Yes
    wK tasked:                 Yes
    Omega:               2.500E-01
    OpenMP threads:             24
    Integrals threads:          24
    Memory [MiB]:           102996
    Schwarz Cutoff:          0E+00
    Fitting Condition:       1E-10

   => Auxiliary Basis Set <=

  Basis Set: (DEF2-TZVPPD AUX)
    Blend: DEF2-TZVPP-JKFIT
    Number of shells: 147
    Number of basis function: 765
    Number of Cartesian functions: 1152
    Spherical Harmonics?: true
    Max angular momentum: 6

  ==> DFT Potential <==

   => Composite Functional: M11-D3BJ <= 

    M11 Meta-GGA XC Functional

    R. Peverati and D. G. Truhlar, J. Phys. Chem. Lett., 2, 2810, 2011


    Deriv               =              1
    GGA                 =           TRUE
    Meta                =           TRUE

    Exchange Hybrid     =           TRUE
    MP2 Hybrid          =          FALSE

   => Exchange Functionals <=

    1.0000   XC_HYB_MGGA_X_M11 [omega = 0.2500]

   => Exact (HF) Exchange <=

    0.5720            HF,LR [omega = 0.2500]
    0.4280               HF 

   => Correlation Functionals <=

    1.0000    XC_MGGA_C_M11

   => Molecular Quadrature <=

    Radial Scheme          =       TREUTLER
    Pruning Scheme         =           FLAT
    Nuclear Scheme         =       TREUTLER

    BS radius alpha        =              1
    Pruning alpha          =              1
    Radial Points          =             75
    Spherical Points       =            302
    Total Points           =          67395
    Total Blocks           =            598
    Max Points             =            255
    Max Functions          =            165


  -Total Gradient:
     Atom            X                  Y                   Z
    ------   -----------------  -----------------  -----------------
       1        0.000000000000    -0.000000000000    -0.099618386293
       2       -0.169272063933    -0.000000000000     0.049835319247
       3        0.169272063933     0.000000000000     0.049835319247


*** tstop() called on bp1-compute00092.data.bp.acrc.priv at Fri Oct 29 08:35:39 2021
Module time:
	user time   =      96.11 seconds =       1.60 minutes
	system time =       5.91 seconds =       0.10 minutes
	total time  =          7 seconds =       0.12 minutes
Total time:
	user time   =    3338.78 seconds =      55.65 minutes
	system time =     119.66 seconds =       1.99 minutes
	total time  =        364 seconds =       6.07 minutes


  ==> Adding ECP gradient terms (computed numerically) <==

  -ECP Gradient:
     Atom            X                  Y                   Z
    ------   -----------------  -----------------  -----------------
       1        0.000000000000    -0.000000000000     0.097025853272
       2        0.168727719814     0.000000000000    -0.048512926677
       3       -0.168727719814    -0.000000000000    -0.048512926677


  -Total Gradient:
     Atom            X                  Y                   Z
    ------   -----------------  -----------------  -----------------
       1        0.000000000000    -0.000000000000    -0.002592533021
       2       -0.000544344119    -0.000000000000     0.001322392570
       3        0.000544344119     0.000000000000     0.001322392570


			-----------------------------------------
			 OPTKING 2.0: for geometry optimizations 
			  - R.A. King,  Bethel University        
			-----------------------------------------
	At level 1: Red. Int., RFO, no backsteps, dynamic trust

	Previous internal coordinate definitions found.
	---Fragment 1 Geometry and Gradient---
	 AG          0.0000000000       -0.0000000000        3.1105672842
	 AG          2.4502129308        0.0000000000       -1.5552836421
	 AG         -2.4502129308       -0.0000000000       -1.5552836421
	             0.0000000000       -0.0000000000       -0.0025925330
	            -0.0005443441       -0.0000000000        0.0013223926
	             0.0005443441        0.0000000000        0.0013223926

	---Fragment 1 Intrafragment Coordinates---
	 - Coordinate -           - BOHR/RAD -       - ANG/DEG -
	 R(1,2)           =         5.270077	       2.788804
	 R(1,3)           =         5.270077	       2.788804
	 R(2,3)           =         4.900426	       2.593194
	 B(1,2,3)         =         1.087242	      62.294355
	 B(1,3,2)         =         1.087242	      62.294355
	 B(2,1,3)         =         0.967109	      55.411290

	Current energy   :      -440.5524695615

	Energy change for the previous step:
		Projected    :        -0.0038761405
		Actual       :        -0.0009922004

	Performing BFGS update.
	Previous computed or guess Hessian on step 1.
	Steps to be used in Hessian update: 2 1
	Taking RFO optimization step.
	Going to follow RFO solution 1.
	Using RFO vector 1.
	Norm of target step-size    0.05778
	Projected energy change by RFO approximation:        -0.0002404984

	Back-transformation to cartesian coordinates...
	Successfully converged to displaced geometry.

	--- Internal Coordinate Step in ANG or DEG, aJ/ANG or AJ/DEG ---
	 ---------------------------------------------------------------------------
	   Coordinate                Previous        Force       Change         New 
	   ----------                --------       ------       ------       ------
	    1 R(1,2)          =      2.788804     0.011781     0.020956     2.809760
	    2 R(1,3)          =      2.788804     0.011781     0.020956     2.809760
	    3 R(2,3)          =      2.593194    -0.000380    -0.004293     2.588901
	    4 B(1,2,3)        =     62.294355     0.000011     0.273497    62.567852
	    5 B(1,3,2)        =     62.294355     0.000011     0.273497    62.567852
	    6 B(2,1,3)        =     55.411290    -0.000022    -0.546995    54.864295
	 ---------------------------------------------------------------------------
	Successfully symmetrized geometry.

  ==> Convergence Check <==

  Measures of convergence in internal coordinates in au.
  Criteria marked as inactive (o), active & met (*), and active & unmet ( ).
  ---------------------------------------------------------------------------------------------
   Step     Total Energy     Delta E     MAX Force     RMS Force      MAX Disp      RMS Disp   
  ---------------------------------------------------------------------------------------------
    Convergence Criteria    1.00e-06 *    3.00e-04 *             o    1.20e-03 *             o
  ---------------------------------------------------------------------------------------------
      3    -440.55246956   -9.92e-04      1.43e-03      8.39e-04 o    3.96e-02      2.36e-02 o  ~
  ---------------------------------------------------------------------------------------------

	Writing optimization data to binary file.
[...]
      34App    2.159365    35App    2.174749    66Ap     2.198433  
      67Ap     2.198629    36App    2.204154    37App    2.210767  
      68Ap     2.215567    38App    2.239581    39App    2.242494  
      69Ap     2.262672    70Ap     2.277230    71Ap     2.294943  
      72Ap     2.384204    73Ap     2.462225    74Ap     2.603226  
      75Ap     2.603635    76Ap     4.850431    40App    4.851725  
      77Ap     4.852317    78Ap     4.873856    41App    4.883615  
      79Ap     4.884488    42App    4.887797    80Ap     4.889310  
      43App    4.890660    81Ap     4.897817    44App    4.898848  
      45App    4.916206    82Ap     4.917138    46App    4.937558  
      83Ap     4.946420    47App    4.948179    48App    4.975560  
      84Ap     4.975697    85Ap     5.063016    86Ap     5.069321  
      87Ap     5.157235    88Ap     5.656000    49App    5.656093  
      50App    5.656855    89Ap     5.656996    90Ap     5.657050  
      51App    5.657163    91Ap     5.658136    92Ap     5.658175  
      52App    5.658232    53App    5.659046    93Ap     5.659531  
      54App    5.659597    94Ap     5.659600    95Ap     5.659629  
      55App    5.660023    56App    5.660091    96Ap     5.663391  
      97Ap     5.667698    98Ap     5.682486    57App    5.683355  
      58App    5.683375    59App    5.684327    99Ap     5.684367  
     100Ap     5.684697    60App    5.685179   101Ap     5.685632  
     102Ap     5.688185   103Ap    33.312130   104Ap    33.628798  
     105Ap    33.633596   106Ap   110.507706   107Ap   110.605314  
     108Ap   110.614359  

    Beta Occupied:                                                        

       1Ap    -3.871215     2Ap    -3.870690     3Ap    -3.844156  
       4Ap    -2.469350     5Ap    -2.463884     6Ap    -2.463263  
       1App   -2.462762     2App   -2.462210     7Ap    -2.461658  
       8Ap    -2.438624     9Ap    -2.436836     3App   -2.435468  
      10Ap    -0.490926    11Ap    -0.481768     4App   -0.473952  
      12Ap    -0.459433     5App   -0.456854    13Ap    -0.456243  
       6App   -0.448206    14Ap    -0.435167     7App   -0.432722  
      15Ap    -0.429927    16Ap    -0.421420     8App   -0.420507  
       9App   -0.417151    17Ap    -0.416009    18Ap    -0.403361  
      19Ap    -0.292734  

    Beta Virtual:                                                         

      20Ap    -0.031377    21Ap    -0.016729    22Ap     0.014114  
      10App    0.018481    23Ap     0.044434    24Ap     0.045030  
      11App    0.058067    12App    0.061763    25Ap     0.079324  
      26Ap     0.084009    27Ap     0.087637    28Ap     0.153287  
      29Ap     0.177355    30Ap     0.186271    13App    0.214467  
      31Ap     0.216052    32Ap     0.236329    33Ap     0.246888  
      14App    0.294521    15App    0.299720    34Ap     0.373975  
      35Ap     0.426790    36Ap     0.451021    37Ap     0.455966  
      16App    0.481759    17App    0.489430    18App    0.495156  
      38Ap     0.581519    39Ap     0.583306    19App    0.619000  
      40Ap     0.631903    20App    0.667668    21App    0.671928  
      41Ap     0.677183    42Ap     0.685763    43Ap     0.754808  
      44Ap     0.756975    45Ap     0.799691    46Ap     1.557792  
      47Ap     1.654978    22App    1.657339    48Ap     1.668332  
      49Ap     1.668930    23App    1.676649    24App    1.684844  
      50Ap     1.685810    25App    1.691014    51Ap     1.692091  
      26App    1.701953    27App    1.707259    52Ap     1.712488  
      53Ap     1.715160    28App    1.718549    54Ap     1.729237  
      29App    1.730967    30App    1.734201    55Ap     1.735313  
      56Ap     1.737817    57Ap     1.755390    31App    1.760960  
      58Ap     1.790378    32App    1.809496    59Ap     1.816376  
      60Ap     1.817299    61Ap     1.832482    33App    1.833212  
      62Ap     1.847411    63Ap     1.999158    64Ap     2.040009  
      65Ap     2.159331    34App    2.160214    35App    2.172532  
      66Ap     2.197223    67Ap     2.197580    36App    2.201729  
      37App    2.208669    68Ap     2.215418    38App    2.238278  
      39App    2.240040    69Ap     2.263523    70Ap     2.276072  
      71Ap     2.293695    72Ap     2.382303    73Ap     2.460101  
      74Ap     2.603595    75Ap     2.608058    76Ap     4.850009  
      40App    4.851392    77Ap     4.852383    78Ap     4.873591  
      41App    4.883498    79Ap     4.884127    42App    4.887497  
      80Ap     4.888903    43App    4.890253    81Ap     4.897737  
      44App    4.898616    45App    4.914697    82Ap     4.915622  
      46App    4.936642    83Ap     4.945765    47App    4.947422  
      48App    4.974952    84Ap     4.975481    85Ap     5.063227  
      86Ap     5.069040    87Ap     5.156375    49App    5.655924  
      88Ap     5.656745    89Ap     5.657185    50App    5.657787  
      90Ap     5.658018    51App    5.658083    91Ap     5.658627  
      52App    5.658995    53App    5.659265    92Ap     5.659490  
      93Ap     5.659765    54App    5.659799    94Ap     5.660359  
      95Ap     5.661018    55App    5.661175    56App    5.661539  
      96Ap     5.665139    97Ap     5.668071    98Ap     5.686888  
      57App    5.687197    58App    5.687231    99Ap     5.687855  
     100Ap     5.687908    59App    5.688009    60App    5.689418  
     101Ap     5.690215   102Ap     5.693149   103Ap    33.313534  
     104Ap    33.630863   105Ap    33.634156   106Ap   110.507752  
     107Ap   110.605316   108Ap   110.614489  

    Final Occupation by Irrep:
             Ap   App 
    DOCC [    19,    9 ]
    SOCC [     1,    0 ]

  @DF-UKS Final Energy:  -440.55255575757405

   => Energetics <=

    Nuclear Repulsion Energy =            209.1263602645325079
    One-Electron Energy =               -1201.9185418109984766
    Two-Electron Energy =                 572.8606721161021369
    DFT Exchange-Correlation Energy =     -20.6185236772103124
    Empirical Dispersion Energy =          -0.0025226500000000
    VV10 Nonlocal Energy =                  0.0000000000000000
    Total Energy =                       -440.5525557575741118

  UHF NO Occupations:
  HONO-2 :   18 Ap 1.9994008
  HONO-1 :   19 Ap 1.9910500
  HONO-0 :   20 Ap 1.0000000
  LUNO+0 :   21 Ap 0.0089500
  LUNO+1 :   22 Ap 0.0005992
  LUNO+2 :   23 Ap 0.0001291
  LUNO+3 :   10App 0.0000996


Computation Completed


Properties will be evaluated at   0.000000,   0.000000,   0.000000 [a0]

Properties computed using the SCF density matrix

  Nuclear Dipole Moment: [e a0]
     X:     0.0000      Y:     0.0000      Z:    -0.0000

  Electronic Dipole Moment: [e a0]
     X:    -0.0002      Y:     0.0000      Z:    -0.5667

  Dipole Moment: [e a0]
     X:    -0.0002      Y:     0.0000      Z:    -0.5667     Total:     0.5667

  Dipole Moment: [D]
     X:    -0.0005      Y:     0.0000      Z:    -1.4405     Total:     1.4405


*** tstop() called on bp1-compute00092.data.bp.acrc.priv at Fri Oct 29 09:04:18 2021
Module time:
	user time   =     550.37 seconds =       9.17 minutes
	system time =      34.08 seconds =       0.57 minutes
	total time  =         29 seconds =       0.48 minutes
Total time:
	user time   =   17870.15 seconds =     297.84 minutes
	system time =     672.41 seconds =      11.21 minutes
	total time  =       2083 seconds =      34.72 minutes

*** tstart() called on bp1-compute00092.data.bp.acrc.priv
*** at Fri Oct 29 09:04:18 2021


         ------------------------------------------------------------
                                   SCF GRAD                          
                          Rob Parrish, Justin Turney,                
                       Andy Simmonett, and Alex Sokolov              
         ------------------------------------------------------------

  ==> Geometry <==

    Molecular point group: cs
    Full point group: Cs

    Geometry (in Angstrom), charge = 0, multiplicity = 2:

       Center              X                  Y                   Z               Mass       
    ------------   -----------------  -----------------  -----------------  -----------------
         AG          -0.000139357439     0.000000000000     1.671187297085   106.905091600000
         AG           1.295613364522     0.000000000000    -0.835728471697   106.905091600000
         AG          -1.295474007083     0.000000000000    -0.835458825388   106.905091600000

  Nuclear repulsion =  209.126360264532508

  ==> Basis Set <==

  Basis Set: DEF2-TZVPPD
    Blend: DEF2-TZVPPD
    Number of shells: 48
    Number of basis function: 168
    Number of Cartesian functions: 213
    Spherical Harmonics?: true
    Max angular momentum: 4

  Core potential: DEF2-TZVPPD
    Number of shells: 12
    Number of ECP primitives: 42
    Number of ECP core electrons: 84
    Max angular momentum: 3

  ==> DFJKGrad: Density-Fitted SCF Gradients <==

    Gradient:                    1
    J tasked:                  Yes
    K tasked:                  Yes
    wK tasked:                 Yes
    Omega:               2.500E-01
    OpenMP threads:             24
    Integrals threads:          24
    Memory [MiB]:           102996
    Schwarz Cutoff:          0E+00
    Fitting Condition:       1E-10

   => Auxiliary Basis Set <=

  Basis Set: (DEF2-TZVPPD AUX)
    Blend: DEF2-TZVPP-JKFIT
    Number of shells: 147
    Number of basis function: 765
    Number of Cartesian functions: 1152
    Spherical Harmonics?: true
    Max angular momentum: 6

  ==> DFT Potential <==

   => Composite Functional: M11-D3BJ <= 

    M11 Meta-GGA XC Functional

    R. Peverati and D. G. Truhlar, J. Phys. Chem. Lett., 2, 2810, 2011


    Deriv               =              1
    GGA                 =           TRUE
    Meta                =           TRUE

    Exchange Hybrid     =           TRUE
    MP2 Hybrid          =          FALSE

   => Exchange Functionals <=

    1.0000   XC_HYB_MGGA_X_M11 [omega = 0.2500]

   => Exact (HF) Exchange <=

    0.5720            HF,LR [omega = 0.2500]
    0.4280               HF 

   => Correlation Functionals <=

    1.0000    XC_MGGA_C_M11

   => Molecular Quadrature <=

    Radial Scheme          =       TREUTLER
    Pruning Scheme         =           FLAT
    Nuclear Scheme         =       TREUTLER

    BS radius alpha        =              1
    Pruning alpha          =              1
    Radial Points          =             75
    Spherical Points       =            302
    Total Points           =          67403
    Total Blocks           =            597
    Max Points             =            255
    Max Functions          =            165


  -Total Gradient:
     Atom            X                  Y                   Z
    ------   -----------------  -----------------  -----------------
       1       -0.000041333042     0.000000000000    -0.088242760117
       2       -0.167270638540     0.000000000000     0.044120478351
       3        0.167313066498     0.000000000000     0.044180686499


*** tstop() called on bp1-compute00092.data.bp.acrc.priv at Fri Oct 29 09:04:26 2021
Module time:
	user time   =      94.20 seconds =       1.57 minutes
	system time =       5.15 seconds =       0.09 minutes
	total time  =          8 seconds =       0.13 minutes
Total time:
	user time   =   17967.14 seconds =     299.45 minutes
	system time =     677.75 seconds =      11.30 minutes
	total time  =       2091 seconds =      34.85 minutes


  ==> Adding ECP gradient terms (computed numerically) <==

  -ECP Gradient:
     Atom            X                  Y                   Z
    ------   -----------------  -----------------  -----------------
       1        0.000044217477     0.000000000000     0.088240080665
       2        0.167257816592     0.000000000000    -0.044088095047
       3       -0.167302034271     0.000000000000    -0.044151985582


  -Total Gradient:
     Atom            X                  Y                   Z
    ------   -----------------  -----------------  -----------------
       1        0.000002884436     0.000000000000    -0.000002679453
       2       -0.000012821948     0.000000000000     0.000032383304
       3        0.000011032228     0.000000000000     0.000028700918


         ----------------------------------------------------------
                                   FINDIF
                     R. A. King and Jonathon Misiewicz
         ---------------------------------------------------------

  Computing second-derivative from gradients using projected, 
  symmetry-adapted, cartesian coordinates.

  6 gradients passed in, including the reference geometry.
  Generating complete list of displacements from unique ones.

    Operation 2 takes plus displacements of irrep B1 to minus ones.

-------------------------------------------------------------


  ==> Harmonic Vibrational Analysis <==

  non-mass-weighted Hessian:       Symmetric? True   Hermitian? True   Lin Dep Dim?  6 (0)
  projection of translations (True) and rotations (True) removed 6 degrees of freedom (6)
  total projector:                 Symmetric? True   Hermitian? True   Lin Dep Dim?  6 (6)
  mass-weighted Hessian:           Symmetric? True   Hermitian? True   Lin Dep Dim?  6 (0)
  pre-proj  low-frequency mode:    0.0000i [cm^-1]
  pre-proj  low-frequency mode:    0.0000i [cm^-1]
  pre-proj  low-frequency mode:    0.0000i [cm^-1]
  pre-proj  low-frequency mode:    0.0000i [cm^-1]
  pre-proj  low-frequency mode:    0.0000  [cm^-1]
  pre-proj  low-frequency mode:    0.0000  [cm^-1]
  pre-proj  low-frequency mode:    0.0000  [cm^-1]
  pre-proj  all modes:['45.2066i' '0.0000i' '0.0000i' '0.0000i' '0.0000' '0.0000' '0.0000'
 '108.0643' '187.0769']
  projected mass-weighted Hessian: Symmetric? True   Hermitian? True   Lin Dep Dim?  6 (6)
  post-proj low-frequency mode:   45.2066i [cm^-1] (V)
  post-proj low-frequency mode:    0.0000i [cm^-1] (TR)
  post-proj low-frequency mode:    0.0000i [cm^-1] (TR)
  post-proj low-frequency mode:    0.0000i [cm^-1] (TR)
  post-proj low-frequency mode:    0.0000  [cm^-1] (TR)
  post-proj low-frequency mode:    0.0000  [cm^-1] (TR)
  post-proj low-frequency mode:    0.0000  [cm^-1] (TR)
  post-proj  all modes:['45.2066i' '0.0000i' '0.0000i' '0.0000i' '0.0000' '0.0000' '0.0000'
 '108.0643' '187.0769']

  Vibration                       1                   8                   9           
  Freq [cm^-1]                 45.2066i            108.0643            187.0769       
  Irrep                           B1                  A1                  A1          
  Reduced mass [u]             106.9051            106.9051            106.9051       
  Force const [mDyne/A]        -0.1287              0.7356              2.2044        
  Turning point v=0 [a0]        0.0000              0.1021              0.0776        
  RMS dev v=0 [a0 u^1/2]        0.0000              0.7464              0.5673        
  Char temp [K]                 0.0000             155.4804            269.1620       
  ----------------------------------------------------------------------------------
      1   AG               0.54  0.00 -0.00   -0.00  0.00  0.80    0.00  0.00  0.16   
      2   AG              -0.27 -0.00  0.53   -0.14 -0.00 -0.40    0.69  0.00 -0.08   
      3   AG              -0.27  0.00 -0.53    0.14  0.00 -0.40   -0.69 -0.00 -0.08   

  ==> Thermochemistry Components <==

  Entropy, S
    Electronic S            1.377 [cal/(mol K)]        5.763 [J/(mol K)]       0.00219507 [mEh/K] (multiplicity = 2)
    Translational S        43.192 [cal/(mol K)]      180.714 [J/(mol K)]       0.06883047 [mEh/K] (mol. weight = 320.7153 [u], P = 101325.00 [Pa])
    Rotational S           28.781 [cal/(mol K)]      120.418 [J/(mol K)]       0.04586466 [mEh/K] (symmetry no. = 2)
    Vibrational S           5.560 [cal/(mol K)]       23.263 [J/(mol K)]       0.00886041 [mEh/K]
  Total S                  78.910 [cal/(mol K)]      330.158 [J/(mol K)]       0.12575061 [mEh/K]
  Correction S              0.000 [cal/(mol K)]        0.000 [J/(mol K)]       0.00000000 [mEh/K]

  Constant volume heat capacity, Cv
    Electronic Cv           0.000 [cal/(mol K)]        0.000 [J/(mol K)]       0.00000000 [mEh/K]
    Translational Cv        2.981 [cal/(mol K)]       12.472 [J/(mol K)]       0.00475022 [mEh/K]
    Rotational Cv           2.981 [cal/(mol K)]       12.472 [J/(mol K)]       0.00475022 [mEh/K]
    Vibrational Cv          3.800 [cal/(mol K)]       15.901 [J/(mol K)]       0.00605623 [mEh/K]
  Total Cv                  9.762 [cal/(mol K)]       40.844 [J/(mol K)]       0.01555666 [mEh/K]
  Correction Cv             0.000 [cal/(mol K)]        0.000 [J/(mol K)]       0.00000000 [mEh/K]

  Constant pressure heat capacity, Cp
    Electronic Cp           0.000 [cal/(mol K)]        0.000 [J/(mol K)]       0.00000000 [mEh/K]
    Translational Cp        4.968 [cal/(mol K)]       20.786 [J/(mol K)]       0.00791703 [mEh/K]
    Rotational Cp           2.981 [cal/(mol K)]       12.472 [J/(mol K)]       0.00475022 [mEh/K]
    Vibrational Cp          3.800 [cal/(mol K)]       15.901 [J/(mol K)]       0.00605623 [mEh/K]
  Total Cp                 11.749 [cal/(mol K)]       49.158 [J/(mol K)]       0.01872347 [mEh/K]
  Correction Cp             0.000 [cal/(mol K)]        0.000 [J/(mol K)]       0.00000000 [mEh/K]

  ==> Thermochemistry Energy Analysis <==

  Raw electronic energy, E0
  Total E0, Electronic energy at well bottom at 0 [K]                 -440.55255556 [Eh]

  Zero-point energy, ZPE_vib = Sum_i nu_i / 2
    Electronic ZPE          0.000 [kcal/mol]        0.000 [kJ/mol]       0.00000000 [Eh]
    Translational ZPE       0.000 [kcal/mol]        0.000 [kJ/mol]       0.00000000 [Eh]
    Rotational ZPE          0.000 [kcal/mol]        0.000 [kJ/mol]       0.00000000 [Eh]
    Vibrational ZPE         0.422 [kcal/mol]        1.765 [kJ/mol]       0.00067238 [Eh]         147.571 [cm^-1]
  Correction ZPE            0.422 [kcal/mol]        1.765 [kJ/mol]       0.00067238 [Eh]         147.571 [cm^-1]
  Total ZPE, Electronic energy at 0 [K]                               -440.55188318 [Eh]

  Thermal Energy, E (includes ZPE)
    Electronic E            0.000 [kcal/mol]        0.000 [kJ/mol]       0.00000000 [Eh]
    Translational E         0.889 [kcal/mol]        3.718 [kJ/mol]       0.00141628 [Eh]
    Rotational E            0.889 [kcal/mol]        3.718 [kJ/mol]       0.00141628 [Eh]
    Vibrational E           1.238 [kcal/mol]        5.180 [kJ/mol]       0.00197294 [Eh]
  Correction E              3.015 [kcal/mol]       12.617 [kJ/mol]       0.00480550 [Eh]
  Total E, Electronic energy at  298.15 [K]                           -440.54775006 [Eh]

  Enthalpy, H_trans = E_trans + k_B * T
    Electronic H            0.000 [kcal/mol]        0.000 [kJ/mol]       0.00000000 [Eh]
    Translational H         1.481 [kcal/mol]        6.197 [kJ/mol]       0.00236046 [Eh]
    Rotational H            0.889 [kcal/mol]        3.718 [kJ/mol]       0.00141628 [Eh]
    Vibrational H           1.238 [kcal/mol]        5.180 [kJ/mol]       0.00197294 [Eh]
  Correction H              3.608 [kcal/mol]       15.096 [kJ/mol]       0.00574968 [Eh]
  Total H, Enthalpy at  298.15 [K]                                    -440.54680588 [Eh]

  Gibbs free energy, G = H - T * S
    Electronic G           -0.411 [kcal/mol]       -1.718 [kJ/mol]      -0.00065446 [Eh]
    Translational G       -11.396 [kcal/mol]      -47.683 [kJ/mol]      -0.01816134 [Eh]
    Rotational G           -7.692 [kcal/mol]      -32.184 [kJ/mol]      -0.01225827 [Eh]
    Vibrational G          -0.420 [kcal/mol]       -1.756 [kJ/mol]      -0.00066879 [Eh]
  Correction G            -19.919 [kcal/mol]      -83.341 [kJ/mol]      -0.03174286 [Eh]
  Total G, Free enthalpy at  298.15 [K]                               -440.58429842 [Eh]

    Psi4 stopped on: Friday, 29 October 2021 09:06AM
    Psi4 wall time for execution: 0:37:11.95

*** Psi4 exiting successfully. Buy a developer a beer!
