Optimizer: Optimization complete!
 6 displacements needed.
 1 2 3 4 5 6
Warning: thermodynamics relations excluded imaginary frequencies: ['17.8672i' '17.8635i']
Warning: used thermodynamics relations inappropriate for low-frequency modes: ['110.7994' '145.9454']
At level 1: Red. Int., RFO, no backsteps, dynamic trust
At level 1: Red. Int., RFO, no backsteps, dynamic trust
At level 1: Red. Int., RFO, no backsteps, dynamic trust
At level 1: Red. Int., RFO, no backsteps, dynamic trust
ow, X. Wang, B. P. Pritchard,
    P. Verma, H. F. Schaefer III, K. Patkowski, R. A. King, E. F. Valeev,
    F. A. Evangelista, J. M. Turney, T. D. Crawford, and C. D. Sherrill,
    J. Chem. Theory Comput. 13(7) pp 3185--3197 (2017).
    (doi: 10.1021/acs.jctc.7b00174)


                         Additional Contributions by
    P. Kraus, H. Kruse, M. H. Lechner, M. C. Schieber, R. A. Shaw,
    A. Alenaizan, R. Galvelis, Z. L. Glick, S. Lehtola, and J. P. Misiewicz

    -----------------------------------------------------------------------


    Psi4 started on: Friday, 29 October 2021 08:30AM

    Process ID: 148521
    Host:       bp1-compute00108.data.bp.acrc.priv
    PSIDATADIR: /work/zw18965/.conda/envs/p4env/share/psi4
    Memory:     500.0 MiB
    Threads:    24
    
  ==> Input File <==

--------------------------------------------------------------------------
memory 144 GB

molecule {
0 2
Ag       0.000000    0.000000    0.000000 
Ag       0.000000    0.000000    2.592532 
Ag       0.000000    0.000000   -2.592532 
 }

set reference uks
set dynamic_level 1
set basis Def2-TZVPPD

optimize("M11-D3BJ")
frequencies("M11-D3BJ")
--------------------------------------------------------------------------

  Memory set to 134.110 GiB by Python driver.
gradient() will perform analytic gradient computation.

*** tstart() called on bp1-compute00108.data.bp.acrc.priv
*** at Fri Oct 29 08:30:00 2021

   => Loading Basis Set <=

    Name: DEF2-TZVPPD
    Role: ORBITAL
    Keyword: BASIS
    atoms 1-3 entry AG         line  2174 (ECP: line  3646) file /work/zw18965/.conda/envs/p4env/share/psi4/basis/def2-tzvppd.gbs 

    !!!  WARNING: ECP capability is in beta. Please check occupations closely.  !!!


         ---------------------------------------------------------
                                   SCF
               by Justin Turney, Rob Parrish, Andy Simmonett
                          and Daniel G. A. Smith
                              UKS Reference
                       24 Threads, 137329 MiB Core
         ---------------------------------------------------------

  ==> Geometry <==

    Molecular point group: d2h
    Full point group: D_inf_h

    Geometry (in Angstrom), charge = 0, multiplicity = 2:

       Center              X                  Y                   Z               Mass       
    ------------   -----------------  -----------------  -----------------  -----------------
         AG           0.000000000000     0.000000000000     0.000000000000   106.905091600000
         AG           0.000000000000     0.000000000000     2.592532000000   106.905091600000
         AG           0.000000000000     0.000000000000    -2.592532000000   106.905091600000

  Running in d2h symmetry.

  Rotational constants: A = ************  B =      0.01173  C =      0.01173 [cm^-1]
  Rotational constants: A = ************  B =    351.67424  C =    351.67424 [MHz]
  Nuclear repulsion =  184.214672231499947

  Charge       = 0
  Multiplicity = 2
  Electrons    = 57
  Nalpha       = 29
  Nbeta        = 28

  ==> Algorithm <==

  SCF Algorithm Type is DF.
  DIIS enabled.
  MOM disabled.
  Fractional occupation disabled.
  Guess Type is SAD.
  Energy threshold   = 1.00e-08
  Density threshold  = 1.00e-08
  Integral threshold = 0.00e+00

  ==> Primary Basis <==

  Basis Set: DEF2-TZVPPD
    Blend: DEF2-TZVPPD
    Number of shells: 48
    Number of basis function: 168
    Number of Cartesian functions: 213
    Spherical Harmonics?: true
    Max angular momentum: 4

  Core potential: DEF2-TZVPPD
    Number of shells: 12
    Number of ECP primitives: 42
    Number of ECP core electrons: 84
    Max angular momentum: 3

  ==> DFT Potential <==

   => Composite Functional: M11-D3BJ <= 

    M11 Meta-GGA XC Functional

    R. Peverati and D. G. Truhlar, J. Phys. Chem. Lett., 2, 2810, 2011


    Deriv               =              1
    GGA                 =           TRUE
    Meta                =           TRUE

    Exchange Hybrid     =           TRUE
    MP2 Hybrid          =          FALSE

   => Exchange Functionals <=

    1.0000   XC_HYB_MGGA_X_M11 [omega = 0.2500]

   => Exact (HF) Exchange <=

    0.5720            HF,LR [omega = 0.2500]
    0.4280               HF 

   => Correlation Functionals <=

    1.0000    XC_MGGA_C_M11

   => Molecular Quadrature <=

    Radial Scheme          =       TREUTLER
    Pruning Scheme         =           FLAT
    Nuclear Scheme         =       TREUTLER

    BS radius alpha        =              1
    Pruning alpha          =              1
    Radial Points          =             75
    Spherical Points       =            302
    Total Points           =          67368
    Total Blocks           =            623
    Max Points             =            248
    Max Functions          =            149

   => M11-D3(BJ): Empirical Dispersion <=

    Grimme's -D3 (BJ-damping) Dispersion Correction
    Grimme S.; Ehrlich S.; Goerigk L. (2011), J. Comput. Chem., 32: 1456
    Parametrisation from:    L. Goerigk, J. Phys. Chem. Lett. 6, 3891-3896, 2015

        s6 =       1.000000
        s8 =       2.811200
        a1 =       0.000000
        a2 =      10.138900

   => Loading Basis Set <=

    Name: (DEF2-TZVPPD AUX)
    Role: JKFIT
    Keyword: DF_BASIS_SCF
    atoms 1-3 entry AG         line  4369 file /work/zw18965/.conda/envs/p4env/share/psi4/basis/def2-tzvpp-jkfit.gbs 

  ==> Pre-Iterations <==

   -------------------------------------------------------
    Irrep   Nso     Nmo     Nalpha   Nbeta   Ndocc  Nsocc
   -------------------------------------------------------
     Ag        38      38       0       0       0       0
     B1g       12      12       0       0       0       0
     B2g       18      18       0       0       0       0
     B3g       18      18       0       0       0       0
     Au         9       9       0       0       0       0
     B1u       31      31       0       0       0       0
     B2u       21      21       0       0       0       0
     B3u       21      21       0       0       0       0
   -------------------------------------------------------
    Total     168     168      29      28      28       1
   -------------------------------------------------------

  ==> Integral Setup <==

  ==> DiskDFJK: Density-Fitted J/K Matrices <==

    J tasked:                  Yes
    K tasked:                  Yes
    wK tasked:                 Yes
    Omega:               2.500E-01
    OpenMP threads:             24
    Integrals threads:          24
    Memory [MiB]:           102446
    Algorithm:                Core
    Integral Cache:           NONE
    Schwarz Cutoff:          1E-12
    Fitting Condition:       1E-10

   => Auxiliary Basis Set <=

  Basis Set: (DEF2-TZVPPD AUX)
    Blend: DEF2-TZVPP-JKFIT
    Number of shells: 147
    Number of basis function: 765
    Number of Cartesian functions: 1152
    Spherical Harmonics?: true
    Max angular momentum: 6

  Cached 100.0% of DFT collocation blocks in 0.537 [GiB].

  Minimum eigenvalue in the overlap matrix is 1.2048124510E-03.
  Using Symmetric Orthogonalization.

  SCF Guess: Superposition of Atomic Densities via on-the-fly atomic UHF.

  ==> Iterations <==

                           Total Energy        Delta E     RMS |[F,P]|

   @DF-UKS iter SAD:  -439.82899271816450   -4.39829e+02   0.00000e+00 
   @DF-UKS iter   1:  -440.51665024940507   -6.87658e-01   3.25706e-03 DIIS
   @DF-UKS iter   2:  -440.53160923648488   -1.49590e-02   3.17816e-03 DIIS
   @DF-UKS iter   3:  -440.54418767628795   -1.25784e-02   4.88936e-04 DIIS
   @DF-UKS iter   4:  -440.54513876680653   -9.51091e-04   2.70348e-04 DIIS
   @DF-UKS iter   5:  -440.54567619584941   -5.37429e-04   1.22149e-04 DIIS
   @DF-UKS iter   6:  -440.54590740992103   -2.31214e-04   5.40161e-05 DIIS
   @DF-UKS iter   7:  -440.54595302788880   -4.56180e-05   3.82132e-05 DIIS
   @DF-UKS iter   8:  -440.54597167042743   -1.86425e-05   1.64777e-05 DIIS
   @DF-UKS iter   9:  -440.54597641290002   -4.74247e-06   4.25673e-06 DIIS
   @DF-UKS iter  10:  -440.54597665133929   -2.38439e-07   9.74300e-07 DIIS
   @DF-UKS iter  11:  -440.54597666322206   -1.18828e-08   2.67959e-07 DIIS
   @DF-UKS iter  12:  -440.54597666412633   -9.04265e-10   7.87994e-08 DIIS
   @DF-UKS iter  13:  -440.54597666421887   -9.25411e-11   2.32328e-08 DIIS
   @DF-UKS iter  14:  -440.54597666422524   -6.36646e-12   7.99704e-09 DIIS
  Energy and wave function converged.


  ==> Post-Iterations <==

   @Spin Contamination Metric:   6.211680350E-02
   @S^2 Expected:                7.500000000E-01
   @S^2 Observed:                8.121168035E-01
   @S   Expected:                5.000000000E-01
   @S   Observed:                5.000000000E-01

    Orbital Energies [Eh]
    ---------------------

    Alpha Occupied:                                                       

       1B1u   -3.867842     1Ag    -3.867838     2Ag    -3.847544  
       2B1u   -2.463683     3Ag    -2.462574     1B3u   -2.459217  
       1B2u   -2.459217     1B2g   -2.459217     1B3g   -2.459217  
       3B1u   -2.443639     2B3u   -2.437556     2B2u   -2.437556  
       4Ag    -0.492312     2B3g   -0.468557     2B2g   -0.468557  
       4B1u   -0.452729     3B2u   -0.451326     3B3u   -0.451326  
       1B1g   -0.447743     5Ag    -0.447736     1Au    -0.446836  
       5B1u   -0.446830     2B1g   -0.422441     6Ag    -0.422433  
       3B3g   -0.410032     3B2g   -0.410032     7Ag    -0.400390  
       8Ag    -0.286319     6B1u   -0.241356  

    Alpha Virtual:                                                        

       9Ag    -0.001279     4B2u    0.031950     4B3u    0.031950  
       7B1u    0.051721     4B3g    0.060246     4B2g    0.060246  
       5B2u    0.113513     5B3u    0.113513    10Ag     0.114919  
       8B1u    0.127097    11Ag     0.145363     9B1u    0.189700  
      12Ag     0.213456     6B2u    0.229501     6B3u    0.229501  
       5B3g    0.265388     5B2g    0.265388    10B1u    0.307400  
       7B2u    0.331495     7B3u    0.331495    13Ag     0.379768  
      14Ag     0.455364     3B1g    0.455372    11B1u    0.491632  
       2Au     0.491638     6B3g    0.495024     6B2g    0.495024  
      12B1u    0.534332     4B1g    0.578434    15Ag     0.578445  
       8B2u    0.587351     8B3u    0.587351    16Ag     0.691515  
      13B1u    0.763292     7B3g    0.768176     7B2g    0.768176  
      17Ag     0.831903    14B1u    1.548595     9B2u    1.652774  
       9B3u    1.652774    10B2u    1.692975    10B3u    1.692975  
       8B3g    1.696188     8B2g    1.696188     3Au     1.700044  
      15B1u    1.700080    18Ag     1.703665    11B2u    1.709525  
      11B3u    1.709525     9B3g    1.709575     9B2g    1.709575  
       5B1g    1.710875    19Ag     1.710911    12B2u    1.730594  
      12B3u    1.730594    13B2u    1.736557    13B3u    1.736557  
       4Au     1.743080    16B1u    1.743130    17B1u    1.750315  
      20Ag     1.769961    10B3g    1.783496    10B2g    1.783496  
      14B2u    1.856148    14B3u    1.856148    18B1u    1.874167  
      21Ag     1.979039    19B1u    2.031146    22Ag     2.144763  
       6B1g    2.144805    20B1u    2.154774     5Au     2.154793  
      11B3g    2.169783    11B2g    2.169783    23Ag     2.199705  
       7B1g    2.199775    15B2u    2.220347    15B3u    2.220347  
      24Ag     2.248409    21B1u    2.287032    12B3g    2.319214  
      12B2g    2.319214    22B1u    2.425506    25Ag     2.476687  
      26Ag     2.774512    23B1u    4.839066    16B3u    4.850802  
      16B2u    4.850802     6Au     4.888858    24B1u    4.889060  
      17B2u    4.895352    17B3u    4.895352    13B3g    4.895394  
      13B2g    4.895394     8B1g    4.898076    27Ag     4.898261  
      18B2u    4.914708    18B3u    4.914708     7Au     4.924052  
      25B1u    4.924327    14B2g    4.938367    14B3g    4.938367  
      19B3u    5.002799    19B2u    5.002799    28Ag     5.057738  
      26B1u    5.213173    27B1u    5.659589    20B2u    5.659821  
      20B3u    5.659821    29Ag     5.659934     8Au     5.659954  
       9B1g    5.660300    15B2g    5.660701    15B3g    5.660701  
      21B2u    5.660836    21B3u    5.660836    16B3g    5.660885  
      16B2g    5.660885    30Ag     5.661512    28B1u    5.661512  
       9Au     5.661919    10B1g    5.661919    31Ag     5.663425  
      29B1u    5.664735    32Ag     5.684282    11B1g    5.684887  
      17B2g    5.686280    17B3g    5.686280    18B3g    5.686657  
      18B2g    5.686657    33Ag     5.687365    12B1g    5.687954  
      34Ag     5.703813    35Ag    33.311615    30B1u   33.457820  
      36Ag    33.851179    37Ag   110.507040    31B1u  110.552218  
      38Ag   110.689090  

    Beta Occupied:                                                        

       1B1u   -3.864771     1Ag    -3.864766     2Ag    -3.848238  
       2B1u   -2.461460     3Ag    -2.460356     1B2u   -2.457340  
       1B3u   -2.457340     1B3g   -2.457311     1B2g   -2.457311  
       3B1u   -2.442262     2B2u   -2.438814     2B3u   -2.438814  
       4Ag    -0.489755     2B3g   -0.466226     2B2g   -0.466226  
       4B1u   -0.450270     3B2u   -0.447991     3B3u   -0.447991  
       1B1g   -0.444600     5Ag    -0.444592     1Au    -0.443486  
       5B1u   -0.443478     2B1g   -0.423509     6Ag    -0.423501  
       3B3g   -0.409438     3B2g   -0.409438     7Ag    -0.397449  
       8Ag    -0.255591  

    Beta Virtual:                                                         

       6B1u   -0.060917     9Ag    -0.015848     7B1u    0.020512  
       4B2u    0.021480     4B3u    0.021480     4B3g    0.044264  
       4B2g    0.044264     5B2u    0.092146     5B3u    0.092146  
       8B1u    0.093434    10Ag     0.102120    11Ag     0.133557  
       9B1u    0.191445    12Ag     0.204705     6B3u    0.234917  
       6B2u    0.234917     5B2g    0.272112     5B3g    0.272112  
      10B1u    0.301267     7B3u    0.330075     7B2u    0.330075  
      13Ag     0.382305    14Ag     0.458363     3B1g    0.458370  
       6B3g    0.498239     6B2g    0.498239     2Au     0.501222  
      11B1u    0.501231    12B1u    0.537618     4B1g    0.579663  
      15Ag     0.579677     8B2u    0.591164     8B3u    0.591164  
      16Ag     0.694855    13B1u    0.765455     7B3g    0.769390  
       7B2g    0.769390    17Ag     0.831860    14B1u    1.549266  
       9B2u    1.654294     9B3u    1.654294    10B2u    1.692804  
      10B3u    1.692804     8B3g    1.696501     8B2g    1.696501  
      18Ag     1.702284     3Au     1.702420    15B1u    1.702464  
      11B2u    1.711869    11B3u    1.711869     9B3g    1.711925  
       9B2g    1.711925     5B1g    1.713783    19Ag     1.713826  
      12B2u    1.729054    12B3u    1.729054    13B3u    1.736071  
      13B2u    1.736071     4Au     1.743241    16B1u    1.743289  
      17B1u    1.747572    20Ag     1.769782    10B3g    1.784530  
      10B2g    1.784530    14B2u    1.855975    14B3u    1.855975  
      18B1u    1.875174    21Ag     1.985125    19B1u    2.029773  
      22Ag     2.141491     6B1g    2.141562    20B1u    2.149115  
       5Au     2.149187    11B3g    2.166980    11B2g    2.166980  
      23Ag     2.199008     7B1g    2.199072    15B2u    2.216724  
      15B3u    2.216724    24Ag     2.247576    21B1u    2.285407  
      12B3g    2.318676    12B2g    2.318676    22B1u    2.430337  
      25Ag     2.474577    26Ag     2.774757    23B1u    4.837983  
      16B3u    4.849913    16B2u    4.849913     6Au     4.888002  
      24B1u    4.888206    17B2u    4.893488    17B3u    4.893488  
      13B3g    4.893525    13B2g    4.893525     8B1g    4.896949  
      27Ag     4.897137    18B2u    4.915423    18B3u    4.915423  
       7Au     4.924019    25B1u    4.924294    14B2g    4.936361  
      14B3g    4.936361    19B3u    5.001994    19B2u    5.001994  
      28Ag     5.055100    26B1u    5.211286    20B3u    5.663161  
      20B2u    5.663161    27B1u    5.663350    29Ag     5.663698  
       8Au     5.663750    15B2g    5.663997    15B3g    5.663997  
       9B1g    5.664099    21B3u    5.665065    21B2u    5.665065  
      16B2g    5.665069    16B3g    5.665069    30Ag     5.666021  
      28B1u    5.666022    31Ag     5.666235    10B1g    5.666438  
       9Au     5.666438    29B1u    5.667847    32Ag     5.682717  
      11B1g    5.683316    17B3g    5.684885    17B2g    5.684885  
      18B3g    5.685183    18B2g    5.685183    33Ag     5.686697  
      12B1g    5.687282    34Ag     5.702418    35Ag    33.313983  
      30B1u   33.460836    36Ag    33.850980    37Ag   110.507417  
      31B1u  110.552643    38Ag   110.689286  

    Final Occupation by Irrep:
             Ag   B1g   B2g   B3g    Au   B1u   B2u   B3u 
    DOCC [     8,    2,    3,    3,    1,    5,    3,    3 ]
    SOCC [     0,    0,    0,    0,    0,    1,    0,    0 ]

  @DF-UKS Final Energy:  -440.54597666422524

   => Energetics <=

    Nuclear Repulsion Energy =            184.2146722314999465
    One-Electron Energy =               -1152.2244752606484326
    Two-Electron Energy =                 548.0825222059881980
    DFT Exchange-Correlation Energy =     -20.6165149310647600
    Empirical Dispersion Energy =          -0.0021809100000000
    VV10 Nonlocal Energy =                  0.0000000000000000
    Total Energy =                       -440.5459766642251225

  UHF NO Occupations:
  HONO-2 :    5B1u 1.9999434
  HONO-1 :    8 Ag 1.9687342
  HONO-0 :    6B1u 1.0000000
  LUNO+0 :    9 Ag 0.0312658
  LUNO+1 :    7B1u 0.0000566
  LUNO+2 :    4B3g 0.0000379
  LUNO+3 :    4B2g 0.0000379


Computation Completed


Properties will be evaluated at   0.000000,   0.000000,   0.000000 [a0]

Properties computed using the SCF density matrix

  Nuclear Dipole Moment: [e a0]
     X:     0.0000      Y:     0.0000      Z:     0.0000

  Electronic Dipole Moment: [e a0]
     X:     0.0000      Y:     0.0000      Z:     0.0000

  Dipole Moment: [e a0]
     X:     0.0000      Y:     0.0000      Z:     0.0000     Total:     0.0000

  Dipole Moment: [D]
     X:     0.0000      Y:     0.0000      Z:     0.0000     Total:     0.0000


*** tstop() called on bp1-compute00108.data.bp.acrc.priv at Fri Oct 29 08:30:23 2021
Module time:
	user time   =     399.16 seconds =       6.65 minutes
	system time =      20.82 seconds =       0.35 minutes
	total time  =         23 seconds =       0.38 minutes
Total time:
	user time   =     399.16 seconds =       6.65 minutes
	system time =      20.82 seconds =       0.35 minutes
	total time  =         23 seconds =       0.38 minutes

*** tstart() called on bp1-compute00108.data.bp.acrc.priv
*** at Fri Oct 29 08:30:23 2021


         ------------------------------------------------------------
                                   SCF GRAD                          
                          Rob Parrish, Justin Turney,                
                       Andy Simmonett, and Alex Sokolov              
         ------------------------------------------------------------

  ==> Geometry <==

    Molecular point group: d2h
    Full point group: D_inf_h

    Geometry (in Angstrom), charge = 0, multiplicity = 2:

       Center              X                  Y                   Z               Mass       
    ------------   -----------------  -----------------  -----------------  -----------------
         AG           0.000000000000     0.000000000000     0.000000000000   106.905091600000
         AG           0.000000000000     0.000000000000     2.592532000000   106.905091600000
         AG           0.000000000000     0.000000000000    -2.592532000000   106.905091600000

  Nuclear repulsion =  184.214672231499947

  ==> Basis Set <==

  Basis Set: DEF2-TZVPPD
    Blend: DEF2-TZVPPD
    Number of shells: 48
    Number of basis function: 168
    Number of Cartesian functions: 213
    Spherical Harmonics?: true
    Max angular momentum: 4

  Core potential: DEF2-TZVPPD
    Number of shells: 12
    Number of ECP primitives: 42
    Number of ECP core electrons: 84
    Max angular momentum: 3

  ==> DFJKGrad: Density-Fitted SCF Gradients <==

    Gradient:                    1
    J tasked:                  Yes
    K tasked:                  Yes
    wK tasked:                 Yes
    Omega:               2.500E-01
    OpenMP threads:             24
    Integrals threads:          24
    Memory [MiB]:           102996
    Schwarz Cutoff:          0E+00
    Fitting Condition:       1E-10

   => Auxiliary Basis Set <=

  Basis Set: (DEF2-TZVPPD AUX)
    Blend: DEF2-TZVPP-JKFIT
    Number of shells: 147
    Number of basis function: 765
    Number of Cartesian functions: 1152
    Spherical Harmonics?: true
    Max angular momentum: 6

  ==> DFT Potential <==

   => Composite Functional: M11-D3BJ <= 

    M11 Meta-GGA XC Functional

    R. Peverati and D. G. Truhlar, J. Phys. Chem. Lett., 2, 2810, 2011


    Deriv               =              1
    GGA                 =           TRUE
    Meta                =           TRUE

    Exchange Hybrid     =           TRUE
    MP2 Hybrid          =          FALSE

   => Exchange Functionals <=

    1.0000   XC_HYB_MGGA_X_M11 [omega = 0.2500]

   => Exact (HF) Exchange <=

    0.5720            HF,LR [omega = 0.2500]
    0.4280               HF 

   => Correlation Functionals <=

    1.0000    XC_MGGA_C_M11

   => Molecular Quadrature <=

    Radial Scheme          =       TREUTLER
    Pruning Scheme         =           FLAT
    Nuclear Scheme         =       TREUTLER

    BS radius alpha        =              1
    Pruning alpha          =              1
    Radial Points          =             75
    Spherical Points       =            302
    Total Points           =          67368
    Total Blocks           =            623
    Max Points             =            248
    Max Functions          =            149


  -Total Gradient:
     Atom            X                  Y                   Z
    ------   -----------------  -----------------  -----------------
       1        0.000000000000     0.000000000000     0.000000000000
       2        0.000000000000     0.000000000000    -0.134390793552
       3       -0.000000000000     0.000000000000     0.134390793552


*** tstop() called on bp1-compute00108.data.bp.acrc.priv at Fri Oct 29 08:30:31 2021
Module time:
	user time   =      96.91 seconds =       1.62 minutes
	system time =      12.11 seconds =       0.20 minutes
	total time  =          8 seconds =       0.13 minutes
Total time:
	user time   =     497.02 seconds =       8.28 minutes
	system time =      32.99 seconds =       0.55 minutes
	total time  =         31 seconds =       0.52 minutes


  ==> Adding ECP gradient terms (computed numerically) <==

  -ECP Gradient:
     Atom            X                  Y                   Z
    ------   -----------------  -----------------  -----------------
       1       -0.000000000000     0.000000000000     0.000000000000
       2       -0.000000000000     0.000000000000     0.129263039443
       3       -0.000000000000     0.000000000000    -0.129263039443


  -Total Gradient:
     Atom            X                  Y                   Z
    ------   -----------------  -----------------  -----------------
       1       -0.000000000000     0.000000000000     0.000000000000
       2       -0.000000000000     0.000000000000    -0.005127754110
       3       -0.000000000000     0.000000000000     0.005127754110


			-----------------------------------------
			 OPTKING 2.0: for geometry optimizations 
			  - R.A. King,  Bethel University        
			-----------------------------------------
	At level 1: Red. Int., RFO, no backsteps, dynamic trust

	Internal coordinates to be generated automatically.
	Detected frag 1 with atoms:  1 2 3
	---Fragment 1 Bond Connectivity---
	 1 : 2 3
	 2 : 1
	 3 : 1

	---Fragment 1 Geometry and Gradient---
	 AG          0.0000000000        0.0000000000        0.0000000000
	 AG          0.0000000000        0.0000000000        4.8991754515
	 AG          0.0000000000        0.0000000000       -4.8991754515
	            -0.0000000000        0.0000000000        0.0000000000
	            -0.0000000000        0.0000000000       -0.0051277541
	            -0.0000000000        0.0000000000        0.0051277541

	Previous optimization step data not found.  Starting new optimization.

	---Fragment 1 Intrafragment Coordinates---
	 - Coordinate -           - BOHR/RAD -       - ANG/DEG -
	 R(1,2)           =         4.899175	       2.592532
	 R(1,3)           =         4.899175	       2.592532
	 L(2,1,3)         =         3.141593	     180.000000
	 l(2,1,3)         =         3.141593	     180.000000

	Current energy   :      -440.5459766642

	Generating empirical Hessian (Schlegel '84) for each fragment.
	Taking RFO optimization step.
	Going to follow RFO solution 1.
	Using RFO vector 1.
	Norm of target step-size    0.09407
	Projected energy change by RFO approximation:         0.0037092586

	Back-transformation to cartesian coordinates...
	Successfully converged to displaced geometry.

	--- Internal Coordinate Step in ANG or DEG, aJ/ANG or AJ/DEG ---
	 ---------------------------------------------------------------------------
	   Coordinate                Previous        Force       Change         New 
	   ----------                --------       ------       ------       ------
	    1 R(1,2)          =      2.592532     0.042246     0.035198     2.627730
	    2 R(1,3)          =      2.592532     0.042246     0.035198     2.627730
	    3 L(2,1,3)        =    180.000000    -0.000000     0.000000   180.000000
	    4 l(2,1,3)        =    180.000000    -0.000000     0.000000   180.000000
	 ---------------------------------------------------------------------------
	Successfully symmetrized geometry.

  ==> Convergence Check <==

  Measures of convergence in internal coordinates in au.
  Criteria marked as inactive (o), active & met (*), and active & unmet ( ).
  --------------------------------------------------------------------------------------------- ~
   Step     Total Energy     Delta E     MAX Force     RMS Force      MAX Disp      RMS Disp    ~
  --------------------------------------------------------------------------------------------- ~
    Convergence Criteria    1.00e-06 *    3.00e-04 *             o    1.20e-03 *             o  ~
  --------------------------------------------------------------------------------------------- ~
      1    -440.54597666   -4.41e+02      5.13e-03      3.63e-03 o    6.65e-02      4.70e-02 o  ~
  ---------------------------------------------------------------------------------------------

	Writing optimization data to binary file.
	Structure for next step:
	Cartesian Geometry (in Angstrom)
	   AG    -0.0000000000   0.0000000000   0.0000000000
	   AG     0.0000000000  -0.0000000000   2.6277301244
	   AG     0.0000000000  -0.0000000000  -2.6277301244
			--------------------------
			 OPTKING Finished Execution 
			--------------------------

    Structure for next step:
    Molecular point group: d2h
    Full point group: D_inf_h

    Geometry (in Angstrom), charge = 0, multiplicity = 2:

    AG           0.000000000000     0.000000000000     0.000000000000
    AG          -0.000000000000    -0.000000000000     2.627730134696
    AG          -0.000000000000    -0.000000000000    -2.627730134696

gradient() will perform analytic gradient computation.

*** tstart() called on bp1-compute00108.data.bp.acrc.priv
*** at Fri Oct 29 08:32:49 2021

   => Loading Basis Set <=

    Name: DEF2-TZVPPD
    Role: ORBITAL
    Keyword: BASIS
    atoms 1-3 entry AG         line  2174 (ECP: line  3646) file /work/zw18965/.conda/envs/p4env/share/psi4/basis/def2-tzvppd.gbs 

    !!!  WARNING: ECP capability is in beta. Please check occupations closely.  !!!


         ---------------------------------------------------------
                                   SCF
               by Justin Turney, Rob Parrish, Andy Simmonett
                          and Daniel G. A. Smith
                              UKS Reference
                       24 Threads, 137329 MiB Core
         ---------------------------------------------------------

  ==> Geometry <==

    Molecular point group: d2h
    Full point group: D_inf_h

    Geometry (in Angstrom), charge = 0, multiplicity = 2:

       Center              X                  Y                   Z               Mass       
    ------------   -----------------  -----------------  -----------------  -----------------
         AG           0.000000000000     0.000000000000     0.000000000000   106.905091600000
         AG           0.000000000000     0.000000000000     2.627730134696   106.905091600000
         AG           0.000000000000     0.000000000000    -2.627730134696   106.905091600000

  Running in d2h symmetry.

  Rotational constants: A = ************  B =      0.01142  C =      0.01142 [cm^-1]
  Rotational constants: A = ************  B =    342.31607  C =    342.31607 [MHz]
  Nuclear repulsion =  181.747138461381780

  Charge       = 0
  Multiplicity = 2
  Electrons    = 57
  Nalpha       = 29
  Nbeta        = 28

  ==> Algorithm <==

  SCF Algorithm Type is DF.
  DIIS enabled.
  MOM disabled.
  Fractional occupation disabled.
  Guess Type is READ.
  Energy threshold   = 1.00e-08
  Density threshold  = 1.00e-08
  Integral threshold = 0.00e+00

  ==> Primary Basis <==

  Basis Set: DEF2-TZVPPD
    Blend: DEF2-TZVPPD
    Number of shells: 48
    Number of basis function: 168
    Number of Cartesian functions: 213
    Spherical Harmonics?: true
    Max angular momentum: 4

  Core potential: DEF2-TZVPPD
    Number of shells: 12
    Number of ECP primitives: 42
    Number of ECP core electrons: 84
    Max angular momentum: 3

  ==> DFT Potential <==

   => Composite Functional: M11-D3BJ <= 

    M11 Meta-GGA XC Functional

    R. Peverati and D. G. Truhlar, J. Phys. Chem. Lett., 2, 2810, 2011


    Deriv               =              1
    GGA                 =           TRUE
    Meta                =           TRUE

    Exchange Hybrid     =           TRUE
    MP2 Hybrid          =          FALSE

   => Exchange Functionals <=

    1.0000   XC_HYB_MGGA_X_M11 [omega = 0.2500]

   => Exact (HF) Exchange <=

    0.5720            HF,LR [omega = 0.2500]
    0.4280               HF 

   => Correlation Functionals <=

    1.0000    XC_MGGA_C_M11

   => Molecular Quadrature <=

    Radial Scheme          =       TREUTLER
    Pruning Scheme         =           FLAT
    Nuclear Scheme         =       TREUTLER

    BS radius alpha        =              1
    Pruning alpha          =              1
    Radial Points          =             75
    Spherical Points       =            302
    Total Points           =          67368
    Total Blocks           =            623
    Max Points             =            248
    Max Functions          =            149

   => M11-D3(BJ): Empirical Dispersion <=

    Grimme's -D3 (BJ-damping) Dispersion Correction
    Grimme S.; Ehrlich S.; Goerigk L. (2011), J. Comput. Chem., 32: 1456
    Parametrisation from:    L. Goerigk, J. Phys. Chem. Lett. 6, 3891-3896, 2015

        s6 =       1.000000
        s8 =       2.811200
        a1 =       0.000000
        a2 =      10.138900

   => Loading Basis Set <=

    Name: (DEF2-TZVPPD AUX)
    Role: JKFIT
    Keyword: DF_BASIS_SCF
    atoms 1-3 entry AG         line  4369 file /work/zw18965/.conda/envs/p4env/share/psi4/basis/def2-tzvpp-jkfit.gbs 

   => Loading Basis Set <=

    Name: DEF2-TZVPPD
    Role: ORBITAL
    Keyword: BASIS
    atoms 1-3 entry AG         line  2174 (ECP: line  3646) file /work/zw18965/.conda/envs/p4env/share/psi4/basis/def2-tzvppd.gbs 

    !!!  WARNING: ECP capability is in beta. Please check occupations closely.  !!!

  Reading orbitals from file 180, no projection.

  ==> Pre-Iterations <==

   -------------------------------------------------------
    Irrep   Nso     Nmo     Nalpha   Nbeta   Ndocc  Nsocc
   -------------------------------------------------------
     Ag        38      38       0       0       0       0
     B1g       12      12       0       0       0       0
     B2g       18      18       0       0       0       0
     B3g       18      18       0       0       0       0
     Au         9       9       0       0       0       0
     B1u       31      31       0       0       0       0
     B2u       21      21       0       0       0       0
     B3u       21      21       0       0       0       0
   -------------------------------------------------------
    Total     168     168      29      28      28       1
   -------------------------------------------------------

  ==> Integral Setup <==

  ==> DiskDFJK: Density-Fitted J/K Matrices <==

    J tasked:                  Yes
    K tasked:                  Yes
    wK tasked:                 Yes
    Omega:               2.500E-01
    OpenMP threads:             24
    Integrals threads:          24
    Memory [MiB]:           102449
    Algorithm:                Core
    Integral Cache:           NONE
    Schwarz Cutoff:          1E-12
    Fitting Condition:       1E-10

   => Auxiliary Basis Set <=

  Basis Set: (DEF2-TZVPPD AUX)
    Blend: DEF2-TZVPP-JKFIT
    Number of shells: 147
    Number of basis function: 765
    Number of Cartesian functions: 1152
    Spherical Harmonics?: true
    Max angular momentum: 6

  Cached 100.0% of DFT collocation blocks in 0.535 [GiB].

  Minimum eigenvalue in the overlap matrix is 1.3167544201E-03.
  Using Symmetric Orthogonalization.

  SCF Guess: Orbitals guess was supplied from a previous computation.

  ==> Iterations <==

                           Total Energy        Delta E     RMS |[F,P]|

   @DF-UKS iter   0:  -440.55205760447689   -4.40552e+02   1.00045e-03 
   @DF-UKS iter   1:  -440.54636070930883    5.69690e-03   5.62583e-05 DIIS
   @DF-UKS iter   2:  -440.54636239903311   -1.68972e-06   5.55209e-05 DIIS
   @DF-UKS iter   3:  -440.54636566064960   -3.26162e-06   5.35175e-06 DIIS
   @DF-UKS iter   4:  -440.54636595030638   -2.89657e-07   3.59321e-06 DIIS
   @DF-UKS iter   5:  -440.54636606505733   -1.14751e-07   2.04645e-06 DIIS
   @DF-UKS iter   6:  -440.54636612038189   -5.53246e-08   7.95901e-07 DIIS
   @DF-UKS iter   7:  -440.54636613466232   -1.42804e-08   4.30179e-07 DIIS
   @DF-UKS iter   8:  -440.54636613688103   -2.21871e-09   1.64530e-07 DIIS
   @DF-UKS iter   9:  -440.54636613762455   -7.43512e-10   7.06508e-08 DIIS
   @DF-UKS iter  10:  -440.54636613770367   -7.91260e-11   1.55076e-08 DIIS
   @DF-UKS iter  11:  -440.54636613770663   -2.95586e-12   4.78775e-09 DIIS
  Energy and wave function converged.


  ==> Post-Iterations <==

   @Spin Contamination Metric:   6.696032142E-02
   @S^2 Expected:                7.500000000E-01
   @S^2 Observed:                8.169603214E-01
   @S   Expected:                5.000000000E-01
   @S   Observed:                5.000000000E-01

    Orbital Energies [Eh]
    ---------------------

    Alpha Occupied:                                                       

       1B1u   -3.867590     1Ag    -3.867585     2Ag    -3.846936  
       2B1u   -2.462987     3Ag    -2.462147     1B2g   -2.459052  
       1B3g   -2.459052     1B3u   -2.459051     1B2u   -2.459051  
       3B1u   -2.442954     2B2u   -2.437160     2B3u   -2.437160  
       4Ag    -0.488640     2B2g   -0.466277     2B3g   -0.466277  
       4B1u   -0.452161     3B3u   -0.450802     3B2u   -0.450802  
       1B1g   -0.447498     5Ag    -0.447496     1Au    -0.446737  
       5B1u   -0.446734     2B1g   -0.422297     6Ag    -0.422294  
       3B2g   -0.411166     3B3g   -0.411166     7Ag    -0.402035  
       8Ag    -0.284675     6B1u   -0.241333  

    Alpha Virtual:                                                        

       9Ag    -0.002220     4B3u    0.032241     4B2u    0.032241  
       7B1u    0.051016     4B2g    0.059770     4B3g    0.059770  
       5B3u    0.112739     5B2u    0.112739    10Ag     0.113938  
       8B1u    0.128823    11Ag     0.145883     9B1u    0.187275  
      12Ag     0.212812     6B3u    0.230462     6B2u    0.230462  
       5B2g    0.265034     5B3g    0.265034    10B1u    0.306550  
       7B3u    0.329728     7B2u    0.329728    13Ag     0.373001  
      14Ag     0.455926     3B1g    0.455934     6B2g    0.490982  
       6B3g    0.490982    11B1u    0.491638     2Au     0.491644  
      12B1u    0.527154     4B1g    0.576247    15Ag     0.576261  
       8B3u    0.583129     8B2u    0.583129    16Ag     0.687824  
      13B1u    0.757069     7B2g    0.763832     7B3g    0.763832  
      17Ag     0.833251    14B1u    1.574250     9B3u    1.658315  
       9B2u    1.658315    10B3u    1.693460    10B2u    1.693460  
       8B2g    1.696789     8B3g    1.696789     3Au     1.701998  
      15B1u    1.702024    18Ag     1.707615    11B3u    1.709477  
      11B2u    1.709477     9B2g    1.709510     9B3g    1.709510  
       5B1g    1.710555    19Ag     1.710582    12B3u    1.728566  
      12B2u    1.728566    13B2u    1.736452    13B3u    1.736452  
       4Au     1.741324    16B1u    1.741368    17B1u    1.748315  
      20Ag     1.768820    10B2g    1.777436    10B3g    1.777436  
      14B3u    1.848661    14B2u    1.848661    18B1u    1.859733  
      21Ag     1.970270    19B1u    2.023363    22Ag     2.144720  
       6B1g    2.144739    20B1u    2.154721     5Au     2.154721  
      11B2g    2.174789    11B3g    2.174789    23Ag     2.198606  
       7B1g    2.198647    15B2u    2.218868    15B3u    2.218868  
      24Ag     2.256912    21B1u    2.272209    12B2g    2.314066  
      12B3g    2.314066    22B1u    2.417356    25Ag     2.447771  
      26Ag     2.760997    23B1u    4.841641    16B2u    4.858384  
      16B3u    4.858384     6Au     4.890540    24B1u    4.890750  
      17B3u    4.895434    17B2u    4.895434    13B2g    4.895461  
      13B3g    4.895461     8B1g    4.897897    27Ag     4.898092  
      18B3u    4.914847    18B2u    4.914847     7Au     4.922551  
      25B1u    4.922847    14B3g    4.935729    14B2g    4.935729  
      19B2u    4.992224    19B3u    4.992224    28Ag     5.049864  
      26B1u    5.190208    27B1u    5.659853    20B2u    5.659929  
      20B3u    5.659929     8Au     5.660171    29Ag     5.660171  
       9B1g    5.660489    15B3g    5.660896    15B2g    5.660896  
      21B3u    5.660917    21B2u    5.660917    16B3g    5.661129  
      16B2g    5.661129    30Ag     5.661464    28B1u    5.661464  
       9Au     5.661856    10B1g    5.661856    31Ag     5.663372  
      29B1u    5.663465    32Ag     5.684854    11B1g    5.685383  
      17B3g    5.686550    17B2g    5.686550    18B3g    5.686784  
      18B2g    5.686784    33Ag     5.687411    12B1g    5.687978  
      34Ag     5.700711    35Ag    33.304059    30B1u   33.442671  
      36Ag    33.829318    37Ag   110.504948    31B1u  110.547486  
      38Ag   110.682083  

    Beta Occupied:                                                        

       1B1u   -3.864515     1Ag    -3.864510     2Ag    -3.847695  
       2B1u   -2.460738     3Ag    -2.459905     1B3u   -2.457186  
       1B2u   -2.457186     1B2g   -2.457160     1B3g   -2.457160  
       3B1u   -2.441675     2B2u   -2.438428     2B3u   -2.438428  
       4Ag    -0.486194     2B2g   -0.463908     2B3g   -0.463908  
       4B1u   -0.449703     3B3u   -0.447453     3B2u   -0.447453  
       1B1g   -0.444318     5Ag    -0.444314     1Au    -0.443379  
       5B1u   -0.443374     2B1g   -0.423430     6Ag    -0.423427  
       3B2g   -0.410672     3B3g   -0.410672     7Ag    -0.399127  
       8Ag    -0.254109  

    Beta Virtual:                                                         

       6B1u   -0.060895     9Ag    -0.016320     7B1u    0.019858  
       4B3u    0.021741     4B2u    0.021741     4B2g    0.043902  
       4B3g    0.043902     5B3u    0.091742     5B2u    0.091742  
       8B1u    0.095264    10Ag     0.100702    11Ag     0.134352  
       9B1u    0.188843    12Ag     0.204338     6B3u    0.235945  
       6B2u    0.235945     5B3g    0.271847     5B2g    0.271847  
      10B1u    0.300549     7B2u    0.328093     7B3u    0.328093  
      13Ag     0.375507    14Ag     0.458918     3B1g    0.458925  
       6B2g    0.494146     6B3g    0.494146     2Au     0.501308  
      11B1u    0.501318    12B1u    0.530338     4B1g    0.577326  
      15Ag     0.577341     8B3u    0.587085     8B2u    0.587085  
      16Ag     0.691220    13B1u    0.759258     7B2g    0.765012  
       7B3g    0.765012    17Ag     0.833071    14B1u    1.575014  
       9B3u    1.659475     9B2u    1.659475    10B3u    1.693613  
      10B2u    1.693613     8B2g    1.697108     8B3g    1.697108  
       3Au     1.704435    15B1u    1.704476    18Ag     1.706099  
      11B3u    1.711781    11B2u    1.711781     9B2g    1.711818  
       9B3g    1.711818     5B1g    1.713443    19Ag     1.713487  
      12B3u    1.727057    12B2u    1.727057    13B2u    1.735946  
      13B3u    1.735946     4Au     1.741359    16B1u    1.741400  
      17B1u    1.745269    20Ag     1.768566    10B2g    1.778416  
      10B3g    1.778416    14B3u    1.848479    14B2u    1.848479  
      18B1u    1.861330    21Ag     1.976607    19B1u    2.021955  
      22Ag     2.141409     6B1g    2.141452    20B1u    2.148991  
       5Au     2.149035    11B2g    2.171904    11B3g    2.171904  
      23Ag     2.198019     7B1g    2.198054    15B2u    2.215207  
      15B3u    2.215207    24Ag     2.255454    21B1u    2.271129  
      12B2g    2.313708    12B3g    2.313708    22B1u    2.421601  
      25Ag     2.446114    26Ag     2.761414    23B1u    4.840553  
      16B2u    4.857498    16B3u    4.857498     6Au     4.889619  
      24B1u    4.889837    17B3u    4.893541    17B2u    4.893541  
      13B2g    4.893565    13B3g    4.893565     8B1g    4.896744  
      27Ag     4.896949    18B3u    4.915613    18B2u    4.915613  
       7Au     4.922595    25B1u    4.922889    14B3g    4.933740  
      14B2g    4.933740    19B2u    4.991551    19B3u    4.991551  
      28Ag     5.047234    26B1u    5.188478    20B2u    5.663315  
      20B3u    5.663315    27B1u    5.663635    29Ag     5.663955  
       8Au     5.663991     9B1g    5.664312    15B3g    5.664426  
      15B2g    5.664426    21B3u    5.665151    21B2u    5.665151  
      16B3g    5.665155    16B2g    5.665155    30Ag     5.665980  
      28B1u    5.665981    31Ag     5.666258    10B1g    5.666382  
       9Au     5.666382    29B1u    5.666645    32Ag     5.683222  
      11B1g    5.683744    17B3g    5.685057    17B2g    5.685057  
      18B3g    5.685269    18B2g    5.685269    33Ag     5.686672  
      12B1g    5.687236    34Ag     5.699289    35Ag    33.306359  
      30B1u   33.445688    36Ag    33.829131    37Ag   110.505321  
      31B1u  110.547914    38Ag   110.682263  

    Final Occupation by Irrep:
             Ag   B1g   B2g   B3g    Au   B1u   B2u   B3u 
    DOCC [     8,    2,    3,    3,    1,    5,    3,    3 ]
    SOCC [     0,    0,    0,    0,    0,    1,    0,    0 ]

  @DF-UKS Final Energy:  -440.54636613770663

   => Energetics <=

    Nuclear Repulsion Energy =            181.7471384613817804
    One-Electron Energy =               -1147.3171522104876203
    Two-Electron Energy =                 545.6383533298817383
    DFT Exchange-Correlation Energy =     -20.6125451584825008
    Empirical Dispersion Energy =          -0.0021605600000000
    VV10 Nonlocal Energy =                  0.0000000000000000
    Total Energy =                       -440.5463661377065137

  UHF NO Occupations:
  HONO-2 :    5B1u 1.9999450
  HONO-1 :    8 Ag 1.9662272
  HONO-0 :    6B1u 1.0000000
  LUNO+0 :    9 Ag 0.0337728
  LUNO+1 :    7B1u 0.0000550
  LUNO+2 :    4B3g 0.0000352
  LUNO+3 :    4B2g 0.0000352


Computation Completed


Properties will be evaluated at   0.000000,   0.000000,   0.000000 [a0]

Properties computed using the SCF density matrix

  Nuclear Dipole Moment: [e a0]
     X:     0.0000      Y:     0.0000      Z:    -0.0000

  Electronic Dipole Moment: [e a0]
     X:     0.0000      Y:     0.0000      Z:     0.0000

  Dipole Moment: [e a0]
     X:     0.0000      Y:     0.0000      Z:    -0.0000     Total:     0.0000

  Dipole Moment: [D]
     X:     0.0000      Y:     0.0000      Z:    -0.0000     Total:     0.0000


*** tstop() called on bp1-compute00108.data.bp.acrc.priv at Fri Oct 29 08:33:07 2021
Module time:
	user time   =     324.26 seconds =       5.40 minutes
	system time =      15.66 seconds =       0.26 minutes
	total time  =         18 seconds =       0.30 minutes
Total time:
	user time   =    1739.42 seconds =      28.99 minutes
	system time =      67.68 seconds =       1.13 minutes
	total time  =        187 seconds =       3.12 minutes

*** tstart() called on bp1-compute00108.data.bp.acrc.priv
*** at Fri Oct 29 08:33:07 2021


         ------------------------------------------------------------
                                   SCF GRAD                          
                          Rob Parrish, Justin Turney,                
                       Andy Simmonett, and Alex Sokolov              
         ------------------------------------------------------------

  ==> Geometry <==

    Molecular point group: d2h
    Full point group: D_inf_h

    Geometry (in Angstrom), charge = 0, multiplicity = 2:

       Center              X                  Y                   Z               Mass       
    ------------   -----------------  -----------------  -----------------  -----------------
         AG           0.000000000000     0.000000000000     0.000000000000   106.905091600000
         AG           0.000000000000     0.000000000000     2.627730134696   106.905091600000
         AG           0.000000000000     0.000000000000    -2.627730134696   106.905091600000

  Nuclear repulsion =  181.747138461381780

  ==> Basis Set <==

  Basis Set: DEF2-TZVPPD
    Blend: DEF2-TZVPPD
    Number of shells: 48
    Number of basis function: 168
    Number of Cartesian functions: 213
    Spherical Harmonics?: true
    Max angular momentum: 4

  Core potential: DEF2-TZVPPD
    Number of shells: 12
    Number of ECP primitives: 42
    Number of ECP core electrons: 84
    Max angular momentum: 3

  ==> DFJKGrad: Density-Fitted SCF Gradients <==

    Gradient:                    1
    J tasked:                  Yes
    K tasked:                  Yes
    wK tasked:                 Yes
    Omega:               2.500E-01
    OpenMP threads:             24
    Integrals threads:          24
    Memory [MiB]:           102996
    Schwarz Cutoff:          0E+00
    Fitting Condition:       1E-10

   => Auxiliary Basis Set <=

  Basis Set: (DEF2-TZVPPD AUX)
    Blend: DEF2-TZVPP-JKFIT
    Number of shells: 147
    Number of basis function: 765
    Number of Cartesian functions: 1152
    Spherical Harmonics?: true
    Max angular momentum: 6

  ==> DFT Potential <==

   => Composite Functional: M11-D3BJ <= 

    M11 Meta-GGA XC Functional

    R. Peverati and D. G. Truhlar, J. Phys. Chem. Lett., 2, 2810, 2011


    Deriv               =              1
    GGA                 =           TRUE
    Meta                =           TRUE

    Exchange Hybrid     =           TRUE
    MP2 Hybrid          =          FALSE

   => Exchange Functionals <=

    1.0000   XC_HYB_MGGA_X_M11 [omega = 0.2500]

   => Exact (HF) Exchange <=

    0.5720            HF,LR [omega = 0.2500]
    0.4280               HF 

   => Correlation Functionals <=

    1.0000    XC_MGGA_C_M11

   => Molecular Quadrature <=

    Radial Scheme          =       TREUTLER
    Pruning Scheme         =           FLAT
    Nuclear Scheme         =       TREUTLER

    BS radius alpha        =              1
    Pruning alpha          =              1
    Radial Points          =             75
    Spherical Points       =            302
    Total Points           =          67368
    Total Blocks           =            623
    Max Points             =            248
    Max Functions          =            149


  -Total Gradient:
     Atom            X                  Y                   Z
    ------   -----------------  -----------------  -----------------
       1        0.000000000000    -0.000000000000     0.000000000000
       2        0.000000000000     0.000000000000    -0.121028299699
       3        0.000000000000     0.000000000000     0.121028299699


*** tstop() called on bp1-compute00108.data.bp.acrc.priv at Fri Oct 29 08:33:14 2021
Module time:
	user time   =      90.87 seconds =       1.51 minutes
	system time =       4.59 seconds =       0.08 minutes
	total time  =          7 seconds =       0.12 minutes
Total time:
	user time   =    1831.54 seconds =      30.53 minutes
	system time =      72.38 seconds =       1.21 minutes
	total time  =        194 seconds =       3.23 minutes


  ==> Adding ECP gradient terms (computed numerically) <==

  -ECP Gradient:
     Atom            X                  Y                   Z
    ------   -----------------  -----------------  -----------------
       1        0.000000000000     0.000000000000     0.000000000000
       2       -0.000000000000     0.000000000000     0.119735136170
       3        0.000000000000    -0.000000000000    -0.119735136170


  -Total Gradient:
     Atom            X                  Y                   Z
    ------   -----------------  -----------------  -----------------
       1        0.000000000000    -0.000000000000     0.000000000000
       2       -0.000000000000     0.000000000000    -0.001293163529
       3        0.000000000000    -0.000000000000     0.001293163529


			-----------------------------------------
			 OPTKING 2.0: for geometry optimizations 
			  - R.A. King,  Bethel University        
			-----------------------------------------
	At level 1: Red. Int., RFO, no backsteps, dynamic trust

	Previous internal coordinate definitions found.
	---Fragment 1 Geometry and Gradient---
	 AG          0.0000000000        0.0000000000        0.0000000000
	 AG          0.0000000000        0.0000000000        4.9656902862
	 AG          0.0000000000        0.0000000000       -4.9656902862
	             0.0000000000       -0.0000000000        0.0000000000
	            -0.0000000000        0.0000000000       -0.0012931635
	             0.0000000000       -0.0000000000        0.0012931635

	---Fragment 1 Intrafragment Coordinates---
	 - Coordinate -           - BOHR/RAD -       - ANG/DEG -
	 R(1,2)           =         4.965690	       2.627730
	 R(1,3)           =         4.965690	       2.627730
	 L(2,1,3)         =         3.141593	     180.000000
	 l(2,1,3)         =         3.141593	     180.000000

	Current energy   :      -440.5463661377

	Energy change for the previous step:
		Projected    :         0.0037092586
		Actual       :        -0.0003894735

	Performing BFGS update.
	Previous computed or guess Hessian on step 1.
	Steps to be used in Hessian update: 1
	Taking RFO optimization step.
	Going to follow RFO solution 1.
	Using RFO vector 1.
	Norm of target step-size    0.03169
	Projected energy change by RFO approximation:         0.0002968191

	Back-transformation to cartesian coordinates...
	Successfully converged to displaced geometry.

	--- Internal Coordinate Step in ANG or DEG, aJ/ANG or AJ/DEG ---
	 ---------------------------------------------------------------------------
	   Coordinate                Previous        Force       Change         New 
	   ----------                --------       ------       ------       ------
	    1 R(1,2)          =      2.627730     0.010654     0.011858     2.639588
	    2 R(1,3)          =      2.627730     0.010654     0.011858     2.639588
	    3 L(2,1,3)        =    180.000000     0.000000     0.000000   180.000000
	    4 l(2,1,3)        =    180.000000    -0.000000     0.000000   180.000000
	 ---------------------------------------------------------------------------
	Successfully symmetrized geometry.

  ==> Convergence Check <==

  Measures of convergence in internal coordinates in au.
  Criteria marked as inactive (o), active & met (*), and active & unmet ( ).
  ---------------------------------------------------------------------------------------------
   Step     Total Energy     Delta E     MAX Force     RMS Force      MAX Disp      RMS Disp   
  ---------------------------------------------------------------------------------------------
    Convergence Criteria    1.00e-06 *    3.00e-04 *             o    1.20e-03 *             o
  ---------------------------------------------------------------------------------------------
      2    -440.54636614   -3.89e-04      1.29e-03      9.14e-04 o    2.24e-02      1.58e-02 o  ~
  ---------------------------------------------------------------------------------------------

	Writing optimization data to binary file.
	Structure for next step:
	Cartesian Geometry (in Angstrom)
	   AG     0.0000000000   0.0000000000   0.0000000000
	   AG     0.0000000000  -0.0000000000   2.6395882955
	   AG     0.0000000000  -0.0000000000  -2.6395882955
			--------------------------
			 OPTKING Finished Execution 
			--------------------------

    Structure for next step:
    Molecular point group: d2h
    Full point group: D_inf_h

    Geometry (in Angstrom), charge = 0, multiplicity = 2:

    AG           0.000000000000     0.000000000000     0.000000000000
    AG          -0.000000000000     0.000000000000     2.639588305858
    AG          -0.000000000000     0.000000000000    -2.639588305858

gradient() will perform analytic gradient computation.

*** tstart() called on bp1-compute00108.data.bp.acrc.priv
*** at Fri Oct 29 08:35:32 2021

   => Loading Basis Set <=

    Name: DEF2-TZVPPD
    Role: ORBITAL
    Keyword: BASIS
    atoms 1-3 entry AG         line  2174 (ECP: line  3646) file /work/zw18965/.conda/envs/p4env/share/psi4/basis/def2-tzvppd.gbs 

    !!!  WARNING: ECP capability is in beta. Please check occupations closely.  !!!


         ---------------------------------------------------------
                                   SCF
               by Justin Turney, Rob Parrish, Andy Simmonett
                          and Daniel G. A. Smith
                              UKS Reference
                       24 Threads, 137329 MiB Core
         ---------------------------------------------------------

  ==> Geometry <==

    Molecular point group: d2h
    Full point group: D_inf_h

    Geometry (in Angstrom), charge = 0, multiplicity = 2:

       Center              X                  Y                   Z               Mass       
    ------------   -----------------  -----------------  -----------------  -----------------
         AG           0.000000000000    -0.000000000000     0.000000000000   106.905091600000
         AG           0.000000000000     0.000000000000     2.639588305858   106.905091600000
         AG           0.000000000000     0.000000000000    -2.639588305858   106.905091600000

  Running in d2h symmetry.

  Rotational constants: A = ************  B =      0.01132  C =      0.01132 [cm^-1]
  Rotational constants: A = ************  B =    339.24732  C =    339.24732 [MHz]
  Nuclear repulsion =  180.930651787567172

  Charge       = 0
  Multiplicity = 2
  Electrons    = 57
  Nalpha       = 29
  Nbeta        = 28

  ==> Algorithm <==

  SCF Algorithm Type is DF.
  DIIS enabled.
  MOM disabled.
  Fractional occupation disabled.
  Guess Type is READ.
  Energy threshold   = 1.00e-08
  Density threshold  = 1.00e-08
  Integral threshold = 0.00e+00

  ==> Primary Basis <==

  Basis Set: DEF2-TZVPPD
    Blend: DEF2-TZVPPD
    Number of shells: 48
    Number of basis function: 168
    Number of Cartesian functions: 213
    Spherical Harmonics?: true
    Max angular momentum: 4

  Core potential: DEF2-TZVPPD
    Number of shells: 12
    Number of ECP primitives: 42
    Number of ECP core electrons: 84
    Max angular momentum: 3

  ==> DFT Potential <==

   => Composite Functional: M11-D3BJ <= 

    M11 Meta-GGA XC Functional

    R. Peverati and D. G. Truhlar, J. Phys. Chem. Lett., 2, 2810, 2011


    Deriv               =              1
    GGA                 =           TRUE
    Meta                =           TRUE

    Exchange Hybrid     =           TRUE
    MP2 Hybrid          =          FALSE

   => Exchange Functionals <=

    1.0000   XC_HYB_MGGA_X_M11 [omega = 0.2500]

   => Exact (HF) Exchange <=

    0.5720            HF,LR [omega = 0.2500]
    0.4280               HF 

   => Correlation Functionals <=

    1.0000    XC_MGGA_C_M11

   => Molecular Quadrature <=

    Radial Scheme          =       TREUTLER
    Pruning Scheme         =           FLAT
    Nuclear Scheme         =       TREUTLER

    BS radius alpha        =              1
    Pruning alpha          =              1
    Radial Points          =             75
    Spherical Points       =            302
    Total Points           =          67368
    Total Blocks           =            621
    Max Points             =            248
    Max Functions          =            149

   => M11-D3(BJ): Empirical Dispersion <=

    Grimme's -D3 (BJ-damping) Dispersion Correction
    Grimme S.; Ehrlich S.; Goerigk L. (2011), J. Comput. Chem., 32: 1456
    Parametrisation from:    L. Goerigk, J. Phys. Chem. Lett. 6, 3891-3896, 2015

        s6 =       1.000000
        s8 =       2.811200
        a1 =       0.000000
        a2 =      10.138900

   => Loading Basis Set <=

    Name: (DEF2-TZVPPD AUX)
    Role: JKFIT
    Keyword: DF_BASIS_SCF
    atoms 1-3 entry AG         line  4369 file /work/zw18965/.conda/envs/p4env/share/psi4/basis/def2-tzvpp-jkfit.gbs 

   => Loading Basis Set <=

    Name: DEF2-TZVPPD
    Role: ORBITAL
    Keyword: BASIS
    atoms 1-3 entry AG         line  2174 (ECP: line  3646) file /work/zw18965/.conda/envs/p4env/share/psi4/basis/def2-tzvppd.gbs 

    !!!  WARNING: ECP capability is in beta. Please check occupations closely.  !!!

  Reading orbitals from file 180, no projection.

  ==> Pre-Iterations <==

   -------------------------------------------------------
    Irrep   Nso     Nmo     Nalpha   Nbeta   Ndocc  Nsocc
   -------------------------------------------------------
     Ag        38      38       0       0       0       0
     B1g       12      12       0       0       0       0
     B2g       18      18       0       0       0       0
     B3g       18      18       0       0       0       0
     Au         9       9       0       0       0       0
     B1u       31      31       0       0       0       0
     B2u       21      21       0       0       0       0
     B3u       21      21       0       0       0       0
   -------------------------------------------------------
    Total     168     168      29      28      28       1
   -------------------------------------------------------

  ==> Integral Setup <==

  ==> DiskDFJK: Density-Fitted J/K Matrices <==

    J tasked:                  Yes
    K tasked:                  Yes
    wK tasked:                 Yes
    Omega:               2.500E-01
    OpenMP threads:             24
    Integrals threads:          24
    Memory [MiB]:           102449
    Algorithm:                Core
    Integral Cache:           NONE
    Schwarz Cutoff:          1E-12
    Fitting Condition:       1E-10

   => Auxiliary Basis Set <=

  Basis Set: (DEF2-TZVPPD AUX)
    Blend: DEF2-TZVPP-JKFIT
    Number of shells: 147
    Number of basis function: 765
    Number of Cartesian functions: 1152
    Spherical Harmonics?: true
    Max angular momentum: 6

  Cached 100.0% of DFT collocation blocks in 0.535 [GiB].

  Minimum eigenvalue in the overlap matrix is 1.3565357872E-03.
  Using Symmetric Orthogonalization.

  SCF Guess: Orbitals guess was supplied from a previous computation.

  ==> Iterations <==

                           Total Energy        Delta E     RMS |[F,P]|

   @DF-UKS iter   0:  -440.54786745595038   -4.40548e+02   3.27262e-04 
   @DF-UKS iter   1:  -440.54638697256974    1.48048e-03   1.55405e-05 DIIS
   @DF-UKS iter   2:  -440.54638719644481   -2.23875e-07   1.43815e-05 DIIS
   @DF-UKS iter   3:  -440.54638742290456   -2.26460e-07   1.89657e-06 DIIS
   @DF-UKS iter   4:  -440.54638745908608   -3.61815e-08   1.14461e-06 DIIS
   @DF-UKS iter   5:  -440.54638747473814   -1.56521e-08   7.43230e-07 DIIS
   @DF-UKS iter   6:  -440.54638748086916   -6.13102e-09   2.86520e-07 DIIS
   @DF-UKS iter   7:  -440.54638748291211   -2.04295e-09   1.27246e-07 DIIS
   @DF-UKS iter   8:  -440.54638748317632   -2.64208e-10   5.25764e-08 DIIS
   @DF-UKS iter   9:  -440.54638748323293   -5.66160e-11   2.53383e-08 DIIS
   @DF-UKS iter  10:  -440.54638748324169   -8.75389e-12   5.31771e-09 DIIS
  Energy and wave function converged.


  ==> Post-Iterations <==

   @Spin Contamination Metric:   6.871470296E-02
   @S^2 Expected:                7.500000000E-01
   @S^2 Observed:                8.187147030E-01
   @S   Expected:                5.000000000E-01
   @S   Observed:                5.000000000E-01

    Orbital Energies [Eh]
    ---------------------

    Alpha Occupied:                                                       

       1B1u   -3.867510     1Ag    -3.867506     2Ag    -3.846758  
       2B1u   -2.462779     3Ag    -2.462013     1B2g   -2.459002  
       1B3g   -2.459002     1B3u   -2.459000     1B2u   -2.459000  
       3B1u   -2.442742     2B3u   -2.437051     2B2u   -2.437051  
       4Ag    -0.487465     2B3g   -0.465561     2B2g   -0.465561  
       4B1u   -0.451980     3B3u   -0.450639     3B2u   -0.450639  
       1B1g   -0.447427     5Ag    -0.447426     1Au    -0.446709  
       5B1u   -0.446708     2B1g   -0.422267     6Ag    -0.422266  
       3B3g   -0.411536     3B2g   -0.411536     7Ag    -0.402575  
       8Ag    -0.284127     6B1u   -0.241322  

    Alpha Virtual:                                                        

       9Ag    -0.002538     4B3u    0.032333     4B2u    0.032333  
       7B1u    0.050791     4B2g    0.059612     4B3g    0.059612  
       5B2u    0.112475     5B3u    0.112475    10Ag     0.113607  
       8B1u    0.129397    11Ag     0.146061     9B1u    0.186482  
      12Ag     0.212592     6B3u    0.230787     6B2u    0.230787  
       5B2g    0.264919     5B3g    0.264919    10B1u    0.306257  
       7B3u    0.329144     7B2u    0.329144    13Ag     0.370777  
      14Ag     0.456120     3B1g    0.456127     6B2g    0.489619  
       6B3g    0.489619    11B1u    0.491636     2Au     0.491642  
      12B1u    0.524712     4B1g    0.575507    15Ag     0.575522  
       8B3u    0.581732     8B2u    0.581732    16Ag     0.686518  
      13B1u    0.755050     7B2g    0.762365     7B3g    0.762365  
      17Ag     0.833692    14B1u    1.582416     9B3u    1.659661  
       9B2u    1.659661    10B3u    1.693692    10B2u    1.693692  
       8B2g    1.696953     8B3g    1.696953     3Au     1.702562  
      15B1u    1.702585    18Ag     1.708778    11B3u    1.709455  
      11B2u    1.709455     9B2g    1.709484     9B3g    1.709484  
       5B1g    1.710453    19Ag     1.710477    12B3u    1.728105  
      12B2u    1.728105    13B2u    1.736394    13B3u    1.736394  
       4Au     1.740794    16B1u    1.740837    17B1u    1.747384  
      20Ag     1.768418    10B3g    1.775424    10B2g    1.775424  
      14B3u    1.846250    14B2u    1.846250    18B1u    1.855236  
      21Ag     1.967563    19B1u    2.020535    22Ag     2.144674  
       6B1g    2.144686     5Au     2.154687    20B1u    2.154693  
      11B3g    2.176271    11B2g    2.176271    23Ag     2.198240  
       7B1g    2.198270    15B2u    2.218404    15B3u    2.218404  
      24Ag     2.259753    21B1u    2.267865    12B2g    2.312456  
      12B3g    2.312456    22B1u    2.414817    25Ag     2.438573  
      26Ag     2.756385    23B1u    4.842766    16B2u    4.860766  
      16B3u    4.860766     6Au     4.891023    24B1u    4.891233  
      17B2u    4.895456    17B3u    4.895456    13B3g    4.895480  
      13B2g    4.895480     8B1g    4.897839    27Ag     4.898035  
      18B3u    4.914873    18B2u    4.914873     7Au     4.922108  
      25B1u    4.922407    14B3g    4.934855    14B2g    4.934855  
      19B2u    4.988922    19B3u    4.988922    28Ag     5.047244  
      26B1u    5.182779    27B1u    5.659933    20B2u    5.659970  
      20B3u    5.659970     8Au     5.660234    29Ag     5.660241  
       9B1g    5.660542    15B2g    5.660926    15B3g    5.660926  
      21B3u    5.660939    21B2u    5.660939    16B3g    5.661220  
      16B2g    5.661220    28B1u    5.661446    30Ag     5.661446  
       9Au     5.661833    10B1g    5.661833    29B1u    5.663146  
      31Ag     5.663369    32Ag     5.685014    11B1g    5.685515  
      17B2g    5.686618    17B3g    5.686618    18B3g    5.686819  
      18B2g    5.686819    33Ag     5.687405    12B1g    5.687963  
      34Ag     5.699841    35Ag    33.301560    30B1u   33.437756  
      36Ag    33.821919    37Ag   110.504257    31B1u  110.545952  
      38Ag   110.679703  

    Beta Occupied:                                                        

       1B1u   -3.864435     1Ag    -3.864430     2Ag    -3.847539  
       2B1u   -2.460522     3Ag    -2.459765     1B3u   -2.457139  
       1B2u   -2.457139     1B2g   -2.457114     1B3g   -2.457114  
       3B1u   -2.441497     2B3u   -2.438323     2B2u   -2.438323  
       4Ag    -0.485055     2B3g   -0.463179     2B2g   -0.463179  
       4B1u   -0.449521     3B3u   -0.447284     3B2u   -0.447284  
       1B1g   -0.444235     5Ag    -0.444232     1Au    -0.443348  
       5B1u   -0.443344     2B1g   -0.423421     6Ag    -0.423420  
       3B3g   -0.411076     3B2g   -0.411076     7Ag    -0.399681  
       8Ag    -0.253626  

    Beta Virtual:                                                         

       6B1u   -0.060879     9Ag    -0.016483     7B1u    0.019644  
       4B3u    0.021823     4B2u    0.021823     4B2g    0.043776  
       4B3g    0.043776     5B2u    0.091595     5B3u    0.091595  
       8B1u    0.095861    10Ag     0.100215    11Ag     0.134619  
       9B1u    0.187989    12Ag     0.204214     6B3u    0.236292  
       6B2u    0.236292     5B2g    0.271762     5B3g    0.271762  
      10B1u    0.300299     7B3u    0.327434     7B2u    0.327434  
      13Ag     0.373270    14Ag     0.459109     3B1g    0.459116  
       6B3g    0.492767     6B2g    0.492767     2Au     0.501335  
      11B1u    0.501346    12B1u    0.527860     4B1g    0.576535  
      15Ag     0.576551     8B3u    0.585740     8B2u    0.585740  
      16Ag     0.689931    13B1u    0.757247     7B2g    0.763533  
       7B3g    0.763533    17Ag     0.833467    14B1u    1.583216  
       9B3u    1.660685     9B2u    1.660685    10B3u    1.693961  
      10B2u    1.693961     8B2g    1.697275     8B3g    1.697275  
       3Au     1.705018    15B1u    1.705059    18Ag     1.707224  
      11B3u    1.711746    11B2u    1.711746     9B2g    1.711778  
       9B3g    1.711778     5B1g    1.713334    19Ag     1.713377  
      12B3u    1.726613    12B2u    1.726613    13B2u    1.735881  
      13B3u    1.735881     4Au     1.740787    16B1u    1.740826  
      17B1u    1.744242    20Ag     1.768143    10B3g    1.776385  
      10B2g    1.776385    14B3u    1.846063    14B2u    1.846063  
      18B1u    1.857019    21Ag     1.973970    19B1u    2.019128  
      22Ag     2.141353     6B1g    2.141386    20B1u    2.148940  
       5Au     2.148973    11B3g    2.173357    11B2g    2.173357  
      23Ag     2.197688     7B1g    2.197713    15B2u    2.214732  
      15B3u    2.214732    24Ag     2.258064    21B1u    2.266981  
      12B2g    2.312157    12B3g    2.312157    22B1u    2.418854  
      25Ag     2.437103    26Ag     2.756861    23B1u    4.841678  
      16B2u    4.859880    16B3u    4.859880     6Au     4.890079  
      24B1u    4.890299    17B2u    4.893554    17B3u    4.893554  
      13B3g    4.893575    13B2g    4.893575     8B1g    4.896676  
      27Ag     4.896884    18B3u    4.915657    18B2u    4.915657  
       7Au     4.922177    25B1u    4.922475    14B3g    4.932872  
      14B2g    4.932872    19B2u    4.988294    19B3u    4.988294  
      28Ag     5.044619    26B1u    5.181103    20B2u    5.663371  
      20B3u    5.663371    27B1u    5.663722    29Ag     5.664033  
       8Au     5.664062     9B1g    5.664373    15B3g    5.664548  
      15B2g    5.664548    21B3u    5.665174    21B2u    5.665174  
      16B2g    5.665179    16B3g    5.665179    30Ag     5.665963  
      28B1u    5.665964    31Ag     5.666279    29B1u    5.666348  
      10B1g    5.666360     9Au     5.666360    32Ag     5.683359  
      11B1g    5.683852    17B2g    5.685092    17B3g    5.685092  
      18B3g    5.685288    18B2g    5.685288    33Ag     5.686642  
      12B1g    5.687197    34Ag     5.698406    35Ag    33.303836  
      30B1u   33.440773    36Ag    33.821736    37Ag   110.504629  
      31B1u  110.546382    38Ag   110.679877  

    Final Occupation by Irrep:
             Ag   B1g   B2g   B3g    Au   B1u   B2u   B3u 
    DOCC [     8,    2,    3,    3,    1,    5,    3,    3 ]
    SOCC [     0,    0,    0,    0,    0,    1,    0,    0 ]

  @DF-UKS Final Energy:  -440.54638748324169

   => Energetics <=

    Nuclear Repulsion Energy =            180.9306517875671716
    One-Electron Energy =               -1145.6924194883633845
    Two-Electron Energy =                 544.8288156360016501
    DFT Exchange-Correlation Energy =     -20.6112815884472269
    Empirical Dispersion Energy =          -0.0021538300000000
    VV10 Nonlocal Energy =                  0.0000000000000000
    Total Energy =                       -440.5463874832418014

  UHF NO Occupations:
  HONO-2 :    5B1u 1.9999457
  HONO-1 :    8 Ag 1.9653177
  HONO-0 :    6B1u 1.0000000
  LUNO+0 :    9 Ag 0.0346823
  LUNO+1 :    7B1u 0.0000543
  LUNO+2 :    4B2g 0.0000344
  LUNO+3 :    4B3g 0.0000344


Computation Completed


Properties will be evaluated at   0.000000,   0.000000,   0.000000 [a0]

Properties computed using the SCF density matrix

  Nuclear Dipole Moment: [e a0]
     X:     0.0000      Y:     0.0000      Z:    -0.0000

  Electronic Dipole Moment: [e a0]
     X:     0.0000      Y:     0.0000      Z:     0.0000

  Dipole Moment: [e a0]
     X:     0.0000      Y:     0.0000      Z:    -0.0000     Total:     0.0000

  Dipole Moment: [D]
     X:     0.0000      Y:     0.0000      Z:    -0.0000     Total:     0.0000


*** tstop() called on bp1-compute00108.data.bp.acrc.priv at Fri Oct 29 08:35:48 2021
Module time:
	user time   =     289.50 seconds =       4.83 minutes
	system time =      12.00 seconds =       0.20 minutes
	total time  =         16 seconds =       0.27 minutes
Total time:
	user time   =    3038.31 seconds =      50.64 minutes
	system time =     102.83 seconds =       1.71 minutes
	total time  =        348 seconds =       5.80 minutes

*** tstart() called on bp1-compute00108.data.bp.acrc.priv
*** at Fri Oct 29 08:35:48 2021


         ------------------------------------------------------------
                                   SCF GRAD                          
                          Rob Parrish, Justin Turney,                
                       Andy Simmonett, and Alex Sokolov              
         ------------------------------------------------------------

  ==> Geometry <==

    Molecular point group: d2h
    Full point group: D_inf_h

    Geometry (in Angstrom), charge = 0, multiplicity = 2:

       Center              X                  Y                   Z               Mass       
    ------------   -----------------  -----------------  -----------------  -----------------
         AG          -0.000000000000     0.000000000000     0.000000000000   106.905091600000
         AG           0.000000000000     0.000000000000     2.639588305858   106.905091600000
         AG           0.000000000000     0.000000000000    -2.639588305858   106.905091600000

  Nuclear repulsion =  180.930651787567172

  ==> Basis Set <==

  Basis Set: DEF2-TZVPPD
    Blend: DEF2-TZVPPD
    Number of shells: 48
    Number of basis function: 168
    Number of Cartesian functions: 213
    Spherical Harmonics?: true
    Max angular momentum: 4

  Core potential: DEF2-TZVPPD
    Number of shells: 12
    Number of ECP primitives: 42
    Number of ECP core electrons: 84
    Max angular momentum: 3

  ==> DFJKGrad: Density-Fitted SCF Gradients <==

    Gradient:                    1
    J tasked:                  Yes
    K tasked:                  Yes
    wK tasked:                 Yes
    Omega:               2.500E-01
    OpenMP threads:             24
    Integrals threads:          24
    Memory [MiB]:           102996
    Schwarz Cutoff:          0E+00
    Fitting Condition:       1E-10

   => Auxiliary Basis Set <=

  Basis Set: (DEF2-TZVPPD AUX)
    Blend: DEF2-TZVPP-JKFIT
    Number of shells: 147
    Number of basis function: 765
    Number of Cartesian functions: 1152
    Spherical Harmonics?: true
    Max angular momentum: 6

  ==> DFT Potential <==

   => Composite Functional: M11-D3BJ <= 

    M11 Meta-GGA XC Functional

    R. Peverati and D. G. Truhlar, J. Phys. Chem. Lett., 2, 2810, 2011


    Deriv               =              1
    GGA                 =           TRUE
    Meta                =           TRUE

    Exchange Hybrid     =           TRUE
    MP2 Hybrid          =          FALSE

   => Exchange Functionals <=

    1.0000   XC_HYB_MGGA_X_M11 [omega = 0.2500]

   => Exact (HF) Exchange <=

    0.5720            HF,LR [omega = 0.2500]
    0.4280               HF 

   => Correlation Functionals <=

    1.0000    XC_MGGA_C_M11

   => Molecular Quadrature <=

    Radial Scheme          =       TREUTLER
    Pruning Scheme         =           FLAT
    Nuclear Scheme         =       TREUTLER

    BS radius alpha        =              1
    Pruning alpha          =              1
    Radial Points          =             75
    Spherical Points       =            302
    Total Points           =          67368
    Total Blocks           =            621
    Max Points             =            248
    Max Functions          =            149


  -Total Gradient:
     Atom            X                  Y                   Z
    ------   -----------------  -----------------  -----------------
       1        0.000000000000    -0.000000000000     0.000000000000
       2        0.000000000000     0.000000000000    -0.116820266218
       3        0.000000000000    -0.000000000000     0.116820266218


*** tstop() called on bp1-compute00108.data.bp.acrc.priv at Fri Oct 29 08:35:56 2021
Module time:
	user time   =      93.57 seconds =       1.56 minutes
	system time =       4.72 seconds =       0.08 minutes
	total time  =          8 seconds =       0.13 minutes
Total time:
	user time   =    3133.33 seconds =      52.22 minutes
	system time =     107.65 seconds =       1.79 minutes
	total time  =        356 seconds =       5.93 minutes


  ==> Adding ECP gradient terms (computed numerically) <==

  -ECP Gradient:
     Atom            X                  Y                   Z
    ------   -----------------  -----------------  -----------------
       1        0.000000000000    -0.000000000000     0.000000000000
       2        0.000000000000     0.000000000000     0.116680542964
       3        0.000000000000     0.000000000000    -0.116680542964


  -Total Gradient:
     Atom            X                  Y                   Z
    ------   -----------------  -----------------  -----------------
       1        0.000000000000    -0.000000000000     0.000000000000
       2        0.000000000000     0.000000000000    -0.000139723254
       3        0.000000000000    -0.000000000000     0.000139723254


			-----------------------------------------
			 OPTKING 2.0: for geometry optimizations 
			  - R.A. King,  Bethel University        
			-----------------------------------------
	At level 1: Red. Int., RFO, no backsteps, dynamic trust

	Previous internal coordinate definitions found.
	---Fragment 1 Geometry and Gradient---
	 AG         -0.0000000000        0.0000000000        0.0000000000
	 AG          0.0000000000        0.0000000000        4.9880989820
	 AG          0.0000000000        0.0000000000       -4.9880989820
	             0.0000000000       -0.0000000000        0.0000000000
	             0.0000000000        0.0000000000       -0.0001397233
	             0.0000000000       -0.0000000000        0.0001397233

	---Fragment 1 Intrafragment Coordinates---
	 - Coordinate -           - BOHR/RAD -       - ANG/DEG -
	 R(1,2)           =         4.988099	       2.639588
	 R(1,3)           =         4.988099	       2.639588
	 L(2,1,3)         =         3.141593	     180.000000
	 l(2,1,3)         =         3.141593	     180.000000

	Current energy   :      -440.5463874832

	Energy change for the previous step:
		Projected    :         0.0002968191
		Actual       :        -0.0000213455

	Performing BFGS update.
	Previous computed or guess Hessian on step 1.
	Steps to be used in Hessian update: 2 1
	Taking RFO optimization step.
	Going to follow RFO solution 1.
	Using RFO vector 1.
	Norm of target step-size    0.00352
	Projected energy change by RFO approximation:        -0.0000050832

	Back-transformation to cartesian coordinates...
	Successfully converged to displaced geometry.

	--- Internal Coordinate Step in ANG or DEG, aJ/ANG or AJ/DEG ---
	 ---------------------------------------------------------------------------
	   Coordinate                Previous        Force       Change         New 
	   ----------                --------       ------       ------       ------
	    1 R(1,2)          =      2.639588     0.001151     0.001318     2.640906
	    2 R(1,3)          =      2.639588     0.001151     0.001318     2.640906
	    3 L(2,1,3)        =    180.000000    -0.000000     0.000000   180.000000
	    4 l(2,1,3)        =    180.000000     0.000000     0.000000   180.000000
	 ---------------------------------------------------------------------------
	Successfully symmetrized geometry.

  ==> Convergence Check <==

  Measures of convergence in internal coordinates in au.
  Criteria marked as inactive (o), active & met (*), and active & unmet ( ).
  ---------------------------------------------------------------------------------------------
   Step     Total Energy     Delta E     MAX Force     RMS Force      MAX Disp      RMS Disp   
  ---------------------------------------------------------------------------------------------
    Convergence Criteria    1.00e-06 *    3.00e-04 *             o    1.20e-03 *             o
  ---------------------------------------------------------------------------------------------
      3    -440.54638748   -2.13e-05      1.40e-04 *    9.88e-05 o    2.49e-03      1.76e-03 o  ~
  ---------------------------------------------------------------------------------------------

	Writing optimization data to binary file.
	Structure for next step:
	Cartesian Geometry (in Angstrom)
	   AG     0.0000000000   0.0000000000   0.0000000000
	   AG     0.0000000000  -0.0000000000   2.6409064065
	   AG     0.0000000000  -0.0000000000  -2.6409064065
			--------------------------
			 OPTKING Finished Execution 
			--------------------------

    Structure for next step:
    Molecular point group: d2h
[...]
      40B2     5.181963    41B2     5.659942    48A1     5.659975  
      28B1     5.659975    22A2     5.660240    49A1     5.660249  
      29B1     5.660548    42B2     5.660929    23A2     5.660929  
      50A1     5.660941    30B1     5.660941    43B2     5.661230  
      24A2     5.661230    44B2     5.661444    51A1     5.661444  
      25A2     5.661830    31B1     5.661830    45B2     5.663114  
      52A1     5.663370    53A1     5.685031    32B1     5.685529  
      46B2     5.686625    26A2     5.686625    47B2     5.686822  
      27A2     5.686822    54A1     5.687404    33B1     5.687961  
      55A1     5.699749    56A1    33.301284    48B2    33.437216  
      57A1    33.821096    58A1   110.504181    49B2   110.545784  
      59A1   110.679438  

    Beta Occupied:                                                        

       1B2    -3.864427     1A1    -3.864421     2A1    -3.847523  
       2B2    -2.460499     3A1    -2.459749     4A1    -2.457134  
       1B1    -2.457134     3B2    -2.457109     1A2    -2.457109  
       4B2    -2.441478     5A1    -2.438312     2B1    -2.438312  
       6A1    -0.484930     5B2    -0.463100     2A2    -0.463100  
       6B2    -0.449501     7A1    -0.447266     3B1    -0.447266  
       4B1    -0.444226     8A1    -0.444223     3A2    -0.443344  
       7B2    -0.443341     5B1    -0.423421     9A1    -0.423420  
       4A2    -0.411121     8B2    -0.411121    10A1    -0.399742  
      11A1    -0.253573  

    Beta Virtual:                                                         

       9B2    -0.060877    12A1    -0.016501    10B2     0.019621  
      13A1     0.021831     6B1     0.021831    11B2     0.043762  
       5A2     0.043762    14A1     0.091578     7B1     0.091578  
      12B2     0.095927    15A1     0.100160    16A1     0.134649  
      13B2     0.187894    17A1     0.204200     8B1     0.236330  
      18A1     0.236330     6A2     0.271753    14B2     0.271753  
      15B2     0.300271    19A1     0.327361     9B1     0.327361  
      20A1     0.373023    21A1     0.459131    10B1     0.459138  
       7A2     0.492613    16B2     0.492613     8A2     0.501338  
      17B2     0.501349    18B2     0.527584    11B1     0.576447  
      22A1     0.576463    23A1     0.585592    12B1     0.585592  
      24A1     0.689786    19B2     0.757025     9A2     0.763369  
      20B2     0.763369    25A1     0.833511    21B2     1.584111  
      26A1     1.660805    13B1     1.660805    27A1     1.694000  
      14B1     1.694000    22B2     1.697292    10A2     1.697292  
      11A2     1.705080    23B2     1.705121    28A1     1.707343  
      15B1     1.711742    29A1     1.711742    12A2     1.711774  
      24B2     1.711774    16B1     1.713322    30A1     1.713365  
      17B1     1.726572    31A1     1.726572    18B1     1.735873  
      32A1     1.735873    13A2     1.740725    25B2     1.740763  
      26B2     1.744120    33A1     1.768096    27B2     1.776161  
      14A2     1.776161    34A1     1.845797    19B1     1.845797  
      28B2     1.856552    35A1     1.973684    29B2     2.018808  
      36A1     2.141346    20B1     2.141378    30B2     2.148934  
      15A2     2.148966    16A2     2.173512    31B2     2.173512  
      37A1     2.197651    21B1     2.197675    38A1     2.214679  
      22B1     2.214679    39A1     2.258351    32B2     2.266539  
      17A2     2.311988    33B2     2.311988    34B2     2.418554  
      40A1     2.436121    41A1     2.756353    35B2     4.841810  
      23B1     4.860139    42A1     4.860139    18A2     4.890128  
      36B2     4.890348    24B1     4.893555    43A1     4.893555  
      19A2     4.893576    37B2     4.893576    25B1     4.896668  
      44A1     4.896877    26B1     4.915661    45A1     4.915661  
      20A2     4.922132    38B2     4.922430    21A2     4.932776  
      39B2     4.932776    46A1     4.987940    27B1     4.987940  
      47A1     5.044330    40B2     5.180293    48A1     5.663377  
      28B1     5.663377    41B2     5.663732    49A1     5.664041  
      22A2     5.664069    29B1     5.664379    42B2     5.664561  
      23A2     5.664561    50A1     5.665177    30B1     5.665177  
      43B2     5.665181    24A2     5.665181    51A1     5.665961  
      44B2     5.665962    52A1     5.666281    45B2     5.666318  
      31B1     5.666357    25A2     5.666357    53A1     5.683373  
      32B1     5.683863    46B2     5.685096    26A2     5.685096  
      47B2     5.685290    27A2     5.685290    54A1     5.686638  
      33B1     5.687192    55A1     5.698313    56A1    33.303558  
      48B2    33.440233    57A1    33.820914    58A1   110.504553  
      49B2   110.546213    59A1   110.679611  

    Final Occupation by Irrep:
             A1    A2    B1    B2 
    DOCC [    11,    4,    5,    8 ]
    SOCC [     0,    0,    0,    1 ]

  @DF-UKS Final Energy:  -440.54638663026503

   => Energetics <=

    Nuclear Repulsion Energy =            180.8403459058936846
    One-Electron Energy =               -1145.5126895303683341
    Two-Electron Energy =                 544.7392534829115220
    DFT Exchange-Correlation Energy =     -20.6111434087018850
    Empirical Dispersion Energy =          -0.0021530800000000
    VV10 Nonlocal Energy =                  0.0000000000000000
    Total Energy =                       -440.5463866302650899

  UHF NO Occupations:
  HONO-2 :    8 B2 1.9999457
  HONO-1 :   11 A1 1.9652144
  HONO-0 :    9 B2 1.0000000
  LUNO+0 :   12 A1 0.0347856
  LUNO+1 :   10 B2 0.0000543
  LUNO+2 :   11 B2 0.0000343
  LUNO+3 :    5 A2 0.0000343


Computation Completed


Properties will be evaluated at   0.000000,   0.000000,   0.000000 [a0]

Properties computed using the SCF density matrix

  Nuclear Dipole Moment: [e a0]
     X:     0.0000      Y:     0.0000      Z:     0.0000

  Electronic Dipole Moment: [e a0]
     X:     0.0001      Y:     0.0000      Z:     0.0000

  Dipole Moment: [e a0]
     X:     0.0001      Y:     0.0000      Z:     0.0000     Total:     0.0001

  Dipole Moment: [D]
     X:     0.0002      Y:     0.0000      Z:     0.0000     Total:     0.0002


*** tstop() called on bp1-compute00108.data.bp.acrc.priv at Fri Oct 29 08:58:29 2021
Module time:
	user time   =     410.22 seconds =       6.84 minutes
	system time =      25.66 seconds =       0.43 minutes
	total time  =         23 seconds =       0.38 minutes
Total time:
	user time   =   14364.62 seconds =     239.41 minutes
	system time =     503.50 seconds =       8.39 minutes
	total time  =       1709 seconds =      28.48 minutes

*** tstart() called on bp1-compute00108.data.bp.acrc.priv
*** at Fri Oct 29 08:58:29 2021


         ------------------------------------------------------------
                                   SCF GRAD                          
                          Rob Parrish, Justin Turney,                
                       Andy Simmonett, and Alex Sokolov              
         ------------------------------------------------------------

  ==> Geometry <==

    Molecular point group: c2v
    Full point group: C2v

    Geometry (in Angstrom), charge = 0, multiplicity = 2:

       Center              X                  Y                   Z               Mass       
    ------------   -----------------  -----------------  -----------------  -----------------
         AG          -0.000208942272     0.000000000000     0.000000000000   106.905091600000
         AG           0.000104471136     0.000000000000     2.640906416910   106.905091600000
         AG           0.000104471136     0.000000000000    -2.640906416910   106.905091600000

  Nuclear repulsion =  180.840345905893685

  ==> Basis Set <==

  Basis Set: DEF2-TZVPPD
    Blend: DEF2-TZVPPD
    Number of shells: 48
    Number of basis function: 168
    Number of Cartesian functions: 213
    Spherical Harmonics?: true
    Max angular momentum: 4

  Core potential: DEF2-TZVPPD
    Number of shells: 12
    Number of ECP primitives: 42
    Number of ECP core electrons: 84
    Max angular momentum: 3

  ==> DFJKGrad: Density-Fitted SCF Gradients <==

    Gradient:                    1
    J tasked:                  Yes
    K tasked:                  Yes
    wK tasked:                 Yes
    Omega:               2.500E-01
    OpenMP threads:             24
    Integrals threads:          24
    Memory [MiB]:           102996
    Schwarz Cutoff:          0E+00
    Fitting Condition:       1E-10

   => Auxiliary Basis Set <=

  Basis Set: (DEF2-TZVPPD AUX)
    Blend: DEF2-TZVPP-JKFIT
    Number of shells: 147
    Number of basis function: 765
    Number of Cartesian functions: 1152
    Spherical Harmonics?: true
    Max angular momentum: 6

  ==> DFT Potential <==

   => Composite Functional: M11-D3BJ <= 

    M11 Meta-GGA XC Functional

    R. Peverati and D. G. Truhlar, J. Phys. Chem. Lett., 2, 2810, 2011


    Deriv               =              1
    GGA                 =           TRUE
    Meta                =           TRUE

    Exchange Hybrid     =           TRUE
    MP2 Hybrid          =          FALSE

   => Exchange Functionals <=

    1.0000   XC_HYB_MGGA_X_M11 [omega = 0.2500]

   => Exact (HF) Exchange <=

    0.5720            HF,LR [omega = 0.2500]
    0.4280               HF 

   => Correlation Functionals <=

    1.0000    XC_MGGA_C_M11

   => Molecular Quadrature <=

    Radial Scheme          =       TREUTLER
    Pruning Scheme         =           FLAT
    Nuclear Scheme         =       TREUTLER

    BS radius alpha        =              1
    Pruning alpha          =              1
    Radial Points          =             75
    Spherical Points       =            302
    Total Points           =          67368
    Total Blocks           =            620
    Max Points             =            256
    Max Functions          =            149


  -Total Gradient:
     Atom            X                  Y                   Z
    ------   -----------------  -----------------  -----------------
       1        0.000028477938     0.000000000000     0.000000000000
       2       -0.000014269437     0.000000000000    -0.116361211715
       3       -0.000014269437     0.000000000000     0.116361211715


*** tstop() called on bp1-compute00108.data.bp.acrc.priv at Fri Oct 29 08:58:37 2021
Module time:
	user time   =      93.62 seconds =       1.56 minutes
	system time =       5.17 seconds =       0.09 minutes
	total time  =          8 seconds =       0.13 minutes
Total time:
	user time   =   14460.71 seconds =     241.01 minutes
	system time =     508.87 seconds =       8.48 minutes
	total time  =       1717 seconds =      28.62 minutes


  ==> Adding ECP gradient terms (computed numerically) <==

  -ECP Gradient:
     Atom            X                  Y                   Z
    ------   -----------------  -----------------  -----------------
       1       -0.000027988219     0.000000000000     0.000000000000
       2        0.000013994228     0.000000000000     0.116345645817
       3        0.000013994228     0.000000000000    -0.116345645817


  -Total Gradient:
     Atom            X                  Y                   Z
    ------   -----------------  -----------------  -----------------
       1        0.000000489719     0.000000000000     0.000000000000
       2       -0.000000275209     0.000000000000    -0.000015565898
       3       -0.000000275209     0.000000000000     0.000015565898


         ----------------------------------------------------------
                                   FINDIF
                     R. A. King and Jonathon Misiewicz
         ---------------------------------------------------------

  Computing second-derivative from gradients using projected, 
  symmetry-adapted, cartesian coordinates.

  6 gradients passed in, including the reference geometry.
  Generating complete list of displacements from unique ones.

    Operation 3 takes plus displacements of irrep B1u to minus ones.
    Operation 2 takes plus displacements of irrep B2u to minus ones.
    Operation 2 takes plus displacements of irrep B3u to minus ones.

-------------------------------------------------------------


  ==> Harmonic Vibrational Analysis <==

  non-mass-weighted Hessian:       Symmetric? True   Hermitian? True   Lin Dep Dim?  5 (0)
  projection of translations (True) and rotations (True) removed 5 degrees of freedom (5)
  total projector:                 Symmetric? True   Hermitian? True   Lin Dep Dim?  5 (5)
  mass-weighted Hessian:           Symmetric? True   Hermitian? True   Lin Dep Dim?  5 (0)
  pre-proj  low-frequency mode:    0.0000i [cm^-1]
  pre-proj  low-frequency mode:    0.0000i [cm^-1]
  pre-proj  low-frequency mode:    0.0000i [cm^-1]
  pre-proj  low-frequency mode:    0.0000i [cm^-1]
  pre-proj  low-frequency mode:    0.0000i [cm^-1]
  pre-proj  low-frequency mode:    0.0000  [cm^-1]
  pre-proj  low-frequency mode:    0.0000  [cm^-1]
  pre-proj  all modes:['17.8672i' '17.8635i' '0.0000i' '0.0000i' '0.0000i' '0.0000' '0.0000'
 '110.7994' '145.9454']
  projected mass-weighted Hessian: Symmetric? True   Hermitian? True   Lin Dep Dim?  5 (5)
  post-proj low-frequency mode:   17.8672i [cm^-1] (V)
  post-proj low-frequency mode:   17.8635i [cm^-1] (V)
  post-proj low-frequency mode:    0.0000i [cm^-1] (TR)
  post-proj low-frequency mode:    0.0000i [cm^-1] (TR)
  post-proj low-frequency mode:    0.0000i [cm^-1] (TR)
  post-proj low-frequency mode:    0.0000  [cm^-1] (TR)
  post-proj low-frequency mode:    0.0000  [cm^-1] (TR)
  post-proj  all modes:['17.8672i' '17.8635i' '0.0000i' '0.0000i' '0.0000i' '0.0000' '0.0000'
 '110.7994' '145.9454']

  Vibration                       1                   2                   8           
  Freq [cm^-1]                 17.8672i            17.8635i            110.7994       
  Irrep                          B3u                 B2u                  Ag          
  Reduced mass [u]             106.9051            106.9051            106.9051       
  Force const [mDyne/A]        -0.0201             -0.0201              0.7733        
  Turning point v=0 [a0]        0.0000              0.0000              0.1008        
  RMS dev v=0 [a0 u^1/2]        0.0000              0.0000              0.7371        
  Char temp [K]                 0.0000              0.0000             159.4157       
  ----------------------------------------------------------------------------------
      1   AG               0.82  0.00  0.00   -0.00  0.82  0.00   -0.00  0.00  0.00   
      2   AG              -0.41 -0.00  0.00   -0.00 -0.41  0.00   -0.00  0.00  0.71   
      3   AG              -0.41  0.00 -0.00    0.00 -0.41  0.00   -0.00 -0.00 -0.71   

  Vibration                       9           
  Freq [cm^-1]                 145.9454       
  Irrep                          B1u          
  Reduced mass [u]             106.9051       
  Force const [mDyne/A]         1.3416        
  Turning point v=0 [a0]        0.0878        
  RMS dev v=0 [a0 u^1/2]        0.6422        
  Char temp [K]                209.9829       
  ----------------------------------------------------------------------------------
      1   AG              -0.00  0.00  0.82   
      2   AG              -0.00  0.00 -0.41   
      3   AG               0.00 -0.00 -0.41   

  ==> Thermochemistry Components <==

  Entropy, S
    Electronic S            1.377 [cal/(mol K)]        5.763 [J/(mol K)]       0.00219507 [mEh/K] (multiplicity = 2)
    Translational S        43.192 [cal/(mol K)]      180.714 [J/(mol K)]       0.06883047 [mEh/K] (mol. weight = 320.7153 [u], P = 101325.00 [Pa])
    Rotational S           20.117 [cal/(mol K)]       84.169 [J/(mol K)]       0.03205821 [mEh/K] (symmetry no. = 2)
    Vibrational S           5.979 [cal/(mol K)]       25.017 [J/(mol K)]       0.00952860 [mEh/K]
  Total S                  70.665 [cal/(mol K)]      295.664 [J/(mol K)]       0.11261234 [mEh/K]
  Correction S              0.000 [cal/(mol K)]        0.000 [J/(mol K)]       0.00000000 [mEh/K]

  Constant volume heat capacity, Cv
    Electronic Cv           0.000 [cal/(mol K)]        0.000 [J/(mol K)]       0.00000000 [mEh/K]
    Translational Cv        2.981 [cal/(mol K)]       12.472 [J/(mol K)]       0.00475022 [mEh/K]
    Rotational Cv           1.987 [cal/(mol K)]        8.314 [J/(mol K)]       0.00316681 [mEh/K]
    Vibrational Cv          3.848 [cal/(mol K)]       16.098 [J/(mol K)]       0.00613153 [mEh/K]
  Total Cv                  8.816 [cal/(mol K)]       36.884 [J/(mol K)]       0.01404855 [mEh/K]
  Correction Cv             0.000 [cal/(mol K)]        0.000 [J/(mol K)]       0.00000000 [mEh/K]

  Constant pressure heat capacity, Cp
    Electronic Cp           0.000 [cal/(mol K)]        0.000 [J/(mol K)]       0.00000000 [mEh/K]
    Translational Cp        4.968 [cal/(mol K)]       20.786 [J/(mol K)]       0.00791703 [mEh/K]
    Rotational Cp           1.987 [cal/(mol K)]        8.314 [J/(mol K)]       0.00316681 [mEh/K]
    Vibrational Cp          3.848 [cal/(mol K)]       16.098 [J/(mol K)]       0.00613153 [mEh/K]
  Total Cp                 10.803 [cal/(mol K)]       45.199 [J/(mol K)]       0.01721536 [mEh/K]
  Correction Cp             0.000 [cal/(mol K)]        0.000 [J/(mol K)]       0.00000000 [mEh/K]

  ==> Thermochemistry Energy Analysis <==

  Raw electronic energy, E0
  Total E0, Electronic energy at well bottom at 0 [K]                 -440.54638662 [Eh]

  Zero-point energy, ZPE_vib = Sum_i nu_i / 2
    Electronic ZPE          0.000 [kcal/mol]        0.000 [kJ/mol]       0.00000000 [Eh]
    Translational ZPE       0.000 [kcal/mol]        0.000 [kJ/mol]       0.00000000 [Eh]
    Rotational ZPE          0.000 [kcal/mol]        0.000 [kJ/mol]       0.00000000 [Eh]
    Vibrational ZPE         0.367 [kcal/mol]        1.536 [kJ/mol]       0.00058491 [Eh]         128.372 [cm^-1]
  Correction ZPE            0.367 [kcal/mol]        1.536 [kJ/mol]       0.00058491 [Eh]         128.372 [cm^-1]
  Total ZPE, Electronic energy at 0 [K]                               -440.54580171 [Eh]

  Thermal Energy, E (includes ZPE)
    Electronic E            0.000 [kcal/mol]        0.000 [kJ/mol]       0.00000000 [Eh]
    Translational E         0.889 [kcal/mol]        3.718 [kJ/mol]       0.00141628 [Eh]
    Rotational E            0.592 [kcal/mol]        2.479 [kJ/mol]       0.00094418 [Eh]
    Vibrational E           1.223 [kcal/mol]        5.118 [kJ/mol]       0.00194947 [Eh]
  Correction E              2.705 [kcal/mol]       11.316 [kJ/mol]       0.00430993 [Eh]
  Total E, Electronic energy at  298.15 [K]                           -440.54207669 [Eh]

  Enthalpy, H_trans = E_trans + k_B * T
    Electronic H            0.000 [kcal/mol]        0.000 [kJ/mol]       0.00000000 [Eh]
    Translational H         1.481 [kcal/mol]        6.197 [kJ/mol]       0.00236046 [Eh]
    Rotational H            0.592 [kcal/mol]        2.479 [kJ/mol]       0.00094418 [Eh]
    Vibrational H           1.223 [kcal/mol]        5.118 [kJ/mol]       0.00194947 [Eh]
  Correction H              3.297 [kcal/mol]       13.795 [kJ/mol]       0.00525411 [Eh]
  Total H, Enthalpy at  298.15 [K]                                    -440.54113251 [Eh]

  Gibbs free energy, G = H - T * S
    Electronic G           -0.411 [kcal/mol]       -1.718 [kJ/mol]      -0.00065446 [Eh]
    Translational G       -11.396 [kcal/mol]      -47.683 [kJ/mol]      -0.01816134 [Eh]
    Rotational G           -5.405 [kcal/mol]      -22.616 [kJ/mol]      -0.00861397 [Eh]
    Vibrational G          -0.559 [kcal/mol]       -2.341 [kJ/mol]      -0.00089149 [Eh]
  Correction G            -17.772 [kcal/mol]      -74.357 [kJ/mol]      -0.02832126 [Eh]
  Total G, Free enthalpy at  298.15 [K]                               -440.57470788 [Eh]

    Psi4 stopped on: Friday, 29 October 2021 09:00AM
    Psi4 wall time for execution: 0:30:58.62

*** Psi4 exiting successfully. Buy a developer a beer!
