Optimizer: Optimization complete!
 3 displacements needed.
 1 2 3
Warning: used thermodynamics relations inappropriate for low-frequency modes: ['568.3149']
At level 1: Red. Int., RFO, no backsteps, dynamic trust
At level 1: Red. Int., RFO, no backsteps, dynamic trust
At level 1: Red. Int., RFO, no backsteps, dynamic trust
At level 1: Red. Int., RFO, no backsteps, dynamic trust
At level 1: Red. Int., RFO, no backsteps, dynamic trust
 M. James,
    H. R. McAlexander, A. Kumar, M. Saitow, X. Wang, B. P. Pritchard,
    P. Verma, H. F. Schaefer III, K. Patkowski, R. A. King, E. F. Valeev,
    F. A. Evangelista, J. M. Turney, T. D. Crawford, and C. D. Sherrill,
    J. Chem. Theory Comput. 13(7) pp 3185--3197 (2017).
    (doi: 10.1021/acs.jctc.7b00174)


                         Additional Contributions by
    P. Kraus, H. Kruse, M. H. Lechner, M. C. Schieber, R. A. Shaw,
    A. Alenaizan, R. Galvelis, Z. L. Glick, S. Lehtola, and J. P. Misiewicz

    -----------------------------------------------------------------------


    Psi4 started on: Friday, 29 October 2021 08:31AM

    Process ID: 162482
    Host:       bp1-compute00133.data.bp.acrc.priv
    PSIDATADIR: /work/zw18965/.conda/envs/p4env/share/psi4
    Memory:     500.0 MiB
    Threads:    24
    
  ==> Input File <==

--------------------------------------------------------------------------
memory 144 GB

molecule {
0 1
Cu       0.000000    0.000000    0.412716 
F        0.000000    0.000000   -1.329863 
 }

set dynamic_level 1
set basis Def2-TZVPPD

optimize("M11-D3BJ")
frequencies("M11-D3BJ")
--------------------------------------------------------------------------

  Memory set to 134.110 GiB by Python driver.
gradient() will perform analytic gradient computation.

*** tstart() called on bp1-compute00133.data.bp.acrc.priv
*** at Fri Oct 29 08:31:53 2021

   => Loading Basis Set <=

    Name: DEF2-TZVPPD
    Role: ORBITAL
    Keyword: BASIS
    atoms 1 entry CU         line  1290 file /work/zw18965/.conda/envs/p4env/share/psi4/basis/def2-tzvppd.gbs 
    atoms 2 entry F          line   257 file /work/zw18965/.conda/envs/p4env/share/psi4/basis/def2-tzvppd.gbs 


         ---------------------------------------------------------
                                   SCF
               by Justin Turney, Rob Parrish, Andy Simmonett
                          and Daniel G. A. Smith
                              RKS Reference
                       24 Threads, 137329 MiB Core
         ---------------------------------------------------------

  ==> Geometry <==

    Molecular point group: c2v
    Full point group: C_inf_v

    Geometry (in Angstrom), charge = 0, multiplicity = 1:

       Center              X                  Y                   Z               Mass       
    ------------   -----------------  -----------------  -----------------  -----------------
         CU           0.000000000000     0.000000000000     0.404089176206    62.929597720000
         F            0.000000000000     0.000000000000    -1.338489823794    18.998403162730

  Running in c2v symmetry.

  Rotational constants: A = ************  B =      0.38043  C =      0.38043 [cm^-1]
  Rotational constants: A = ************  B =  11404.92806  C =  11404.92806 [MHz]
  Nuclear repulsion =   79.259105030457718

  Charge       = 0
  Multiplicity = 1
  Electrons    = 38
  Nalpha       = 19
  Nbeta        = 19

  ==> Algorithm <==

  SCF Algorithm Type is DF.
  DIIS enabled.
  MOM disabled.
  Fractional occupation disabled.
  Guess Type is SAD.
  Energy threshold   = 1.00e-08
  Density threshold  = 1.00e-08
  Integral threshold = 0.00e+00

  ==> Primary Basis <==

  Basis Set: DEF2-TZVPPD
    Blend: DEF2-TZVPPD
    Number of shells: 33
    Number of basis function: 107
    Number of Cartesian functions: 129
    Spherical Harmonics?: true
    Max angular momentum: 4

  ==> DFT Potential <==

   => Composite Functional: M11-D3BJ <= 

    M11 Meta-GGA XC Functional

    R. Peverati and D. G. Truhlar, J. Phys. Chem. Lett., 2, 2810, 2011


    Deriv               =              1
    GGA                 =           TRUE
    Meta                =           TRUE

    Exchange Hybrid     =           TRUE
    MP2 Hybrid          =          FALSE

   => Exchange Functionals <=

    1.0000   XC_HYB_MGGA_X_M11 [omega = 0.2500]

   => Exact (HF) Exchange <=

    0.5720            HF,LR [omega = 0.2500]
    0.4280               HF 

   => Correlation Functionals <=

    1.0000    XC_MGGA_C_M11

   => Molecular Quadrature <=

    Radial Scheme          =       TREUTLER
    Pruning Scheme         =           FLAT
    Nuclear Scheme         =       TREUTLER

    BS radius alpha        =              1
    Pruning alpha          =              1
    Radial Points          =             75
    Spherical Points       =            302
    Total Points           =          45300
    Total Blocks           =            428
    Max Points             =            256
    Max Functions          =            106

   => M11-D3(BJ): Empirical Dispersion <=

    Grimme's -D3 (BJ-damping) Dispersion Correction
    Grimme S.; Ehrlich S.; Goerigk L. (2011), J. Comput. Chem., 32: 1456
    Parametrisation from:    L. Goerigk, J. Phys. Chem. Lett. 6, 3891-3896, 2015

        s6 =       1.000000
        s8 =       2.811200
        a1 =       0.000000
        a2 =      10.138900

   => Loading Basis Set <=

    Name: (DEF2-TZVPPD AUX)
    Role: JKFIT
    Keyword: DF_BASIS_SCF
    atoms 1 entry CU         line  2361 file /work/zw18965/.conda/envs/p4env/share/psi4/basis/def2-tzvpp-jkfit.gbs 
    atoms 2 entry F          line   383 file /work/zw18965/.conda/envs/p4env/share/psi4/basis/def2-tzvpp-jkfit.gbs 

  ==> Pre-Iterations <==

   -------------------------------------------------------
    Irrep   Nso     Nmo     Nalpha   Nbeta   Ndocc  Nsocc
   -------------------------------------------------------
     A1        45      45       0       0       0       0
     A2        12      12       0       0       0       0
     B1        25      25       0       0       0       0
     B2        25      25       0       0       0       0
   -------------------------------------------------------
    Total     107     107      19      19      19       0
   -------------------------------------------------------

  ==> Integral Setup <==

  ==> DiskDFJK: Density-Fitted J/K Matrices <==

    J tasked:                  Yes
    K tasked:                  Yes
    wK tasked:                 Yes
    Omega:               2.500E-01
    OpenMP threads:             24
    Integrals threads:          24
    Memory [MiB]:           102707
    Algorithm:                Core
    Integral Cache:           NONE
    Schwarz Cutoff:          1E-12
    Fitting Condition:       1E-10

   => Auxiliary Basis Set <=

  Basis Set: (DEF2-TZVPPD AUX)
    Blend: DEF2-TZVPP-JKFIT
    Number of shells: 83
    Number of basis function: 341
    Number of Cartesian functions: 470
    Spherical Harmonics?: true
    Max angular momentum: 6

  Cached 100.0% of DFT collocation blocks in 0.283 [GiB].

  Minimum eigenvalue in the overlap matrix is 2.2043391512E-03.
  Using Symmetric Orthogonalization.

  SCF Guess: Superposition of Atomic Densities via on-the-fly atomic UHF.

  ==> Iterations <==

                           Total Energy        Delta E     RMS |[F,P]|

   @DF-RKS iter SAD: -1737.03626430821646   -1.73704e+03   0.00000e+00 
    Occupation by irrep:
             A1    A2    B1    B2 
    DOCC [    11,    0,    4,    4 ]

   @DF-RKS iter   1: -1737.56298623035968   -5.26722e-01   6.96718e-02 DIIS
    Occupation by irrep:
             A1    A2    B1    B2 
    DOCC [    10,    1,    4,    4 ]

   @DF-RKS iter   2: -1699.13980789344851    3.84232e+01   1.45181e-01 DIIS
   @DF-RKS iter   3: -1738.66414390716295   -3.95243e+01   4.74776e-02 DIIS
   @DF-RKS iter   4: -1739.75500298035331   -1.09086e+00   2.39489e-02 DIIS
   @DF-RKS iter   5: -1740.16575990205934   -4.10757e-01   9.67388e-03 DIIS
   @DF-RKS iter   6: -1740.21486332569748   -4.91034e-02   3.11908e-03 DIIS
   @DF-RKS iter   7: -1740.22032717346519   -5.46385e-03   4.07180e-04 DIIS
   @DF-RKS iter   8: -1740.22059059765002   -2.63424e-04   1.92762e-04 DIIS
   @DF-RKS iter   9: -1740.22062349237740   -3.28947e-05   3.09709e-05 DIIS
   @DF-RKS iter  10: -1740.22062727547836   -3.78310e-06   1.40882e-05 DIIS
   @DF-RKS iter  11: -1740.22062754288845   -2.67410e-07   3.41461e-06 DIIS
   @DF-RKS iter  12: -1740.22062756823129   -2.53428e-08   4.59484e-07 DIIS
   @DF-RKS iter  13: -1740.22062757080857   -2.57728e-09   3.08454e-07 DIIS
   @DF-RKS iter  14: -1740.22062757169192   -8.83347e-10   9.91619e-08 DIIS
   @DF-RKS iter  15: -1740.22062757186336   -1.71440e-10   2.40085e-08 DIIS
   @DF-RKS iter  16: -1740.22062757186995   -6.59384e-12   3.10323e-09 DIIS
  Energy and wave function converged.


  ==> Post-Iterations <==

    Orbital Energies [Eh]
    ---------------------

    Doubly Occupied:                                                      

       1A1  -323.954446     2A1   -39.081090     1B2   -34.346340  
       1B1   -34.346340     3A1   -34.344890     4A1   -24.896953  
       5A1    -4.441200     2B2    -2.962164     2B1    -2.962164  
       6A1    -2.962132     7A1    -1.161521     8A1    -0.502785  
       3B2    -0.476969     3B1    -0.476969     1A2    -0.438513  
       9A1    -0.438493     4B2    -0.396503     4B1    -0.396503  
      10A1    -0.381758  

    Virtual:                                                              

      11A1    -0.056740     5B2     0.007464     5B1     0.007464  
      12A1     0.036836    13A1     0.088537    14A1     0.150903  
       6B2     0.164540     6B1     0.164540     7B1     0.175559  
       7B2     0.175559     2A2     0.205039    15A1     0.205040  
      16A1     0.218268     8B1     0.270923     8B2     0.270923  
      17A1     0.327352    18A1     0.429807    19A1     0.640772  
       3A2     0.640789     9B2     0.695551     9B1     0.695551  
      20A1     0.712148    21A1     0.781329    10B1     0.793868  
      10B2     0.793868    11B1     0.896931    11B2     0.896931  
       4A2     0.957088    22A1     0.957099    12B1     1.126508  
      12B2     1.126508    23A1     1.133356    24A1     1.182306  
      25A1     1.373417    26A1     2.407875    27A1     2.449582  
       5A2     2.449646    13B1     2.472374    13B2     2.472374  
      14B2     3.063059    14B1     3.063059    28A1     3.154847  
      29A1     3.274970    15B1     3.451535    15B2     3.451535  
      30A1     3.473471    16B2     3.526305    16B1     3.526305  
       6A2     3.531933    31A1     3.531978    17B1     3.630047  
      17B2     3.630047    32A1     3.754875     7A2     3.754939  
      18B1     3.835108    18B2     3.835108    33A1     3.949359  
      34A1     4.053312    35A1     4.443774     8A2     6.938381  
      36A1     6.938543    19B1     6.951223    19B2     6.951223  
      20B1     6.979034    20B2     6.979034    37A1     7.067633  
       9A2     8.472116    38A1     8.472168    21B1     8.522646  
      21B2     8.522646    39A1     8.742908    40A1    12.959984  
      10A2    12.960373    22B1    12.961013    22B2    12.961013  
      41A1    12.961158    11A2    12.961434    23B1    12.963028  
      23B2    12.963028    42A1    12.973899    24B2    13.168764  
      24B1    13.168764    43A1    13.175682    12A2    13.175769  
      25B1    13.215514    25B2    13.215514    44A1    13.396222  
      45A1    56.728636  

    Final Occupation by Irrep:
             A1    A2    B1    B2 
    DOCC [    10,    1,    4,    4 ]

  @DF-RKS Final Energy: -1740.22062757186995

   => Energetics <=

    Nuclear Repulsion Energy =             79.2591050304577180
    One-Electron Energy =               -2585.5183278056297240
    Two-Electron Energy =                 808.1686656018474650
    DFT Exchange-Correlation Energy =     -42.1300153785453304
    Empirical Dispersion Energy =          -0.0000550200000000
    VV10 Nonlocal Energy =                  0.0000000000000000
    Total Energy =                      -1740.2206275718699544

Computation Completed


Properties will be evaluated at   0.000000,   0.000000,   0.000000 [a0]

Properties computed using the SCF density matrix

  Nuclear Dipole Moment: [e a0]
     X:     0.0000      Y:     0.0000      Z:    -0.6195

  Electronic Dipole Moment: [e a0]
     X:     0.0000      Y:     0.0000      Z:     2.8775

  Dipole Moment: [e a0]
     X:     0.0000      Y:     0.0000      Z:     2.2580     Total:     2.2580

  Dipole Moment: [D]
     X:     0.0000      Y:     0.0000      Z:     5.7392     Total:     5.7392


*** tstop() called on bp1-compute00133.data.bp.acrc.priv at Fri Oct 29 08:31:57 2021
Module time:
	user time   =      65.35 seconds =       1.09 minutes
	system time =       3.29 seconds =       0.05 minutes
	total time  =          4 seconds =       0.07 minutes
Total time:
	user time   =      65.35 seconds =       1.09 minutes
	system time =       3.29 seconds =       0.05 minutes
	total time  =          4 seconds =       0.07 minutes

*** tstart() called on bp1-compute00133.data.bp.acrc.priv
*** at Fri Oct 29 08:31:57 2021


         ------------------------------------------------------------
                                   SCF GRAD                          
                          Rob Parrish, Justin Turney,                
                       Andy Simmonett, and Alex Sokolov              
         ------------------------------------------------------------

  ==> Geometry <==

    Molecular point group: c2v
    Full point group: C_inf_v

    Geometry (in Angstrom), charge = 0, multiplicity = 1:

       Center              X                  Y                   Z               Mass       
    ------------   -----------------  -----------------  -----------------  -----------------
         CU           0.000000000000     0.000000000000     0.404089176206    62.929597720000
         F            0.000000000000     0.000000000000    -1.338489823794    18.998403162730

  Nuclear repulsion =   79.259105030457718

  ==> Basis Set <==

  Basis Set: DEF2-TZVPPD
    Blend: DEF2-TZVPPD
    Number of shells: 33
    Number of basis function: 107
    Number of Cartesian functions: 129
    Spherical Harmonics?: true
    Max angular momentum: 4

  ==> DFJKGrad: Density-Fitted SCF Gradients <==

    Gradient:                    1
    J tasked:                  Yes
    K tasked:                  Yes
    wK tasked:                 Yes
    Omega:               2.500E-01
    OpenMP threads:             24
    Integrals threads:          24
    Memory [MiB]:           102996
    Schwarz Cutoff:          0E+00
    Fitting Condition:       1E-10

   => Auxiliary Basis Set <=

  Basis Set: (DEF2-TZVPPD AUX)
    Blend: DEF2-TZVPP-JKFIT
    Number of shells: 83
    Number of basis function: 341
    Number of Cartesian functions: 470
    Spherical Harmonics?: true
    Max angular momentum: 6

  ==> DFT Potential <==

   => Composite Functional: M11-D3BJ <= 

    M11 Meta-GGA XC Functional

    R. Peverati and D. G. Truhlar, J. Phys. Chem. Lett., 2, 2810, 2011


    Deriv               =              1
    GGA                 =           TRUE
    Meta                =           TRUE

    Exchange Hybrid     =           TRUE
    MP2 Hybrid          =          FALSE

   => Exchange Functionals <=

    1.0000   XC_HYB_MGGA_X_M11 [omega = 0.2500]

   => Exact (HF) Exchange <=

    0.5720            HF,LR [omega = 0.2500]
    0.4280               HF 

   => Correlation Functionals <=

    1.0000    XC_MGGA_C_M11

   => Molecular Quadrature <=

    Radial Scheme          =       TREUTLER
    Pruning Scheme         =           FLAT
    Nuclear Scheme         =       TREUTLER

    BS radius alpha        =              1
    Pruning alpha          =              1
    Radial Points          =             75
    Spherical Points       =            302
    Total Points           =          45300
    Total Blocks           =            428
    Max Points             =            256
    Max Functions          =            106


  -Total Gradient:
     Atom            X                  Y                   Z
    ------   -----------------  -----------------  -----------------
       1        0.000000000000     0.000000000000    -0.028361682276
       2       -0.000000000000     0.000000000000     0.028737594103


*** tstop() called on bp1-compute00133.data.bp.acrc.priv at Fri Oct 29 08:32:01 2021
Module time:
	user time   =      38.30 seconds =       0.64 minutes
	system time =       2.64 seconds =       0.04 minutes
	total time  =          4 seconds =       0.07 minutes
Total time:
	user time   =     104.67 seconds =       1.74 minutes
	system time =       6.01 seconds =       0.10 minutes
	total time  =          8 seconds =       0.13 minutes

			-----------------------------------------
			 OPTKING 2.0: for geometry optimizations 
			  - R.A. King,  Bethel University        
			-----------------------------------------
	At level 1: Red. Int., RFO, no backsteps, dynamic trust

	Internal coordinates to be generated automatically.
	Detected frag 1 with atoms:  1 2
	---Fragment 1 Bond Connectivity---
	 1 : 2
	 2 : 1

	---Fragment 1 Geometry and Gradient---
	 CU          0.0000000000        0.0000000000        0.7636178733
	 F           0.0000000000        0.0000000000       -2.5293791887
	             0.0000000000        0.0000000000       -0.0283616823
	            -0.0000000000        0.0000000000        0.0287375941

	Previous optimization step data not found.  Starting new optimization.

	---Fragment 1 Intrafragment Coordinates---
	 - Coordinate -           - BOHR/RAD -       - ANG/DEG -
	 R(1,2)           =         3.292997	       1.742579

	Current energy   :     -1740.2206275719

	Generating empirical Hessian (Schlegel '84) for each fragment.
	Taking RFO optimization step.
	Going to follow RFO solution 1.
	Using RFO vector 1.
	Norm of target step-size    0.03024
	Projected energy change by RFO approximation:        -0.0004057439

	Back-transformation to cartesian coordinates...
	Successfully converged to displaced geometry.

	--- Internal Coordinate Step in ANG or DEG, aJ/ANG or AJ/DEG ---
	 ---------------------------------------------------------------------------
	   Coordinate                Previous        Force       Change         New 
	   ----------                --------       ------       ------       ------
	    1 R(1,2)          =      1.742579     0.235213     0.016001     1.758580
	 ---------------------------------------------------------------------------
	Successfully symmetrized geometry.

  ==> Convergence Check <==

  Measures of convergence in internal coordinates in au.
  Criteria marked as inactive (o), active & met (*), and active & unmet ( ).
  --------------------------------------------------------------------------------------------- ~
   Step     Total Energy     Delta E     MAX Force     RMS Force      MAX Disp      RMS Disp    ~
  --------------------------------------------------------------------------------------------- ~
    Convergence Criteria    1.00e-06 *    3.00e-04 *             o    1.20e-03 *             o  ~
  --------------------------------------------------------------------------------------------- ~
      1   -1740.22062757   -1.74e+03      2.85e-02      2.85e-02 o    3.02e-02      3.02e-02 o  ~
  ---------------------------------------------------------------------------------------------

	Writing optimization data to binary file.
	Structure for next step:
	Cartesian Geometry (in Angstrom)
	   CU     0.0000000000   0.0000000000   0.4120899211
	    F     0.0000000000   0.0000000000  -1.3464905650
			--------------------------
			 OPTKING Finished Execution 
			--------------------------

    Structure for next step:
    Molecular point group: c2v
    Full point group: C_inf_v

    Geometry (in Angstrom), charge = 0, multiplicity = 1:

    CU           0.000000000000     0.000000000000     0.407799785661
    F            0.000000000000     0.000000000000    -1.350780707312

gradient() will perform analytic gradient computation.

*** tstart() called on bp1-compute00133.data.bp.acrc.priv
*** at Fri Oct 29 08:32:01 2021

   => Loading Basis Set <=

    Name: DEF2-TZVPPD
    Role: ORBITAL
    Keyword: BASIS
    atoms 1 entry CU         line  1290 file /work/zw18965/.conda/envs/p4env/share/psi4/basis/def2-tzvppd.gbs 
    atoms 2 entry F          line   257 file /work/zw18965/.conda/envs/p4env/share/psi4/basis/def2-tzvppd.gbs 


         ---------------------------------------------------------
                                   SCF
               by Justin Turney, Rob Parrish, Andy Simmonett
                          and Daniel G. A. Smith
                              RKS Reference
                       24 Threads, 137329 MiB Core
         ---------------------------------------------------------

  ==> Geometry <==

    Molecular point group: c2v
    Full point group: C_inf_v

    Geometry (in Angstrom), charge = 0, multiplicity = 1:

       Center              X                  Y                   Z               Mass       
    ------------   -----------------  -----------------  -----------------  -----------------
         CU           0.000000000000     0.000000000000     0.407799785661    62.929597720000
         F            0.000000000000     0.000000000000    -1.350780707312    18.998403162730

  Running in c2v symmetry.

  Rotational constants: A = ************  B =      0.37354  C =      0.37354 [cm^-1]
  Rotational constants: A = ************  B =  11198.32324  C =  11198.32324 [MHz]
  Nuclear repulsion =   78.537918813917258

  Charge       = 0
  Multiplicity = 1
  Electrons    = 38
  Nalpha       = 19
  Nbeta        = 19

  ==> Algorithm <==

  SCF Algorithm Type is DF.
  DIIS enabled.
  MOM disabled.
  Fractional occupation disabled.
  Guess Type is READ.
  Energy threshold   = 1.00e-08
  Density threshold  = 1.00e-08
  Integral threshold = 0.00e+00

  ==> Primary Basis <==

  Basis Set: DEF2-TZVPPD
    Blend: DEF2-TZVPPD
    Number of shells: 33
    Number of basis function: 107
    Number of Cartesian functions: 129
    Spherical Harmonics?: true
    Max angular momentum: 4

  ==> DFT Potential <==

   => Composite Functional: M11-D3BJ <= 

    M11 Meta-GGA XC Functional

    R. Peverati and D. G. Truhlar, J. Phys. Chem. Lett., 2, 2810, 2011


    Deriv               =              1
    GGA                 =           TRUE
    Meta                =           TRUE

    Exchange Hybrid     =           TRUE
    MP2 Hybrid          =          FALSE

   => Exchange Functionals <=

    1.0000   XC_HYB_MGGA_X_M11 [omega = 0.2500]

   => Exact (HF) Exchange <=

    0.5720            HF,LR [omega = 0.2500]
    0.4280               HF 

   => Correlation Functionals <=

    1.0000    XC_MGGA_C_M11

   => Molecular Quadrature <=

    Radial Scheme          =       TREUTLER
    Pruning Scheme         =           FLAT
    Nuclear Scheme         =       TREUTLER

    BS radius alpha        =              1
    Pruning alpha          =              1
    Radial Points          =             75
    Spherical Points       =            302
    Total Points           =          45300
    Total Blocks           =            426
    Max Points             =            255
    Max Functions          =            106

   => M11-D3(BJ): Empirical Dispersion <=

    Grimme's -D3 (BJ-damping) Dispersion Correction
    Grimme S.; Ehrlich S.; Goerigk L. (2011), J. Comput. Chem., 32: 1456
    Parametrisation from:    L. Goerigk, J. Phys. Chem. Lett. 6, 3891-3896, 2015

        s6 =       1.000000
        s8 =       2.811200
        a1 =       0.000000
        a2 =      10.138900

   => Loading Basis Set <=

    Name: (DEF2-TZVPPD AUX)
    Role: JKFIT
    Keyword: DF_BASIS_SCF
    atoms 1 entry CU         line  2361 file /work/zw18965/.conda/envs/p4env/share/psi4/basis/def2-tzvpp-jkfit.gbs 
    atoms 2 entry F          line   383 file /work/zw18965/.conda/envs/p4env/share/psi4/basis/def2-tzvpp-jkfit.gbs 

   => Loading Basis Set <=

    Name: DEF2-TZVPPD
    Role: ORBITAL
    Keyword: BASIS
    atoms 1 entry CU         line  1290 file /work/zw18965/.conda/envs/p4env/share/psi4/basis/def2-tzvppd.gbs 
    atoms 2 entry F          line   257 file /work/zw18965/.conda/envs/p4env/share/psi4/basis/def2-tzvppd.gbs 

  Reading orbitals from file 180, no projection.

  ==> Pre-Iterations <==

   -------------------------------------------------------
    Irrep   Nso     Nmo     Nalpha   Nbeta   Ndocc  Nsocc
   -------------------------------------------------------
     A1        45      45       0       0       0       0
     A2        12      12       0       0       0       0
     B1        25      25       0       0       0       0
     B2        25      25       0       0       0       0
   -------------------------------------------------------
    Total     107     107      19      19      19       0
   -------------------------------------------------------

  ==> Integral Setup <==

  ==> DiskDFJK: Density-Fitted J/K Matrices <==

    J tasked:                  Yes
    K tasked:                  Yes
    wK tasked:                 Yes
    Omega:               2.500E-01
    OpenMP threads:             24
    Integrals threads:          24
    Memory [MiB]:           102708
    Algorithm:                Core
    Integral Cache:           NONE
    Schwarz Cutoff:          1E-12
    Fitting Condition:       1E-10

   => Auxiliary Basis Set <=

  Basis Set: (DEF2-TZVPPD AUX)
    Blend: DEF2-TZVPP-JKFIT
    Number of shells: 83
    Number of basis function: 341
    Number of Cartesian functions: 470
    Spherical Harmonics?: true
    Max angular momentum: 6

  Cached 100.0% of DFT collocation blocks in 0.282 [GiB].

  Minimum eigenvalue in the overlap matrix is 2.3029926151E-03.
  Using Symmetric Orthogonalization.

  SCF Guess: Orbitals guess was supplied from a previous computation.

  ==> Iterations <==

                           Total Energy        Delta E     RMS |[F,P]|

   @DF-RKS iter   0: -1740.22086610089946   -1.74022e+03   1.09665e-03 
   @DF-RKS iter   1: -1740.22137181696417   -5.05716e-04   8.84969e-05 DIIS
   @DF-RKS iter   2: -1740.22137079756362    1.01940e-06   1.07895e-04 DIIS
   @DF-RKS iter   3: -1740.22138072450844   -9.92694e-06   1.17237e-05 DIIS
   @DF-RKS iter   4: -1740.22138132912505   -6.04617e-07   7.08260e-06 DIIS
   @DF-RKS iter   5: -1740.22138166140280   -3.32278e-07   9.08202e-06 DIIS
   @DF-RKS iter   6: -1740.22138198080643   -3.19404e-07   1.95408e-06 DIIS
   @DF-RKS iter   7: -1740.22138205064653   -6.98401e-08   6.12607e-07 DIIS
   @DF-RKS iter   8: -1740.22138205723741   -6.59088e-09   1.45909e-07 DIIS
   @DF-RKS iter   9: -1740.22138205741157   -1.74168e-10   2.67526e-08 DIIS
   @DF-RKS iter  10: -1740.22138205741521   -3.63798e-12   4.77086e-09 DIIS
  Energy and wave function converged.


  ==> Post-Iterations <==

    Orbital Energies [Eh]
    ---------------------

    Doubly Occupied:                                                      

       1A1  -323.955028     2A1   -39.081250     1B2   -34.346593  
       1B1   -34.346593     3A1   -34.345066     4A1   -24.895348  
       5A1    -4.441257     2B1    -2.962437     2B2    -2.962437  
       6A1    -2.961964     7A1    -1.158564     8A1    -0.499804  
       3B1    -0.474481     3B2    -0.474481     1A2    -0.438898  
       9A1    -0.438879     4B1    -0.396891     4B2    -0.396891  
      10A1    -0.383023  

    Virtual:                                                              

      11A1    -0.057560     5B2     0.006905     5B1     0.006905  
      12A1     0.036640    13A1     0.088252    14A1     0.151106  
       6B2     0.164975     6B1     0.164975     7B2     0.175128  
       7B1     0.175128     2A2     0.204162    15A1     0.204163  
      16A1     0.217881     8B2     0.269781     8B1     0.269781  
      17A1     0.326261    18A1     0.429476    19A1     0.641132  
       3A2     0.641150     9B2     0.695513     9B1     0.695513  
      20A1     0.712604    21A1     0.781097    10B2     0.793200  
      10B1     0.793200    11B2     0.895029    11B1     0.895029  
       4A2     0.956205    22A1     0.956216    12B2     1.123794  
      12B1     1.123794    23A1     1.131375    24A1     1.181624  
      25A1     1.384158    26A1     2.422240    27A1     2.451583  
       5A2     2.451670    13B2     2.477815    13B1     2.477815  
      14B2     3.062089    14B1     3.062089    28A1     3.151467  
      29A1     3.265588    15B2     3.456917    15B1     3.456917  
      30A1     3.474759    16B1     3.525295    16B2     3.525295  
       6A2     3.530966    31A1     3.531015    17B2     3.619125  
      17B1     3.619125    32A1     3.754045     7A2     3.754101  
      18B1     3.833253    18B2     3.833253    33A1     3.953090  
      34A1     4.052136    35A1     4.404611     8A2     6.940766  
      36A1     6.941001    19B2     6.953537    19B1     6.953537  
      20B1     6.978668    20B2     6.978668    37A1     7.061676  
      38A1     8.473886     9A2     8.473888    21B1     8.522481  
      21B2     8.522481    39A1     8.729590    40A1    12.959737  
      10A2    12.960130    41A1    12.960543    22B1    12.960576  
      22B2    12.960576    11A2    12.960823    23B1    12.962370  
      23B2    12.962370    42A1    12.972475    24B2    13.168435  
      24B1    13.168435    43A1    13.175295    12A2    13.175362  
      25B2    13.212035    25B1    13.212035    44A1    13.383018  
      45A1    56.725746  

    Final Occupation by Irrep:
             A1    A2    B1    B2 
    DOCC [    10,    1,    4,    4 ]

  @DF-RKS Final Energy: -1740.22138205741521

   => Energetics <=

    Nuclear Repulsion Energy =             78.5379188139172584
    One-Electron Energy =               -2584.0937038810125159
    Two-Electron Energy =                 807.4634547839239076
    DFT Exchange-Correlation Energy =     -42.1289967442438495
    Empirical Dispersion Energy =          -0.0000550300000000
    VV10 Nonlocal Energy =                  0.0000000000000000
    Total Energy =                      -1740.2213820574152123

Computation Completed


Properties will be evaluated at   0.000000,   0.000000,   0.000000 [a0]

Properties computed using the SCF density matrix

  Nuclear Dipole Moment: [e a0]
     X:     0.0000      Y:     0.0000      Z:    -0.6252

  Electronic Dipole Moment: [e a0]
     X:     0.0000      Y:     0.0000      Z:     2.9121

  Dipole Moment: [e a0]
     X:     0.0000      Y:     0.0000      Z:     2.2869     Total:     2.2869

  Dipole Moment: [D]
     X:     0.0000      Y:     0.0000      Z:     5.8127     Total:     5.8127


*** tstop() called on bp1-compute00133.data.bp.acrc.priv at Fri Oct 29 08:32:04 2021
Module time:
	user time   =      46.32 seconds =       0.77 minutes
	system time =       2.15 seconds =       0.04 minutes
	total time  =          3 seconds =       0.05 minutes
Total time:
	user time   =     151.46 seconds =       2.52 minutes
	system time =       8.17 seconds =       0.14 minutes
	total time  =         11 seconds =       0.18 minutes

*** tstart() called on bp1-compute00133.data.bp.acrc.priv
*** at Fri Oct 29 08:32:04 2021


         ------------------------------------------------------------
                                   SCF GRAD                          
                          Rob Parrish, Justin Turney,                
                       Andy Simmonett, and Alex Sokolov              
         ------------------------------------------------------------

  ==> Geometry <==

    Molecular point group: c2v
    Full point group: C_inf_v

    Geometry (in Angstrom), charge = 0, multiplicity = 1:

       Center              X                  Y                   Z               Mass       
    ------------   -----------------  -----------------  -----------------  -----------------
         CU           0.000000000000     0.000000000000     0.407799785661    62.929597720000
         F            0.000000000000     0.000000000000    -1.350780707312    18.998403162730

  Nuclear repulsion =   78.537918813917258

  ==> Basis Set <==

  Basis Set: DEF2-TZVPPD
    Blend: DEF2-TZVPPD
    Number of shells: 33
    Number of basis function: 107
    Number of Cartesian functions: 129
    Spherical Harmonics?: true
    Max angular momentum: 4

  ==> DFJKGrad: Density-Fitted SCF Gradients <==

    Gradient:                    1
    J tasked:                  Yes
    K tasked:                  Yes
    wK tasked:                 Yes
    Omega:               2.500E-01
    OpenMP threads:             24
    Integrals threads:          24
    Memory [MiB]:           102996
    Schwarz Cutoff:          0E+00
    Fitting Condition:       1E-10

   => Auxiliary Basis Set <=

  Basis Set: (DEF2-TZVPPD AUX)
    Blend: DEF2-TZVPP-JKFIT
    Number of shells: 83
    Number of basis function: 341
    Number of Cartesian functions: 470
    Spherical Harmonics?: true
    Max angular momentum: 6

  ==> DFT Potential <==

   => Composite Functional: M11-D3BJ <= 

    M11 Meta-GGA XC Functional

    R. Peverati and D. G. Truhlar, J. Phys. Chem. Lett., 2, 2810, 2011


    Deriv               =              1
    GGA                 =           TRUE
    Meta                =           TRUE

    Exchange Hybrid     =           TRUE
    MP2 Hybrid          =          FALSE

   => Exchange Functionals <=

    1.0000   XC_HYB_MGGA_X_M11 [omega = 0.2500]

   => Exact (HF) Exchange <=

    0.5720            HF,LR [omega = 0.2500]
    0.4280               HF 

   => Correlation Functionals <=

    1.0000    XC_MGGA_C_M11

   => Molecular Quadrature <=

    Radial Scheme          =       TREUTLER
    Pruning Scheme         =           FLAT
    Nuclear Scheme         =       TREUTLER

    BS radius alpha        =              1
    Pruning alpha          =              1
    Radial Points          =             75
    Spherical Points       =            302
    Total Points           =          45300
    Total Blocks           =            426
    Max Points             =            255
    Max Functions          =            106


  -Total Gradient:
     Atom            X                  Y                   Z
    ------   -----------------  -----------------  -----------------
       1        0.000000000000    -0.000000000000    -0.020973347756
       2        0.000000000000     0.000000000000     0.021340879694


*** tstop() called on bp1-compute00133.data.bp.acrc.priv at Fri Oct 29 08:32:08 2021
Module time:
	user time   =      37.72 seconds =       0.63 minutes
	system time =       2.49 seconds =       0.04 minutes
	total time  =          4 seconds =       0.07 minutes
Total time:
	user time   =     190.24 seconds =       3.17 minutes
	system time =      10.73 seconds =       0.18 minutes
	total time  =         15 seconds =       0.25 minutes

			-----------------------------------------
			 OPTKING 2.0: for geometry optimizations 
			  - R.A. King,  Bethel University        
			-----------------------------------------
	At level 1: Red. Int., RFO, no backsteps, dynamic trust

	Previous internal coordinate definitions found.
	---Fragment 1 Geometry and Gradient---
	 CU          0.0000000000        0.0000000000        0.7706299089
	 F           0.0000000000        0.0000000000       -2.5526055924
	             0.0000000000       -0.0000000000       -0.0209733478
	             0.0000000000        0.0000000000        0.0213408797

	---Fragment 1 Intrafragment Coordinates---
	 - Coordinate -           - BOHR/RAD -       - ANG/DEG -
	 R(1,2)           =         3.323236	       1.758580

	Current energy   :     -1740.2213820574

	Energy change for the previous step:
		Projected    :        -0.0004057439
		Actual       :        -0.0007544855
	Energy ratio indicates good step: Trust radius increased to 1.000e+00.


	Performing BFGS update.
	Previous computed or guess Hessian on step 1.
	Steps to be used in Hessian update: 1
	Taking RFO optimization step.
	Going to follow RFO solution 1.
	Using RFO vector 1.
	Norm of target step-size    0.08590
	Projected energy change by RFO approximation:         0.0018584639

	Back-transformation to cartesian coordinates...
	Successfully converged to displaced geometry.

	--- Internal Coordinate Step in ANG or DEG, aJ/ANG or AJ/DEG ---
	 ---------------------------------------------------------------------------
	   Coordinate                Previous        Force       Change         New 
	   ----------                --------       ------       ------       ------
	    1 R(1,2)          =      1.758580     0.174308     0.045458     1.804038
	 ---------------------------------------------------------------------------
	Successfully symmetrized geometry.

  ==> Convergence Check <==

  Measures of convergence in internal coordinates in au.
  Criteria marked as inactive (o), active & met (*), and active & unmet ( ).
  ---------------------------------------------------------------------------------------------
   Step     Total Energy     Delta E     MAX Force     RMS Force      MAX Disp      RMS Disp   
  ---------------------------------------------------------------------------------------------
    Convergence Criteria    1.00e-06 *    3.00e-04 *             o    1.20e-03 *             o
  ---------------------------------------------------------------------------------------------
      2   -1740.22138206   -7.54e-04      2.12e-02      2.12e-02 o    8.59e-02      8.59e-02 o  ~
  ---------------------------------------------------------------------------------------------

	Writing optimization data to binary file.
	Structure for next step:
	Cartesian Geometry (in Angstrom)
	   CU     0.0000000000   0.0000000000   0.4305286362
	    F     0.0000000000   0.0000000000  -1.3735095542
			--------------------------
			 OPTKING Finished Execution 
			--------------------------

    Structure for next step:
    Molecular point group: c2v
    Full point group: C_inf_v

    Geometry (in Angstrom), charge = 0, multiplicity = 1:

    CU           0.000000000000     0.000000000000     0.418341038800
    F            0.000000000000     0.000000000000    -1.385697158649

gradient() will perform analytic gradient computation.

*** tstart() called on bp1-compute00133.data.bp.acrc.priv
*** at Fri Oct 29 08:32:08 2021

   => Loading Basis Set <=

    Name: DEF2-TZVPPD
    Role: ORBITAL
    Keyword: BASIS
    atoms 1 entry CU         line  1290 file /work/zw18965/.conda/envs/p4env/share/psi4/basis/def2-tzvppd.gbs 
    atoms 2 entry F          line   257 file /work/zw18965/.conda/envs/p4env/share/psi4/basis/def2-tzvppd.gbs 


         ---------------------------------------------------------
                                   SCF
               by Justin Turney, Rob Parrish, Andy Simmonett
                          and Daniel G. A. Smith
                              RKS Reference
                       24 Threads, 137329 MiB Core
         ---------------------------------------------------------

  ==> Geometry <==

    Molecular point group: c2v
    Full point group: C_inf_v

    Geometry (in Angstrom), charge = 0, multiplicity = 1:

       Center              X                  Y                   Z               Mass       
    ------------   -----------------  -----------------  -----------------  -----------------
         CU           0.000000000000     0.000000000000     0.418341038800    62.929597720000
         F            0.000000000000     0.000000000000    -1.385697158649    18.998403162730

  Running in c2v symmetry.

  Rotational constants: A = ************  B =      0.35495  C =      0.35495 [cm^-1]
  Rotational constants: A = ************  B =  10641.08824  C =  10641.08824 [MHz]
  Nuclear repulsion =   76.558939927209920

  Charge       = 0
  Multiplicity = 1
  Electrons    = 38
  Nalpha       = 19
  Nbeta        = 19

  ==> Algorithm <==

  SCF Algorithm Type is DF.
  DIIS enabled.
  MOM disabled.
  Fractional occupation disabled.
  Guess Type is READ.
  Energy threshold   = 1.00e-08
  Density threshold  = 1.00e-08
  Integral threshold = 0.00e+00

  ==> Primary Basis <==

  Basis Set: DEF2-TZVPPD
    Blend: DEF2-TZVPPD
    Number of shells: 33
    Number of basis function: 107
    Number of Cartesian functions: 129
    Spherical Harmonics?: true
    Max angular momentum: 4

  ==> DFT Potential <==

   => Composite Functional: M11-D3BJ <= 

    M11 Meta-GGA XC Functional

    R. Peverati and D. G. Truhlar, J. Phys. Chem. Lett., 2, 2810, 2011


    Deriv               =              1
    GGA                 =           TRUE
    Meta                =           TRUE

    Exchange Hybrid     =           TRUE
    MP2 Hybrid          =          FALSE

   => Exchange Functionals <=

    1.0000   XC_HYB_MGGA_X_M11 [omega = 0.2500]

   => Exact (HF) Exchange <=

    0.5720            HF,LR [omega = 0.2500]
    0.4280               HF 

   => Correlation Functionals <=

    1.0000    XC_MGGA_C_M11

   => Molecular Quadrature <=

    Radial Scheme          =       TREUTLER
    Pruning Scheme         =           FLAT
    Nuclear Scheme         =       TREUTLER

    BS radius alpha        =              1
    Pruning alpha          =              1
    Radial Points          =             75
    Spherical Points       =            302
    Total Points           =          45300
    Total Blocks           =            430
    Max Points             =            255
    Max Functions          =            106

   => M11-D3(BJ): Empirical Dispersion <=

    Grimme's -D3 (BJ-damping) Dispersion Correction
    Grimme S.; Ehrlich S.; Goerigk L. (2011), J. Comput. Chem., 32: 1456
    Parametrisation from:    L. Goerigk, J. Phys. Chem. Lett. 6, 3891-3896, 2015

        s6 =       1.000000
        s8 =       2.811200
        a1 =       0.000000
        a2 =      10.138900

   => Loading Basis Set <=

    Name: (DEF2-TZVPPD AUX)
    Role: JKFIT
    Keyword: DF_BASIS_SCF
    atoms 1 entry CU         line  2361 file /work/zw18965/.conda/envs/p4env/share/psi4/basis/def2-tzvpp-jkfit.gbs 
    atoms 2 entry F          line   383 file /work/zw18965/.conda/envs/p4env/share/psi4/basis/def2-tzvpp-jkfit.gbs 

   => Loading Basis Set <=

    Name: DEF2-TZVPPD
    Role: ORBITAL
    Keyword: BASIS
    atoms 1 entry CU         line  1290 file /work/zw18965/.conda/envs/p4env/share/psi4/basis/def2-tzvppd.gbs 
    atoms 2 entry F          line   257 file /work/zw18965/.conda/envs/p4env/share/psi4/basis/def2-tzvppd.gbs 

  Reading orbitals from file 180, no projection.

  ==> Pre-Iterations <==

   -------------------------------------------------------
    Irrep   Nso     Nmo     Nalpha   Nbeta   Ndocc  Nsocc
   -------------------------------------------------------
     A1        45      45       0       0       0       0
     A2        12      12       0       0       0       0
     B1        25      25       0       0       0       0
     B2        25      25       0       0       0       0
   -------------------------------------------------------
    Total     107     107      19      19      19       0
   -------------------------------------------------------

  ==> Integral Setup <==

  ==> DiskDFJK: Density-Fitted J/K Matrices <==

    J tasked:                  Yes
    K tasked:                  Yes
    wK tasked:                 Yes
    Omega:               2.500E-01
    OpenMP threads:             24
    Integrals threads:          24
    Memory [MiB]:           102712
    Algorithm:                Core
    Integral Cache:           NONE
    Schwarz Cutoff:          1E-12
    Fitting Condition:       1E-10

   => Auxiliary Basis Set <=

  Basis Set: (DEF2-TZVPPD AUX)
    Blend: DEF2-TZVPP-JKFIT
    Number of shells: 83
    Number of basis function: 341
    Number of Cartesian functions: 470
    Spherical Harmonics?: true
    Max angular momentum: 6

  Cached 100.0% of DFT collocation blocks in 0.278 [GiB].

  Minimum eigenvalue in the overlap matrix is 2.6123554595E-03.
  Using Symmetric Orthogonalization.

  SCF Guess: Orbitals guess was supplied from a previous computation.

  ==> Iterations <==

                           Total Energy        Delta E     RMS |[F,P]|

   @DF-RKS iter   0: -1740.22264117586019   -1.74022e+03   2.93713e-03 
   @DF-RKS iter   1: -1740.22234255919898    2.98617e-04   2.26671e-04 DIIS
   @DF-RKS iter   2: -1740.22233718913640    5.37006e-06   2.74898e-04 DIIS
   @DF-RKS iter   3: -1740.22240187370471   -6.46846e-05   2.92529e-05 DIIS
   @DF-RKS iter   4: -1740.22240628150780   -4.40780e-06   1.58955e-05 DIIS
   @DF-RKS iter   5: -1740.22240924947846   -2.96797e-06   2.13485e-05 DIIS
   @DF-RKS iter   6: -1740.22241070323184   -1.45375e-06   5.01426e-06 DIIS
   @DF-RKS iter   7: -1740.22241116885834   -4.65626e-07   1.65752e-06 DIIS
   @DF-RKS iter   8: -1740.22241121467300   -4.58147e-08   3.81793e-07 DIIS
   @DF-RKS iter   9: -1740.22241121587626   -1.20326e-09   7.27679e-08 DIIS
   @DF-RKS iter  10: -1740.22241121590559   -2.93312e-11   1.21966e-08 DIIS
   @DF-RKS iter  11: -1740.22241121590764   -2.04636e-12   2.88322e-09 DIIS
  Energy and wave function converged.


  ==> Post-Iterations <==

    Orbital Energies [Eh]
    ---------------------

    Doubly Occupied:                                                      

       1A1  -323.956944     2A1   -39.082066     1B1   -34.347643  
       1B2   -34.347643     3A1   -34.345941     4A1   -24.890944  
       5A1    -4.441831     2B2    -2.963548     2B1    -2.963548  
       6A1    -2.962016     7A1    -1.150617     8A1    -0.491947  
       3B2    -0.468285     3B1    -0.468285     1A2    -0.440288  
       9A1    -0.440273     4B2    -0.397782     4B1    -0.397782  
      10A1    -0.386431  

    Virtual:                                                              

      11A1    -0.059820     5B2     0.005367     5B1     0.005367  
      12A1     0.036046    13A1     0.087457    14A1     0.151497  
       6B2     0.166028     6B1     0.166028     7B2     0.174023  
       7B1     0.174023     2A2     0.201754    15A1     0.201754  
      16A1     0.216845     8B2     0.266640     8B1     0.266640  
      17A1     0.322993    18A1     0.428421    19A1     0.642187  
       3A2     0.642203     9B2     0.695286     9B1     0.695286  
      20A1     0.712201    21A1     0.782082    10B2     0.790743  
      10B1     0.790743    11B1     0.890301    11B2     0.890301  
       4A2     0.953641    22A1     0.953651    12B1     1.116062  
      12B2     1.116062    23A1     1.122941    24A1     1.180883  
      25A1     1.411511    26A1     2.456943     5A2     2.457093  
      27A1     2.459712    13B2     2.491283    13B1     2.491283  
      14B1     3.059203    14B2     3.059203    28A1     3.144466  
      29A1     3.242039    15B1     3.469898    15B2     3.469898  
      30A1     3.486653    16B2     3.522275    16B1     3.522275  
       6A2     3.528068    31A1     3.528122    17B2     3.593109  
      17B1     3.593109    32A1     3.751531     7A2     3.751562  
      18B1     3.827855    18B2     3.827855    33A1     3.961424  
      34A1     4.043569    35A1     4.307757     8A2     6.947366  
      36A1     6.947778    19B2     6.959822    19B1     6.959822  
      20B1     6.979014    20B2     6.979014    37A1     7.051925  
      38A1     8.478582     9A2     8.478727    21B1     8.523144  
      21B2     8.523144    39A1     8.695565    40A1    12.958563  
      41A1    12.958678    10A2    12.958845    22B1    12.959033  
      22B2    12.959033    11A2    12.959062    23B1    12.960470  
      23B2    12.960470    42A1    12.968456    24B2    13.167210  
      24B1    13.167210    43A1    13.173915    12A2    13.173923  
      25B2    13.203654    25B1    13.203654    44A1    13.347944  
      45A1    56.720169  

    Final Occupation by Irrep:
             A1    A2    B1    B2 
    DOCC [    10,    1,    4,    4 ]

  @DF-RKS Final Energy: -1740.22241121590764

   => Energetics <=

    Nuclear Repulsion Energy =             76.5589399272099200
    One-Electron Energy =               -2580.1715694125355185
    Two-Electron Energy =                 805.5165442555958180
    DFT Exchange-Correlation Energy =     -42.1262709161777096
    Empirical Dispersion Energy =          -0.0000550700000000
    VV10 Nonlocal Energy =                  0.0000000000000000
    Total Energy =                      -1740.2224112159074139

Computation Completed


Properties will be evaluated at   0.000000,   0.000000,   0.000000 [a0]

Properties computed using the SCF density matrix

  Nuclear Dipole Moment: [e a0]
     X:     0.0000      Y:     0.0000      Z:    -0.6413

  Electronic Dipole Moment: [e a0]
     X:     0.0000      Y:     0.0000      Z:     3.0102

  Dipole Moment: [e a0]
     X:     0.0000      Y:     0.0000      Z:     2.3689     Total:     2.3689

  Dipole Moment: [D]
     X:     0.0000      Y:     0.0000      Z:     6.0211     Total:     6.0211


*** tstop() called on bp1-compute00133.data.bp.acrc.priv at Fri Oct 29 08:32:11 2021
Module time:
	user time   =      47.86 seconds =       0.80 minutes
	system time =       2.46 seconds =       0.04 minutes
	total time  =          3 seconds =       0.05 minutes
Total time:
	user time   =     238.65 seconds =       3.98 minutes
	system time =      13.22 seconds =       0.22 minutes
	total time  =         18 seconds =       0.30 minutes

*** tstart() called on bp1-compute00133.data.bp.acrc.priv
*** at Fri Oct 29 08:32:11 2021


         ------------------------------------------------------------
                                   SCF GRAD                          
                          Rob Parrish, Justin Turney,                
                       Andy Simmonett, and Alex Sokolov              
         ------------------------------------------------------------

  ==> Geometry <==

    Molecular point group: c2v
    Full point group: C_inf_v

    Geometry (in Angstrom), charge = 0, multiplicity = 1:

       Center              X                  Y                   Z               Mass       
    ------------   -----------------  -----------------  -----------------  -----------------
         CU           0.000000000000     0.000000000000     0.418341038800    62.929597720000
         F            0.000000000000     0.000000000000    -1.385697158649    18.998403162730

  Nuclear repulsion =   76.558939927209920

  ==> Basis Set <==

  Basis Set: DEF2-TZVPPD
    Blend: DEF2-TZVPPD
    Number of shells: 33
    Number of basis function: 107
    Number of Cartesian functions: 129
    Spherical Harmonics?: true
    Max angular momentum: 4

  ==> DFJKGrad: Density-Fitted SCF Gradients <==

    Gradient:                    1
    J tasked:                  Yes
    K tasked:                  Yes
    wK tasked:                 Yes
    Omega:               2.500E-01
    OpenMP threads:             24
    Integrals threads:          24
    Memory [MiB]:           102996
    Schwarz Cutoff:          0E+00
    Fitting Condition:       1E-10

   => Auxiliary Basis Set <=

  Basis Set: (DEF2-TZVPPD AUX)
    Blend: DEF2-TZVPP-JKFIT
    Number of shells: 83
    Number of basis function: 341
    Number of Cartesian functions: 470
    Spherical Harmonics?: true
    Max angular momentum: 6

  ==> DFT Potential <==

   => Composite Functional: M11-D3BJ <= 

    M11 Meta-GGA XC Functional

    R. Peverati and D. G. Truhlar, J. Phys. Chem. Lett., 2, 2810, 2011


    Deriv               =              1
    GGA                 =           TRUE
    Meta                =           TRUE

    Exchange Hybrid     =           TRUE
    MP2 Hybrid          =          FALSE

   => Exchange Functionals <=

    1.0000   XC_HYB_MGGA_X_M11 [omega = 0.2500]

   => Exact (HF) Exchange <=

    0.5720            HF,LR [omega = 0.2500]
    0.4280               HF 

   => Correlation Functionals <=

    1.0000    XC_MGGA_C_M11

   => Molecular Quadrature <=

    Radial Scheme          =       TREUTLER
    Pruning Scheme         =           FLAT
    Nuclear Scheme         =       TREUTLER

    BS radius alpha        =              1
    Pruning alpha          =              1
    Radial Points          =             75
    Spherical Points       =            302
    Total Points           =          45300
    Total Blocks           =            430
    Max Points             =            255
    Max Functions          =            106


  -Total Gradient:
     Atom            X                  Y                   Z
    ------   -----------------  -----------------  -----------------
       1        0.000000000000     0.000000000000    -0.002965531305
       2        0.000000000000     0.000000000000     0.003335250577


*** tstop() called on bp1-compute00133.data.bp.acrc.priv at Fri Oct 29 08:32:15 2021
Module time:
	user time   =      37.49 seconds =       0.62 minutes
	system time =       2.47 seconds =       0.04 minutes
	total time  =          4 seconds =       0.07 minutes
Total time:
	user time   =     277.25 seconds =       4.62 minutes
	system time =      15.76 seconds =       0.26 minutes
	total time  =         22 seconds =       0.37 minutes

			-----------------------------------------
			 OPTKING 2.0: for geometry optimizations 
			  - R.A. King,  Bethel University        
			-----------------------------------------
	At level 1: Red. Int., RFO, no backsteps, dynamic trust

	Previous internal coordinate definitions found.
	---Fragment 1 Geometry and Gradient---
	 CU          0.0000000000        0.0000000000        0.7905499904
	 F           0.0000000000        0.0000000000       -2.6185881227
	             0.0000000000        0.0000000000       -0.0029655313
	             0.0000000000        0.0000000000        0.0033352506

	---Fragment 1 Intrafragment Coordinates---
	 - Coordinate -           - BOHR/RAD -       - ANG/DEG -
	 R(1,2)           =         3.409138	       1.804038

	Current energy   :     -1740.2224112159

	Energy change for the previous step:
		Projected    :         0.0018584639
		Actual       :        -0.0010291585

	Performing BFGS update.
	Previous computed or guess Hessian on step 1.
	Steps to be used in Hessian update: 2 1
	Taking RFO optimization step.
	Going to follow RFO solution 1.
	Using RFO vector 1.
	Norm of target step-size    0.01440
	Projected energy change by RFO approximation:         0.0000583309

	Back-transformation to cartesian coordinates...
	Successfully converged to displaced geometry.

	--- Internal Coordinate Step in ANG or DEG, aJ/ANG or AJ/DEG ---
	 ---------------------------------------------------------------------------
	   Coordinate                Previous        Force       Change         New 
	   ----------                --------       ------       ------       ------
	    1 R(1,2)          =      1.804038     0.025955     0.007621     1.811660
	 ---------------------------------------------------------------------------
	Successfully symmetrized geometry.

  ==> Convergence Check <==

  Measures of convergence in internal coordinates in au.
  Criteria marked as inactive (o), active & met (*), and active & unmet ( ).
  ---------------------------------------------------------------------------------------------
   Step     Total Energy     Delta E     MAX Force     RMS Force      MAX Disp      RMS Disp   
  ---------------------------------------------------------------------------------------------
    Convergence Criteria    1.00e-06 *    3.00e-04 *             o    1.20e-03 *             o
  ---------------------------------------------------------------------------------------------
      3   -1740.22241122   -1.03e-03      3.15e-03      3.15e-03 o    1.44e-02      1.44e-02 o  ~
  ---------------------------------------------------------------------------------------------

	Writing optimization data to binary file.
	Structure for next step:
	Cartesian Geometry (in Angstrom)
	   CU     0.0000000000   0.0000000000   0.4221517866
	    F     0.0000000000   0.0000000000  -1.3895079026
			--------------------------
			 OPTKING Finished Execution 
			--------------------------

    Structure for next step:
    Molecular point group: c2v
    Full point group: C_inf_v

    Geometry (in Angstrom), charge = 0, multiplicity = 1:

    CU           0.000000000000     0.000000000000     0.420108399259
    F            0.000000000000     0.000000000000    -1.391551297111

gradient() will perform analytic gradient computation.

*** tstart() called on bp1-compute00133.data.bp.acrc.priv
*** at Fri Oct 29 08:32:15 2021

   => Loading Basis Set <=

    Name: DEF2-TZVPPD
    Role: ORBITAL
    Keyword: BASIS
    atoms 1 entry CU         line  1290 file /work/zw18965/.conda/envs/p4env/share/psi4/basis/def2-tzvppd.gbs 
    atoms 2 entry F          line   257 file /work/zw18965/.conda/envs/p4env/share/psi4/basis/def2-tzvppd.gbs 


         ---------------------------------------------------------
                                   SCF
               by Justin Turney, Rob Parrish, Andy Simmonett
                          and Daniel G. A. Smith
                              RKS Reference
                       24 Threads, 137329 MiB Core
         ---------------------------------------------------------

  ==> Geometry <==

    Molecular point group: c2v
    Full point group: C_inf_v

    Geometry (in Angstrom), charge = 0, multiplicity = 1:

       Center              X                  Y                   Z               Mass       
    ------------   -----------------  -----------------  -----------------  -----------------
         CU           0.000000000000     0.000000000000     0.420108399259    62.929597720000
         F            0.000000000000     0.000000000000    -1.391551297111    18.998403162730

  Running in c2v symmetry.

  Rotational constants: A = ************  B =      0.35197  C =      0.35197 [cm^-1]
  Rotational constants: A = ************  B =  10551.74425  C =  10551.74425 [MHz]
  Nuclear repulsion =   76.236862950361683

  Charge       = 0
  Multiplicity = 1
  Electrons    = 38
  Nalpha       = 19
  Nbeta        = 19

  ==> Algorithm <==

  SCF Algorithm Type is DF.
  DIIS enabled.
  MOM disabled.
  Fractional occupation disabled.
  Guess Type is READ.
  Energy threshold   = 1.00e-08
  Density threshold  = 1.00e-08
  Integral threshold = 0.00e+00

  ==> Primary Basis <==

  Basis Set: DEF2-TZVPPD
    Blend: DEF2-TZVPPD
    Number of shells: 33
    Number of basis function: 107
    Number of Cartesian functions: 129
    Spherical Harmonics?: true
    Max angular momentum: 4

  ==> DFT Potential <==

   => Composite Functional: M11-D3BJ <= 

    M11 Meta-GGA XC Functional

    R. Peverati and D. G. Truhlar, J. Phys. Chem. Lett., 2, 2810, 2011


    Deriv               =              1
    GGA                 =           TRUE
    Meta                =           TRUE

    Exchange Hybrid     =           TRUE
    MP2 Hybrid          =          FALSE

   => Exchange Functionals <=

    1.0000   XC_HYB_MGGA_X_M11 [omega = 0.2500]

   => Exact (HF) Exchange <=

    0.5720            HF,LR [omega = 0.2500]
    0.4280               HF 

   => Correlation Functionals <=

    1.0000    XC_MGGA_C_M11

   => Molecular Quadrature <=

    Radial Scheme          =       TREUTLER
    Pruning Scheme         =           FLAT
    Nuclear Scheme         =       TREUTLER

    BS radius alpha        =              1
    Pruning alpha          =              1
    Radial Points          =             75
    Spherical Points       =            302
    Total Points           =          45300
    Total Blocks           =            429
    Max Points             =            255
    Max Functions          =            106

   => M11-D3(BJ): Empirical Dispersion <=

    Grimme's -D3 (BJ-damping) Dispersion Correction
    Grimme S.; Ehrlich S.; Goerigk L. (2011), J. Comput. Chem., 32: 1456
    Parametrisation from:    L. Goerigk, J. Phys. Chem. Lett. 6, 3891-3896, 2015

        s6 =       1.000000
        s8 =       2.811200
        a1 =       0.000000
        a2 =      10.138900

   => Loading Basis Set <=

    Name: (DEF2-TZVPPD AUX)
    Role: JKFIT
    Keyword: DF_BASIS_SCF
    atoms 1 entry CU         line  2361 file /work/zw18965/.conda/envs/p4env/share/psi4/basis/def2-tzvpp-jkfit.gbs 
    atoms 2 entry F          line   383 file /work/zw18965/.conda/envs/p4env/share/psi4/basis/def2-tzvpp-jkfit.gbs 

   => Loading Basis Set <=

    Name: DEF2-TZVPPD
    Role: ORBITAL
    Keyword: BASIS
    atoms 1 entry CU         line  1290 file /work/zw18965/.conda/envs/p4env/share/psi4/basis/def2-tzvppd.gbs 
    atoms 2 entry F          line   257 file /work/zw18965/.conda/envs/p4env/share/psi4/basis/def2-tzvppd.gbs 

  Reading orbitals from file 180, no projection.

  ==> Pre-Iterations <==

   -------------------------------------------------------
    Irrep   Nso     Nmo     Nalpha   Nbeta   Ndocc  Nsocc
   -------------------------------------------------------
     A1        45      45       0       0       0       0
     A2        12      12       0       0       0       0
     B1        25      25       0       0       0       0
     B2        25      25       0       0       0       0
   -------------------------------------------------------
    Total     107     107      19      19      19       0
   -------------------------------------------------------

  ==> Integral Setup <==

  ==> DiskDFJK: Density-Fitted J/K Matrices <==

    J tasked:                  Yes
    K tasked:                  Yes
    wK tasked:                 Yes
    Omega:               2.500E-01
    OpenMP threads:             24
    Integrals threads:          24
    Memory [MiB]:           102713
    Algorithm:                Core
    Integral Cache:           NONE
    Schwarz Cutoff:          1E-12
    Fitting Condition:       1E-10

   => Auxiliary Basis Set <=

  Basis Set: (DEF2-TZVPPD AUX)
    Blend: DEF2-TZVPP-JKFIT
    Number of shells: 83
    Number of basis function: 341
    Number of Cartesian functions: 470
    Spherical Harmonics?: true
    Max angular momentum: 6

  Cached 100.0% of DFT collocation blocks in 0.277 [GiB].

  Minimum eigenvalue in the overlap matrix is 2.6683116451E-03.
  Using Symmetric Orthogonalization.

  SCF Guess: Orbitals guess was supplied from a previous computation.

  ==> Iterations <==

                           Total Energy        Delta E     RMS |[F,P]|

   @DF-RKS iter   0: -1740.22255584664140   -1.74022e+03   4.60758e-04 
   @DF-RKS iter   1: -1740.22243839070279    1.17456e-04   3.23246e-05 DIIS
   @DF-RKS iter   2: -1740.22243841878458   -2.80818e-08   3.82017e-05 DIIS
   @DF-RKS iter   3: -1740.22243966852466   -1.24974e-06   4.48349e-06 DIIS
   @DF-RKS iter   4: -1740.22243978302708   -1.14502e-07   2.82590e-06 DIIS
   @DF-RKS iter   5: -1740.22243986541616   -8.23891e-08   2.71297e-06 DIIS
   @DF-RKS iter   6: -1740.22243989080766   -2.53915e-08   1.09831e-06 DIIS
   @DF-RKS iter   7: -1740.22243990326410   -1.24564e-08   2.47754e-07 DIIS
   @DF-RKS iter   8: -1740.22243990436482   -1.10072e-09   6.20028e-08 DIIS
   @DF-RKS iter   9: -1740.22243990439711   -3.22871e-11   1.17131e-08 DIIS
   @DF-RKS iter  10: -1740.22243990439756   -4.54747e-13   2.06359e-09 DIIS
  Energy and wave function converged.


  ==> Post-Iterations <==

    Orbital Energies [Eh]
    ---------------------

    Doubly Occupied:                                                      

       1A1  -323.957300     2A1   -39.082251     1B2   -34.347863  
       1B1   -34.347863     3A1   -34.346138     4A1   -24.890226  
       5A1    -4.441981     2B2    -2.963779     2B1    -2.963779  
       6A1    -2.962094     7A1    -1.149346     8A1    -0.490718  
       3B1    -0.467371     3B2    -0.467371     1A2    -0.440560  
       9A1    -0.440546     4B1    -0.397894     4B2    -0.397894  
      10A1    -0.386970  

    Virtual:                                                              

      11A1    -0.060191     5B2     0.005116     5B1     0.005116  
      12A1     0.035942    13A1     0.087327    14A1     0.151535  
       6B2     0.166170     6B1     0.166170     7B1     0.173863  
       7B2     0.173863     2A2     0.201362    15A1     0.201362  
      16A1     0.216679     8B2     0.266128     8B1     0.266128  
      17A1     0.322423    18A1     0.428231    19A1     0.642369  
       3A2     0.642384     9B1     0.695233     9B2     0.695233  
      20A1     0.711917    21A1     0.782449    10B2     0.790250  
      10B1     0.790250    11B1     0.889610    11B2     0.889610  
       4A2     0.953204    22A1     0.953214    12B1     1.114763  
      12B2     1.114763    23A1     1.121170    24A1     1.180917  
      25A1     1.415576    26A1     2.457800     5A2     2.457960  
      27A1     2.465236    13B2     2.493264    13B1     2.493264  
      14B2     3.058696    14B1     3.058696    28A1     3.143854  
      29A1     3.238473    15B1     3.471646    15B2     3.471646  
      30A1     3.489703    16B1     3.521748    16B2     3.521748  
       6A2     3.527561    31A1     3.527615    17B1     3.589524  
      17B2     3.589524    32A1     3.751090     7A2     3.751116  
      18B1     3.826926    18B2     3.826926    33A1     3.962193  
      34A1     4.041158    35A1     4.294113     8A2     6.948448  
      36A1     6.948884    19B1     6.960836    19B2     6.960836  
      20B2     6.979223    20B1     6.979223    37A1     7.051149  
      38A1     8.479345     9A2     8.479511    21B1     8.523393  
      21B2     8.523393    39A1     8.690407    40A1    12.958201  
      41A1    12.958454    10A2    12.958481    22B1    12.958735  
      22B2    12.958735    11A2    12.958832    23B2    12.960143  
      23B1    12.960143    42A1    12.967789    24B1    13.166966  
      24B2    13.166966    12A2    13.173644    43A1    13.173644  
      25B1    13.202432    25B2    13.202432    44A1    13.342436  
      45A1    56.719566  

    Final Occupation by Irrep:
             A1    A2    B1    B2 
    DOCC [    10,    1,    4,    4 ]

  @DF-RKS Final Energy: -1740.22243990439756

   => Energetics <=

    Nuclear Repulsion Energy =             76.2368629503616830
    One-Electron Energy =               -2579.5314913504926153
    Two-Electron Energy =                 805.1980794789487845
    DFT Exchange-Correlation Energy =     -42.1258359032154033
    Empirical Dispersion Energy =          -0.0000550800000000
    VV10 Nonlocal Energy =                  0.0000000000000000
    Total Energy =                      -1740.2224399043975609

Computation Completed


Properties will be evaluated at   0.000000,   0.000000,   0.000000 [a0]

Properties computed using the SCF density matrix

  Nuclear Dipole Moment: [e a0]
     X:     0.0000      Y:     0.0000      Z:    -0.6441

  Electronic Dipole Moment: [e a0]
     X:     0.0000      Y:     0.0000      Z:     3.0267

  Dipole Moment: [e a0]
     X:     0.0000      Y:     0.0000      Z:     2.3826     Total:     2.3826

  Dipole Moment: [D]
     X:     0.0000      Y:     0.0000      Z:     6.0560     Total:     6.0560


*** tstop() called on bp1-compute00133.data.bp.acrc.priv at Fri Oct 29 08:32:17 2021
Module time:
	user time   =      45.73 seconds =       0.76 minutes
	system time =       2.02 seconds =       0.03 minutes
	total time  =          2 seconds =       0.03 minutes
Total time:
	user time   =     323.41 seconds =       5.39 minutes
	system time =      17.81 seconds =       0.30 minutes
	total time  =         24 seconds =       0.40 minutes

*** tstart() called on bp1-compute00133.data.bp.acrc.priv
*** at Fri Oct 29 08:32:18 2021


         ------------------------------------------------------------
                                   SCF GRAD                          
                          Rob Parrish, Justin Turney,                
                       Andy Simmonett, and Alex Sokolov              
         ------------------------------------------------------------

  ==> Geometry <==

    Molecular point group: c2v
    Full point group: C_inf_v

    Geometry (in Angstrom), charge = 0, multiplicity = 1:

       Center              X                  Y                   Z               Mass       
    ------------   -----------------  -----------------  -----------------  -----------------
         CU           0.000000000000     0.000000000000     0.420108399259    62.929597720000
         F            0.000000000000     0.000000000000    -1.391551297111    18.998403162730

  Nuclear repulsion =   76.236862950361683

  ==> Basis Set <==

  Basis Set: DEF2-TZVPPD
    Blend: DEF2-TZVPPD
    Number of shells: 33
    Number of basis function: 107
    Number of Cartesian functions: 129
    Spherical Harmonics?: true
    Max angular momentum: 4

  ==> DFJKGrad: Density-Fitted SCF Gradients <==

    Gradient:                    1
    J tasked:                  Yes
    K tasked:                  Yes
    wK tasked:                 Yes
    Omega:               2.500E-01
    OpenMP threads:             24
    Integrals threads:          24
    Memory [MiB]:           102996
    Schwarz Cutoff:          0E+00
    Fitting Condition:       1E-10

   => Auxiliary Basis Set <=

  Basis Set: (DEF2-TZVPPD AUX)
    Blend: DEF2-TZVPP-JKFIT
    Number of shells: 83
    Number of basis function: 341
    Number of Cartesian functions: 470
    Spherical Harmonics?: true
    Max angular momentum: 6

  ==> DFT Potential <==

   => Composite Functional: M11-D3BJ <= 

    M11 Meta-GGA XC Functional

    R. Peverati and D. G. Truhlar, J. Phys. Chem. Lett., 2, 2810, 2011


    Deriv               =              1
    GGA                 =           TRUE
    Meta                =           TRUE

    Exchange Hybrid     =           TRUE
    MP2 Hybrid          =          FALSE

   => Exchange Functionals <=

    1.0000   XC_HYB_MGGA_X_M11 [omega = 0.2500]

   => Exact (HF) Exchange <=

    0.5720            HF,LR [omega = 0.2500]
    0.4280               HF 

   => Correlation Functionals <=

    1.0000    XC_MGGA_C_M11

   => Molecular Quadrature <=

    Radial Scheme          =       TREUTLER
    Pruning Scheme         =           FLAT
    Nuclear Scheme         =       TREUTLER

    BS radius alpha        =              1
    Pruning alpha          =              1
    Radial Points          =             75
    Spherical Points       =            302
    Total Points           =          45300
    Total Blocks           =            429
    Max Points             =            255
    Max Functions          =            106


  -Total Gradient:
     Atom            X                  Y                   Z
    ------   -----------------  -----------------  -----------------
       1        0.000000000000    -0.000000000000    -0.000324833563
       2        0.000000000000     0.000000000000     0.000699126455


*** tstop() called on bp1-compute00133.data.bp.acrc.priv at Fri Oct 29 08:32:22 2021
Module time:
	user time   =      37.51 seconds =       0.63 minutes
	system time =       2.50 seconds =       0.04 minutes
	total time  =          4 seconds =       0.07 minutes
Total time:
	user time   =     362.05 seconds =       6.03 minutes
	system time =      20.36 seconds =       0.34 minutes
	total time  =         29 seconds =       0.48 minutes

			-----------------------------------------
			 OPTKING 2.0: for geometry optimizations 
			  - R.A. King,  Bethel University        
			-----------------------------------------
	At level 1: Red. Int., RFO, no backsteps, dynamic trust

	Previous internal coordinate definitions found.
	---Fragment 1 Geometry and Gradient---
	 CU          0.0000000000        0.0000000000        0.7938898176
	 F           0.0000000000        0.0000000000       -2.6296508411
	             0.0000000000       -0.0000000000       -0.0003248336
	             0.0000000000        0.0000000000        0.0006991265

	---Fragment 1 Intrafragment Coordinates---
	 - Coordinate -           - BOHR/RAD -       - ANG/DEG -
	 R(1,2)           =         3.423541	       1.811660

	Current energy   :     -1740.2224399044

	Energy change for the previous step:
		Projected    :         0.0000583309
		Actual       :        -0.0000286885

	Performing BFGS update.
	Previous computed or guess Hessian on step 1.
	Steps to be used in Hessian update: 3 2
	Taking RFO optimization step.
	Going to follow RFO solution 1.
	Using RFO vector 1.
	Norm of target step-size    0.00249
	Projected energy change by RFO approximation:         0.0000018202

	Back-transformation to cartesian coordinates...
	Successfully converged to displaced geometry.

	--- Internal Coordinate Step in ANG or DEG, aJ/ANG or AJ/DEG ---
	 ---------------------------------------------------------------------------
	   Coordinate                Previous        Force       Change         New 
	   ----------                --------       ------       ------       ------
	    1 R(1,2)          =      1.811660     0.004218     0.001316     1.812976
	 ---------------------------------------------------------------------------
	Successfully symmetrized geometry.

  ==> Convergence Check <==

  Measures of convergence in internal coordinates in au.
  Criteria marked as inactive (o), active & met (*), and active & unmet ( ).
  ---------------------------------------------------------------------------------------------
   Step     Total Energy     Delta E     MAX Force     RMS Force      MAX Disp      RMS Disp   
  ---------------------------------------------------------------------------------------------
    Convergence Criteria    1.00e-06 *    3.00e-04 *             o    1.20e-03 *             o
  ---------------------------------------------------------------------------------------------
      4   -1740.22243990   -2.87e-05      5.12e-04      5.12e-04 o    2.49e-03      2.49e-03 o  ~
  ---------------------------------------------------------------------------------------------

	Writing optimization data to binary file.
	Structure for next step:
	Cartesian Geometry (in Angstrom)
	   CU     0.0000000000   0.0000000000   0.4207665508
	    F     0.0000000000   0.0000000000  -1.3922094449
			--------------------------
			 OPTKING Finished Execution 
			--------------------------

    Structure for next step:
    Molecular point group: c2v
    Full point group: C_inf_v

    Geometry (in Angstrom), charge = 0, multiplicity = 1:

    CU           0.000000000000     0.000000000000     0.420413639476
    F            0.000000000000     0.000000000000    -1.392562363355

gradient() will perform analytic gradient computation.

*** tstart() called on bp1-compute00133.data.bp.acrc.priv
*** at Fri Oct 29 08:32:22 2021

   => Loading Basis Set <=

    Name: DEF2-TZVPPD
    Role: ORBITAL
    Keyword: BASIS
    atoms 1 entry CU         line  1290 file /work/zw18965/.conda/envs/p4env/share/psi4/basis/def2-tzvppd.gbs 
    atoms 2 entry F          line   257 file /work/zw18965/.conda/envs/p4env/share/psi4/basis/def2-tzvppd.gbs 


         ---------------------------------------------------------
                                   SCF
               by Justin Turney, Rob Parrish, Andy Simmonett
                          and Daniel G. A. Smith
                              RKS Reference
                       24 Threads, 137329 MiB Core
         ---------------------------------------------------------

  ==> Geometry <==

    Molecular point group: c2v
    Full point group: C_inf_v

    Geometry (in Angstrom), charge = 0, multiplicity = 1:

       Center              X                  Y                   Z               Mass       
    ------------   -----------------  -----------------  -----------------  -----------------
         CU           0.000000000000     0.000000000000     0.420413639476    62.929597720000
         F            0.000000000000     0.000000000000    -1.392562363355    18.998403162730

  Running in c2v symmetry.

  Rotational constants: A = ************  B =      0.35146  C =      0.35146 [cm^-1]
  Rotational constants: A = ************  B =  10536.42768  C =  10536.42768 [MHz]
  Nuclear repulsion =   76.181511376434528

  Charge       = 0
  Multiplicity = 1
  Electrons    = 38
  Nalpha       = 19
  Nbeta        = 19

  ==> Algorithm <==

  SCF Algorithm Type is DF.
  DIIS enabled.
  MOM disabled.
  Fractional occupation disabled.
  Guess Type is READ.
  Energy threshold   = 1.00e-08
  Density threshold  = 1.00e-08
  Integral threshold = 0.00e+00

  ==> Primary Basis <==

  Basis Set: DEF2-TZVPPD
    Blend: DEF2-TZVPPD
    Number of shells: 33
    Number of basis function: 107
    Number of Cartesian functions: 129
    Spherical Harmonics?: true
    Max angular momentum: 4

  ==> DFT Potential <==

   => Composite Functional: M11-D3BJ <= 

    M11 Meta-GGA XC Functional

    R. Peverati and D. G. Truhlar, J. Phys. Chem. Lett., 2, 2810, 2011


    Deriv               =              1
    GGA                 =           TRUE
    Meta                =           TRUE

    Exchange Hybrid     =           TRUE
    MP2 Hybrid          =          FALSE

   => Exchange Functionals <=

    1.0000   XC_HYB_MGGA_X_M11 [omega = 0.2500]

   => Exact (HF) Exchange <=

    0.5720            HF,LR [omega = 0.2500]
    0.4280               HF 

   => Correlation Functionals <=

    1.0000    XC_MGGA_C_M11

   => Molecular Quadrature <=

    Radial Scheme          =       TREUTLER
    Pruning Scheme         =           FLAT
    Nuclear Scheme         =       TREUTLER

    BS radius alpha        =              1
    Pruning alpha          =              1
    Radial Points          =             75
    Spherical Points       =            302
    Total Points           =          45300
    Total Blocks           =            429
    Max Points             =            255
    Max Functions          =            106

   => M11-D3(BJ): Empirical Dispersion <=

    Grimme's -D3 (BJ-damping) Dispersion Correction
    Grimme S.; Ehrlich S.; Goerigk L. (2011), J. Comput. Chem., 32: 1456
    Parametrisation from:    L. Goerigk, J. Phys. Chem. Lett. 6, 3891-3896, 2015

        s6 =       1.000000
        s8 =       2.811200
        a1 =       0.000000
        a2 =      10.138900

   => Loading Basis Set <=

    Name: (DEF2-TZVPPD AUX)
    Role: JKFIT
    Keyword: DF_BASIS_SCF
    atoms 1 entry CU         line  2361 file /work/zw18965/.conda/envs/p4env/share/psi4/basis/def2-tzvpp-jkfit.gbs 
    atoms 2 entry F          line   383 file /work/zw18965/.conda/envs/p4env/share/psi4/basis/def2-tzvpp-jkfit.gbs 

   => Loading Basis Set <=

    Name: DEF2-TZVPPD
    Role: ORBITAL
    Keyword: BASIS
    atoms 1 entry CU         line  1290 file /work/zw18965/.conda/envs/p4env/share/psi4/basis/def2-tzvppd.gbs 
    atoms 2 entry F          line   257 file /work/zw18965/.conda/envs/p4env/share/psi4/basis/def2-tzvppd.gbs 

  Reading orbitals from file 180, no projection.

  ==> Pre-Iterations <==

   -------------------------------------------------------
    Irrep   Nso     Nmo     Nalpha   Nbeta   Ndocc  Nsocc
   -------------------------------------------------------
     A1        45      45       0       0       0       0
     A2        12      12       0       0       0       0
     B1        25      25       0       0       0       0
     B2        25      25       0       0       0       0
   -------------------------------------------------------
    Total     107     107      19      19      19       0
   -------------------------------------------------------

  ==> Integral Setup <==

  ==> DiskDFJK: Density-Fitted J/K Matrices <==

    J tasked:                  Yes
    K tasked:                  Yes
    wK tasked:                 Yes
    Omega:               2.500E-01
    OpenMP threads:             24
    Integrals threads:          24
    Memory [MiB]:           102713
    Algorithm:                Core
    Integral Cache:           NONE
[...]
    Spherical Harmonics?: true
    Max angular momentum: 4

  ==> DFT Potential <==

   => Composite Functional: M11-D3BJ <= 

    M11 Meta-GGA XC Functional

    R. Peverati and D. G. Truhlar, J. Phys. Chem. Lett., 2, 2810, 2011


    Deriv               =              1
    GGA                 =           TRUE
    Meta                =           TRUE

    Exchange Hybrid     =           TRUE
    MP2 Hybrid          =          FALSE

   => Exchange Functionals <=

    1.0000   XC_HYB_MGGA_X_M11 [omega = 0.2500]

   => Exact (HF) Exchange <=

    0.5720            HF,LR [omega = 0.2500]
    0.4280               HF 

   => Correlation Functionals <=

    1.0000    XC_MGGA_C_M11

   => Molecular Quadrature <=

    Radial Scheme          =       TREUTLER
    Pruning Scheme         =           FLAT
    Nuclear Scheme         =       TREUTLER

    BS radius alpha        =              1
    Pruning alpha          =              1
    Radial Points          =             75
    Spherical Points       =            302
    Total Points           =          45300
    Total Blocks           =            429
    Max Points             =            255
    Max Functions          =            106

   => M11-D3(BJ): Empirical Dispersion <=

    Grimme's -D3 (BJ-damping) Dispersion Correction
    Grimme S.; Ehrlich S.; Goerigk L. (2011), J. Comput. Chem., 32: 1456
    Parametrisation from:    L. Goerigk, J. Phys. Chem. Lett. 6, 3891-3896, 2015

        s6 =       1.000000
        s8 =       2.811200
        a1 =       0.000000
        a2 =      10.138900

   => Loading Basis Set <=

    Name: (DEF2-TZVPPD AUX)
    Role: JKFIT
    Keyword: DF_BASIS_SCF
    atoms 1 entry CU         line  2361 file /work/zw18965/.conda/envs/p4env/share/psi4/basis/def2-tzvpp-jkfit.gbs 
    atoms 2 entry F          line   383 file /work/zw18965/.conda/envs/p4env/share/psi4/basis/def2-tzvpp-jkfit.gbs 

  ==> Pre-Iterations <==

   -------------------------------------------------------
    Irrep   Nso     Nmo     Nalpha   Nbeta   Ndocc  Nsocc
   -------------------------------------------------------
     A1        45      45       0       0       0       0
     A2        12      12       0       0       0       0
     B1        25      25       0       0       0       0
     B2        25      25       0       0       0       0
   -------------------------------------------------------
    Total     107     107      19      19      19       0
   -------------------------------------------------------

  ==> Integral Setup <==

  ==> DiskDFJK: Density-Fitted J/K Matrices <==

    J tasked:                  Yes
    K tasked:                  Yes
    wK tasked:                 Yes
    Omega:               2.500E-01
    OpenMP threads:             24
    Integrals threads:          24
    Memory [MiB]:           102713
    Algorithm:                Core
    Integral Cache:           NONE
    Schwarz Cutoff:          1E-12
    Fitting Condition:       1E-10

   => Auxiliary Basis Set <=

  Basis Set: (DEF2-TZVPPD AUX)
    Blend: DEF2-TZVPP-JKFIT
    Number of shells: 83
    Number of basis function: 341
    Number of Cartesian functions: 470
    Spherical Harmonics?: true
    Max angular momentum: 6

  Cached 100.0% of DFT collocation blocks in 0.277 [GiB].

  Minimum eigenvalue in the overlap matrix is 2.6832475988E-03.
  Using Symmetric Orthogonalization.

  SCF Guess: Superposition of Atomic Densities via on-the-fly atomic UHF.

  ==> Iterations <==

                           Total Energy        Delta E     RMS |[F,P]|

   @DF-RKS iter SAD: -1736.96158488079277   -1.73696e+03   0.00000e+00 
    Occupation by irrep:
             A1    A2    B1    B2 
    DOCC [    11,    0,    4,    4 ]

   @DF-RKS iter   1: -1737.57963267319656   -6.18048e-01   6.95211e-02 DIIS
    Occupation by irrep:
             A1    A2    B1    B2 
    DOCC [    10,    1,    4,    4 ]

   @DF-RKS iter   2: -1699.09364255288415    3.84860e+01   1.44723e-01 DIIS
   @DF-RKS iter   3: -1738.58928376271888   -3.94956e+01   4.81955e-02 DIIS
   @DF-RKS iter   4: -1739.63309540140835   -1.04381e+00   2.74682e-02 DIIS
   @DF-RKS iter   5: -1740.17943161127323   -5.46336e-01   8.61335e-03 DIIS
   @DF-RKS iter   6: -1740.21609052643862   -3.66589e-02   3.24400e-03 DIIS
   @DF-RKS iter   7: -1740.22209658533370   -6.00606e-03   3.90417e-04 DIIS
   @DF-RKS iter   8: -1740.22239491196365   -2.98327e-04   2.11392e-04 DIIS
   @DF-RKS iter   9: -1740.22243732179004   -4.24098e-05   2.30962e-05 DIIS
   @DF-RKS iter  10: -1740.22244075040226   -3.42861e-06   1.31543e-05 DIIS
   @DF-RKS iter  11: -1740.22244108982704   -3.39425e-07   2.34966e-06 DIIS
   @DF-RKS iter  12: -1740.22244116159459   -7.17675e-08   1.75990e-06 DIIS
   @DF-RKS iter  13: -1740.22244118277149   -2.11769e-08   6.04644e-07 DIIS
   @DF-RKS iter  14: -1740.22244118649110   -3.71961e-09   1.56698e-07 DIIS
   @DF-RKS iter  15: -1740.22244118671233   -2.21235e-10   4.24024e-08 DIIS
   @DF-RKS iter  16: -1740.22244118671847   -6.13909e-12   6.09166e-09 DIIS
  Energy and wave function converged.


  ==> Post-Iterations <==

    Orbital Energies [Eh]
    ---------------------

    Doubly Occupied:                                                      

       1A1  -323.957395     2A1   -39.082302     1B1   -34.347923  
       1B2   -34.347923     3A1   -34.346191     4A1   -24.890038  
       5A1    -4.442023     2B1    -2.963842     2B2    -2.963842  
       6A1    -2.962118     7A1    -1.149014     8A1    -0.490399  
       3B1    -0.467137     3B2    -0.467137     1A2    -0.440633  
       9A1    -0.440619     4B1    -0.397922     4B2    -0.397922  
      10A1    -0.387111  

    Virtual:                                                              

      11A1    -0.060288     5B1     0.005050     5B2     0.005050  
      12A1     0.035914    13A1     0.087293    14A1     0.151544  
       6B1     0.166205     6B2     0.166205     7B1     0.173822  
       7B2     0.173822     2A2     0.201259    15A1     0.201260  
      16A1     0.216635     8B1     0.265993     8B2     0.265993  
      17A1     0.322272    18A1     0.428181    19A1     0.642417  
       3A2     0.642432     9B2     0.695219     9B1     0.695219  
      20A1     0.711834    21A1     0.782553    10B2     0.790116  
      10B1     0.790116    11B1     0.889433    11B2     0.889433  
       4A2     0.953089    22A1     0.953099    12B2     1.114421  
      12B1     1.114421    23A1     1.120689    24A1     1.180933  
      25A1     1.416621    26A1     2.458024     5A2     2.458187  
      27A1     2.466647    13B2     2.493774    13B1     2.493774  
      14B2     3.058561    14B1     3.058561    28A1     3.143724  
      29A1     3.237549    15B1     3.472083    15B2     3.472083  
      30A1     3.490552    16B2     3.521609    16B1     3.521609  
       6A2     3.527426    31A1     3.527480    17B1     3.588618  
      17B2     3.588618    32A1     3.750972     7A2     3.750997  
      18B2     3.826680    18B1     3.826680    33A1     3.962347  
      34A1     4.040472    35A1     4.290661     8A2     6.948731  
      36A1     6.949174    19B1     6.961102    19B2     6.961102  
      20B2     6.979284    20B1     6.979284    37A1     7.050979  
      38A1     8.479545     9A2     8.479716    21B2     8.523464  
      21B1     8.523464    39A1     8.689073    40A1    12.958104  
      10A2    12.958384    41A1    12.958393    22B1    12.958655  
      22B2    12.958655    11A2    12.958769    23B1    12.960056  
      23B2    12.960056    42A1    12.967614    24B1    13.166900  
      24B2    13.166900    12A2    13.173568    43A1    13.173571  
      25B2    13.202118    25B1    13.202118    44A1    13.341003  
      45A1    56.719422  

    Final Occupation by Irrep:
             A1    A2    B1    B2 
    DOCC [    10,    1,    4,    4 ]

  @DF-RKS Final Energy: -1740.22244118671847

   => Energetics <=

    Nuclear Repulsion Energy =             76.1524180800747246
    One-Electron Energy =               -2579.3635861145617127
    Two-Electron Energy =                 805.1145040245609152
    DFT Exchange-Correlation Energy =     -42.1257220967923587
    Empirical Dispersion Energy =          -0.0000550800000000
    VV10 Nonlocal Energy =                  0.0000000000000000
    Total Energy =                      -1740.2224411867182425

Computation Completed


Properties will be evaluated at   0.000000,   0.000000,   0.000000 [a0]

Properties computed using the SCF density matrix

  Nuclear Dipole Moment: [e a0]
     X:     0.0000      Y:     0.0000      Z:    -0.6448

  Electronic Dipole Moment: [e a0]
     X:     0.0000      Y:     0.0000      Z:     3.0310

  Dipole Moment: [e a0]
     X:     0.0000      Y:     0.0000      Z:     2.3862     Total:     2.3862

  Dipole Moment: [D]
     X:     0.0000      Y:     0.0000      Z:     6.0652     Total:     6.0652


*** tstop() called on bp1-compute00133.data.bp.acrc.priv at Fri Oct 29 08:32:56 2021
Module time:
	user time   =      64.45 seconds =       1.07 minutes
	system time =       2.51 seconds =       0.04 minutes
	total time  =          4 seconds =       0.07 minutes
Total time:
	user time   =     826.00 seconds =      13.77 minutes
	system time =      42.88 seconds =       0.71 minutes
	total time  =         63 seconds =       1.05 minutes

*** tstart() called on bp1-compute00133.data.bp.acrc.priv
*** at Fri Oct 29 08:32:56 2021


         ------------------------------------------------------------
                                   SCF GRAD                          
                          Rob Parrish, Justin Turney,                
                       Andy Simmonett, and Alex Sokolov              
         ------------------------------------------------------------

  ==> Geometry <==

    Molecular point group: c2v
    Full point group: C_inf_v

    Geometry (in Angstrom), charge = 0, multiplicity = 1:

       Center              X                  Y                   Z               Mass       
    ------------   -----------------  -----------------  -----------------  -----------------
         CU           0.000000000000     0.000000000000     0.420574254450    62.929597720000
         F            0.000000000000     0.000000000000    -1.393094378365    18.998403162730

  Nuclear repulsion =   76.152418080074725

  ==> Basis Set <==

  Basis Set: DEF2-TZVPPD
    Blend: DEF2-TZVPPD
    Number of shells: 33
    Number of basis function: 107
    Number of Cartesian functions: 129
    Spherical Harmonics?: true
    Max angular momentum: 4

  ==> DFJKGrad: Density-Fitted SCF Gradients <==

    Gradient:                    1
    J tasked:                  Yes
    K tasked:                  Yes
    wK tasked:                 Yes
    Omega:               2.500E-01
    OpenMP threads:             24
    Integrals threads:          24
    Memory [MiB]:           102996
    Schwarz Cutoff:          0E+00
    Fitting Condition:       1E-10

   => Auxiliary Basis Set <=

  Basis Set: (DEF2-TZVPPD AUX)
    Blend: DEF2-TZVPP-JKFIT
    Number of shells: 83
    Number of basis function: 341
    Number of Cartesian functions: 470
    Spherical Harmonics?: true
    Max angular momentum: 6

  ==> DFT Potential <==

   => Composite Functional: M11-D3BJ <= 

    M11 Meta-GGA XC Functional

    R. Peverati and D. G. Truhlar, J. Phys. Chem. Lett., 2, 2810, 2011


    Deriv               =              1
    GGA                 =           TRUE
    Meta                =           TRUE

    Exchange Hybrid     =           TRUE
    MP2 Hybrid          =          FALSE

   => Exchange Functionals <=

    1.0000   XC_HYB_MGGA_X_M11 [omega = 0.2500]

   => Exact (HF) Exchange <=

    0.5720            HF,LR [omega = 0.2500]
    0.4280               HF 

   => Correlation Functionals <=

    1.0000    XC_MGGA_C_M11

   => Molecular Quadrature <=

    Radial Scheme          =       TREUTLER
    Pruning Scheme         =           FLAT
    Nuclear Scheme         =       TREUTLER

    BS radius alpha        =              1
    Pruning alpha          =              1
    Radial Points          =             75
    Spherical Points       =            302
    Total Points           =          45300
    Total Blocks           =            429
    Max Points             =            255
    Max Functions          =            106


  -Total Gradient:
     Atom            X                  Y                   Z
    ------   -----------------  -----------------  -----------------
       1       -0.000000000000     0.000000000000     0.000353931825
       2        0.000000000000     0.000000000000     0.000021079114


*** tstop() called on bp1-compute00133.data.bp.acrc.priv at Fri Oct 29 08:33:00 2021
Module time:
	user time   =      37.56 seconds =       0.63 minutes
	system time =       2.56 seconds =       0.04 minutes
	total time  =          4 seconds =       0.07 minutes
Total time:
	user time   =     865.19 seconds =      14.42 minutes
	system time =      45.55 seconds =       0.76 minutes
	total time  =         67 seconds =       1.12 minutes

         ----------------------------------------------------------
                                   FINDIF
                     R. A. King and Jonathon Misiewicz
         ---------------------------------------------------------

  Computing second-derivative from gradients using projected, 
  symmetry-adapted, cartesian coordinates.

  3 gradients passed in, including the reference geometry.
  Generating complete list of displacements from unique ones.


-------------------------------------------------------------


  ==> Harmonic Vibrational Analysis <==

  non-mass-weighted Hessian:       Symmetric? True   Hermitian? True   Lin Dep Dim?  5 (0)
  projection of translations (True) and rotations (True) removed 5 degrees of freedom (5)
  total projector:                 Symmetric? True   Hermitian? True   Lin Dep Dim?  5 (5)
  mass-weighted Hessian:           Symmetric? True   Hermitian? True   Lin Dep Dim?  5 (0)
  pre-proj  low-frequency mode:    0.0000  [cm^-1]
  pre-proj  low-frequency mode:    0.0000  [cm^-1]
  pre-proj  low-frequency mode:    0.0000  [cm^-1]
  pre-proj  low-frequency mode:    0.0000  [cm^-1]
  pre-proj  low-frequency mode:    0.0000  [cm^-1]
  pre-proj  all modes:['0.0000' '0.0000' '0.0000' '0.0000' '0.0000' '568.3149']
  projected mass-weighted Hessian: Symmetric? True   Hermitian? True   Lin Dep Dim?  5 (5)
  post-proj low-frequency mode:    0.0000  [cm^-1] (TR)
  post-proj low-frequency mode:    0.0000  [cm^-1] (TR)
  post-proj low-frequency mode:    0.0000  [cm^-1] (TR)
  post-proj low-frequency mode:    0.0000  [cm^-1] (TR)
  post-proj low-frequency mode:    0.0000  [cm^-1] (TR)
  post-proj  all modes:['0.0000' '0.0000' '0.0000' '0.0000' '0.0000' '568.3149']

  Vibration                       6           
  Freq [cm^-1]                 568.3149       
  Irrep                           A1          
  Reduced mass [u]             22.6680        
  Force const [mDyne/A]         4.3136        
  Turning point v=0 [a0]        0.0967        
  RMS dev v=0 [a0 u^1/2]        0.3255        
  Char temp [K]                817.6786       
  ----------------------------------------------------------------------------------
      1   CU               0.00  0.00 -0.29   
      2   F                0.00  0.00  0.96   

  ==> Thermochemistry Components <==

  Entropy, S
    Electronic S            0.000 [cal/(mol K)]        0.000 [J/(mol K)]       0.00000000 [mEh/K] (multiplicity = 1)
    Translational S        39.124 [cal/(mol K)]      163.694 [J/(mol K)]       0.06234779 [mEh/K] (mol. weight = 81.9280 [u], P = 101325.00 [Pa])
    Rotational S           14.665 [cal/(mol K)]       61.356 [J/(mol K)]       0.02336938 [mEh/K] (symmetry no. = 1)
    Vibrational S           0.507 [cal/(mol K)]        2.123 [J/(mol K)]       0.00080873 [mEh/K]
  Total S                  54.296 [cal/(mol K)]      227.174 [J/(mol K)]       0.08652591 [mEh/K]
  Correction S              0.000 [cal/(mol K)]        0.000 [J/(mol K)]       0.00000000 [mEh/K]

  Constant volume heat capacity, Cv
    Electronic Cv           0.000 [cal/(mol K)]        0.000 [J/(mol K)]       0.00000000 [mEh/K]
    Translational Cv        2.981 [cal/(mol K)]       12.472 [J/(mol K)]       0.00475022 [mEh/K]
    Rotational Cv           1.987 [cal/(mol K)]        8.314 [J/(mol K)]       0.00316681 [mEh/K]
    Vibrational Cv          1.100 [cal/(mol K)]        4.602 [J/(mol K)]       0.00175263 [mEh/K]
  Total Cv                  6.068 [cal/(mol K)]       25.388 [J/(mol K)]       0.00966965 [mEh/K]
  Correction Cv             0.000 [cal/(mol K)]        0.000 [J/(mol K)]       0.00000000 [mEh/K]

  Constant pressure heat capacity, Cp
    Electronic Cp           0.000 [cal/(mol K)]        0.000 [J/(mol K)]       0.00000000 [mEh/K]
    Translational Cp        4.968 [cal/(mol K)]       20.786 [J/(mol K)]       0.00791703 [mEh/K]
    Rotational Cp           1.987 [cal/(mol K)]        8.314 [J/(mol K)]       0.00316681 [mEh/K]
    Vibrational Cp          1.100 [cal/(mol K)]        4.602 [J/(mol K)]       0.00175263 [mEh/K]
  Total Cp                  8.055 [cal/(mol K)]       33.702 [J/(mol K)]       0.01283646 [mEh/K]
  Correction Cp             0.000 [cal/(mol K)]        0.000 [J/(mol K)]       0.00000000 [mEh/K]

  ==> Thermochemistry Energy Analysis <==

  Raw electronic energy, E0
  Total E0, Electronic energy at well bottom at 0 [K]                -1740.22244104 [Eh]

  Zero-point energy, ZPE_vib = Sum_i nu_i / 2
    Electronic ZPE          0.000 [kcal/mol]        0.000 [kJ/mol]       0.00000000 [Eh]
    Translational ZPE       0.000 [kcal/mol]        0.000 [kJ/mol]       0.00000000 [Eh]
    Rotational ZPE          0.000 [kcal/mol]        0.000 [kJ/mol]       0.00000000 [Eh]
    Vibrational ZPE         0.812 [kcal/mol]        3.399 [kJ/mol]       0.00129472 [Eh]         284.157 [cm^-1]
  Correction ZPE            0.812 [kcal/mol]        3.399 [kJ/mol]       0.00129472 [Eh]         284.157 [cm^-1]
  Total ZPE, Electronic energy at 0 [K]                              -1740.22114632 [Eh]

  Thermal Energy, E (includes ZPE)
    Electronic E            0.000 [kcal/mol]        0.000 [kJ/mol]       0.00000000 [Eh]
    Translational E         0.889 [kcal/mol]        3.718 [kJ/mol]       0.00141628 [Eh]
    Rotational E            0.592 [kcal/mol]        2.479 [kJ/mol]       0.00094418 [Eh]
    Vibrational E           0.924 [kcal/mol]        3.867 [kJ/mol]       0.00147298 [Eh]
  Correction E              2.406 [kcal/mol]       10.065 [kJ/mol]       0.00383344 [Eh]
  Total E, Electronic energy at  298.15 [K]                          -1740.21860760 [Eh]

  Enthalpy, H_trans = E_trans + k_B * T
    Electronic H            0.000 [kcal/mol]        0.000 [kJ/mol]       0.00000000 [Eh]
    Translational H         1.481 [kcal/mol]        6.197 [kJ/mol]       0.00236046 [Eh]
    Rotational H            0.592 [kcal/mol]        2.479 [kJ/mol]       0.00094418 [Eh]
    Vibrational H           0.924 [kcal/mol]        3.867 [kJ/mol]       0.00147298 [Eh]
  Correction H              2.998 [kcal/mol]       12.544 [kJ/mol]       0.00477763 [Eh]
  Total H, Enthalpy at  298.15 [K]                                   -1740.21766341 [Eh]

  Gibbs free energy, G = H - T * S
    Electronic G            0.000 [kcal/mol]        0.000 [kJ/mol]       0.00000000 [Eh]
    Translational G       -10.184 [kcal/mol]      -42.608 [kJ/mol]      -0.01622853 [Eh]
    Rotational G           -3.780 [kcal/mol]      -15.814 [kJ/mol]      -0.00602340 [Eh]
    Vibrational G           0.773 [kcal/mol]        3.234 [kJ/mol]       0.00123186 [Eh]
  Correction G            -13.190 [kcal/mol]      -55.188 [kJ/mol]      -0.02102007 [Eh]
  Total G, Free enthalpy at  298.15 [K]                              -1740.24346111 [Eh]

    Psi4 stopped on: Friday, 29 October 2021 08:33AM
    Psi4 wall time for execution: 0:01:06.92

*** Psi4 exiting successfully. Buy a developer a beer!
