Optimizer: Optimization complete!
 6 displacements needed.
 1 2 3 4 5 6
Warning: used thermodynamics relations inappropriate for low-frequency modes: ['92.0385' '121.8020' '230.1137']
At level 1: Red. Int., RFO, no backsteps, dynamic trust
At level 1: Red. Int., RFO, no backsteps, dynamic trust
At level 1: Red. Int., RFO, no backsteps, dynamic trust
At level 1: Red. Int., RFO, no backsteps, dynamic trust
At level 1: Red. Int., RFO, no backsteps, dynamic trust
At level 1: Red. Int., RFO, no backsteps, dynamic trust
At level 1: Red. Int., RFO, no backsteps, dynamic trust
At level 1: Red. Int., RFO, no backsteps, dynamic trust
D. Crawford, and C. D. Sherrill,
    J. Chem. Theory Comput. 13(7) pp 3185--3197 (2017).
    (doi: 10.1021/acs.jctc.7b00174)


                         Additional Contributions by
    P. Kraus, H. Kruse, M. H. Lechner, M. C. Schieber, R. A. Shaw,
    A. Alenaizan, R. Galvelis, Z. L. Glick, S. Lehtola, and J. P. Misiewicz

    -----------------------------------------------------------------------


    Psi4 started on: Friday, 29 October 2021 08:33AM

    Process ID: 162674
    Host:       bp1-compute00133.data.bp.acrc.priv
    PSIDATADIR: /work/zw18965/.conda/envs/p4env/share/psi4
    Memory:     500.0 MiB
    Threads:    24
    
  ==> Input File <==

--------------------------------------------------------------------------
memory 144 GB

molecule {
0 2
Cu       0.000000    1.346828   -0.000000 
Cu       1.166387   -0.673414   -0.000000 
Cu      -1.166387   -0.673414   -0.000000 
 }

set reference uks
set dynamic_level 1
set basis Def2-TZVPPD

optimize("M11-D3BJ")
frequencies("M11-D3BJ")
--------------------------------------------------------------------------

  Memory set to 134.110 GiB by Python driver.
gradient() will perform analytic gradient computation.

*** tstart() called on bp1-compute00133.data.bp.acrc.priv
*** at Fri Oct 29 08:33:09 2021

   => Loading Basis Set <=

    Name: DEF2-TZVPPD
    Role: ORBITAL
    Keyword: BASIS
    atoms 1-3 entry CU         line  1290 file /work/zw18965/.conda/envs/p4env/share/psi4/basis/def2-tzvppd.gbs 


         ---------------------------------------------------------
                                   SCF
               by Justin Turney, Rob Parrish, Andy Simmonett
                          and Daniel G. A. Smith
                              UKS Reference
                       24 Threads, 137329 MiB Core
         ---------------------------------------------------------

  ==> Geometry <==

    Molecular point group: c2v
    Full point group: C2v

    Geometry (in Angstrom), charge = 0, multiplicity = 2:

       Center              X                  Y                   Z               Mass       
    ------------   -----------------  -----------------  -----------------  -----------------
         CU           0.000000000000    -0.000000000000     1.346828000000    62.929597720000
         CU           1.166387000000     0.000000000000    -0.673414000000    62.929597720000
         CU          -1.166387000000    -0.000000000000    -0.673414000000    62.929597720000

  Running in c2v symmetry.

  Rotational constants: A =      0.09845  B =      0.09845  C =      0.04923 [cm^-1]
  Rotational constants: A =   2951.52800  B =   2951.52667  C =   1475.76367 [MHz]
  Nuclear repulsion =  572.328889239998603

  Charge       = 0
  Multiplicity = 2
  Electrons    = 87
  Nalpha       = 44
  Nbeta        = 43

  ==> Algorithm <==

  SCF Algorithm Type is DF.
  DIIS enabled.
  MOM disabled.
  Fractional occupation disabled.
  Guess Type is SAD.
  Energy threshold   = 1.00e-08
  Density threshold  = 1.00e-08
  Integral threshold = 0.00e+00

  ==> Primary Basis <==

  Basis Set: DEF2-TZVPPD
    Blend: DEF2-TZVPPD
    Number of shells: 57
    Number of basis function: 201
    Number of Cartesian functions: 249
    Spherical Harmonics?: true
    Max angular momentum: 4

  ==> DFT Potential <==

   => Composite Functional: M11-D3BJ <= 

    M11 Meta-GGA XC Functional

    R. Peverati and D. G. Truhlar, J. Phys. Chem. Lett., 2, 2810, 2011


    Deriv               =              1
    GGA                 =           TRUE
    Meta                =           TRUE

    Exchange Hybrid     =           TRUE
    MP2 Hybrid          =          FALSE

   => Exchange Functionals <=

    1.0000   XC_HYB_MGGA_X_M11 [omega = 0.2500]

   => Exact (HF) Exchange <=

    0.5720            HF,LR [omega = 0.2500]
    0.4280               HF 

   => Correlation Functionals <=

    1.0000    XC_MGGA_C_M11

   => Molecular Quadrature <=

    Radial Scheme          =       TREUTLER
    Pruning Scheme         =           FLAT
    Nuclear Scheme         =       TREUTLER

    BS radius alpha        =              1
    Pruning alpha          =              1
    Radial Points          =             75
    Spherical Points       =            302
    Total Points           =          67950
    Total Blocks           =            595
    Max Points             =            254
    Max Functions          =            191

   => M11-D3(BJ): Empirical Dispersion <=

    Grimme's -D3 (BJ-damping) Dispersion Correction
    Grimme S.; Ehrlich S.; Goerigk L. (2011), J. Comput. Chem., 32: 1456
    Parametrisation from:    L. Goerigk, J. Phys. Chem. Lett. 6, 3891-3896, 2015

        s6 =       1.000000
        s8 =       2.811200
        a1 =       0.000000
        a2 =      10.138900

   => Loading Basis Set <=

    Name: (DEF2-TZVPPD AUX)
    Role: JKFIT
    Keyword: DF_BASIS_SCF
    atoms 1-3 entry CU         line  2361 file /work/zw18965/.conda/envs/p4env/share/psi4/basis/def2-tzvpp-jkfit.gbs 

  ==> Pre-Iterations <==

   -------------------------------------------------------
    Irrep   Nso     Nmo     Nalpha   Nbeta   Ndocc  Nsocc
   -------------------------------------------------------
     A1        70      70       0       0       0       0
     A2        32      32       0       0       0       0
     B1        59      59       0       0       0       0
     B2        40      40       0       0       0       0
   -------------------------------------------------------
    Total     201     201      44      43      43       1
   -------------------------------------------------------

  ==> Integral Setup <==

  ==> DiskDFJK: Density-Fitted J/K Matrices <==

    J tasked:                  Yes
    K tasked:                  Yes
    wK tasked:                 Yes
    Omega:               2.500E-01
    OpenMP threads:             24
    Integrals threads:          24
    Memory [MiB]:           102338
    Algorithm:                Core
    Integral Cache:           NONE
    Schwarz Cutoff:          1E-12
    Fitting Condition:       1E-10

   => Auxiliary Basis Set <=

  Basis Set: (DEF2-TZVPPD AUX)
    Blend: DEF2-TZVPP-JKFIT
    Number of shells: 174
    Number of basis function: 792
    Number of Cartesian functions: 1131
    Spherical Harmonics?: true
    Max angular momentum: 6

  Cached 100.0% of DFT collocation blocks in 0.643 [GiB].

  Minimum eigenvalue in the overlap matrix is 7.6310552917E-04.
  Using Symmetric Orthogonalization.

  SCF Guess: Superposition of Atomic Densities via on-the-fly atomic UHF.

  ==> Iterations <==

                           Total Energy        Delta E     RMS |[F,P]|

   @DF-UKS iter SAD: -4913.41376390508958   -4.91341e+03   0.00000e+00 
    Occupation by irrep:
             A1    A2    B1    B2 
    DOCC [    20,    3,   13,    6 ]
    SOCC [     0,    1,    1,    1 ]

   @DF-UKS iter   1: -4913.15416305613508    2.59601e-01   6.62636e-02 DIIS
    Occupation by irrep:
             A1    A2    B1    B2 
    DOCC [    18,    5,   13,    7 ]
    SOCC [     0,    0,    1,    0 ]

   @DF-UKS iter   2: -4777.14000658821624    1.36014e+02   1.45666e-01 DIIS
   @DF-UKS iter   3: -4917.59740390738625   -1.40457e+02   3.73371e-02 DIIS
   @DF-UKS iter   4: -4920.48063299329078   -2.88323e+00   1.49260e-02 DIIS
   @DF-UKS iter   5: -4920.91626427642041   -4.35631e-01   5.95517e-03 DIIS
   @DF-UKS iter   6: -4920.96900838871261   -5.27441e-02   3.03420e-03 DIIS
   @DF-UKS iter   7: -4920.98471773925485   -1.57094e-02   8.45129e-04 DIIS
   @DF-UKS iter   8: -4920.98702718046661   -2.30944e-03   1.07663e-04 DIIS
   @DF-UKS iter   9: -4920.98736580174955   -3.38621e-04   5.44766e-05 DIIS
   @DF-UKS iter  10: -4920.98749616229725   -1.30361e-04   2.50165e-05 DIIS
   @DF-UKS iter  11: -4920.98752269121906   -2.65289e-05   1.71654e-05 DIIS
   @DF-UKS iter  12: -4920.98753260559261   -9.91437e-06   6.74705e-06 DIIS
   @DF-UKS iter  13: -4920.98753715154453   -4.54595e-06   3.51013e-06 DIIS
   @DF-UKS iter  14: -4920.98753824498635   -1.09344e-06   1.59485e-06 DIIS
   @DF-UKS iter  15: -4920.98753849557943   -2.50593e-07   8.07428e-07 DIIS
   @DF-UKS iter  16: -4920.98753852970003   -3.41206e-08   3.14166e-07 DIIS
   @DF-UKS iter  17: -4920.98753853562630   -5.92627e-09   1.35289e-07 DIIS
   @DF-UKS iter  18: -4920.98753853609014   -4.63842e-10   6.29987e-08 DIIS
   @DF-UKS iter  19: -4920.98753853613744   -4.72937e-11   3.37535e-08 DIIS
   @DF-UKS iter  20: -4920.98753853615835   -2.09184e-11   1.74278e-08 DIIS
   @DF-UKS iter  21: -4920.98753853616290   -4.54747e-12   6.48184e-09 DIIS
  Energy and wave function converged.


  ==> Post-Iterations <==

   @Spin Contamination Metric:   2.355224472E-02
   @S^2 Expected:                7.500000000E-01
   @S^2 Observed:                7.735522447E-01
   @S   Expected:                5.000000000E-01
   @S   Observed:                5.000000000E-01

    Orbital Energies [Eh]
    ---------------------

    Alpha Occupied:                                                       

       1A1  -323.927116     1B1  -323.912353     2A1  -323.912348  
       3A1   -39.054261     2B1   -39.041900     4A1   -39.041842  
       5A1   -34.319226     3B1   -34.318872     1B2   -34.318766  
       4B1   -34.306334     6A1   -34.306325     5B1   -34.306216  
       7A1   -34.306200     1A2   -34.305139     2B2   -34.305131  
       8A1    -4.410069     9A1    -4.396772     6B1    -4.396369  
      10A1    -2.932598     7B1    -2.930196     3B2    -2.929672  
      11A1    -2.918545     8B1    -2.916794    12A1    -2.916712  
       9B1    -2.914655     4B2    -2.913850     2A2    -2.913579  
      13A1    -0.442397    10B1    -0.426471     5B2    -0.423928  
      14A1    -0.418980     3A2    -0.410201    15A1    -0.410016  
       6B2    -0.400933    16A1    -0.386693    17A1    -0.382983  
       7B2    -0.381213    11B1    -0.381092     4A2    -0.381050  
      12B1    -0.374164     5A2    -0.373146    13B1    -0.360263  
      18A1    -0.325035    14B1    -0.179886  

    Alpha Virtual:                                                        

      19A1    -0.024046     8B2     0.017479    20A1     0.022212  
      21A1     0.045678    15B1     0.051560    22A1     0.053213  
       9B2     0.056682    16B1     0.061596     6A2     0.075809  
      17B1     0.096306    23A1     0.132653    10B2     0.137153  
      24A1     0.161219    18B1     0.161654    25A1     0.175770  
       7A2     0.210489    11B2     0.211827    26A1     0.216765  
      19B1     0.227072    27A1     0.242607    20B1     0.256056  
      12B2     0.258831    28A1     0.264359     8A2     0.264735  
      21B1     0.273620    13B2     0.282783    29A1     0.323199  
      22B1     0.327253     9A2     0.343155    30A1     0.351623  
      31A1     0.372737    14B2     0.372828    23B1     0.376106  
      10A2     0.383516    24B1     0.488124    32A1     0.547957  
      25B1     0.551096    33A1     0.703107    15B2     0.710123  
      34A1     0.756730    26B1     0.758837    16B2     0.803142  
      11A2     0.813670    35A1     0.864574    27B1     0.874433  
      36A1     0.880547    17B2     0.901414    12A2     0.936040  
      18B2     0.940276    28B1     0.977769    37A1     1.017371  
      29B1     1.044413    38A1     1.048379    13A2     1.123735  
      39A1     1.147336    30B1     1.149249    19B2     1.186748  
      14A2     1.191567    40A1     1.375278    31B1     1.375919  
      32B1     1.385452    20B2     3.057040    41A1     3.134115  
      33B1     3.139222    42A1     3.148892    21B2     3.159530  
      15A2     3.170732    43A1     3.196805    34B1     3.203766  
      44A1     3.212880    35B1     3.318295    45A1     3.515218  
      46A1     3.522059    36B1     3.526436    22B2     3.541616  
      16A2     3.544445    23B2     3.556364    37B1     3.564661  
      24B2     3.565169    47A1     3.566339    38B1     3.573326  
      25B2     3.579795    48A1     3.580830    17A2     3.581491  
      39B1     3.583195    18A2     3.584223    26B2     3.584281  
      49A1     3.584727    40B1     3.586831    19A2     3.590891  
      50A1     3.608502    41B1     3.662421    51A1     3.715934  
      42B1     3.723286    20A2     3.814105    52A1     3.819760  
      27B2     3.822245    28B2     3.857312    53A1     3.864012  
      43B1     3.872140    21A2     3.885394    29B2     3.931462  
      22A2     3.943070    44B1     4.071531    54A1     4.076468  
      55A1     4.107580    45B1     4.116242    56A1     4.359237  
      46B1     4.363411    57A1    12.993428    30B2    12.994094  
      23A2    12.994642    31B2    12.994923    58A1    12.995655  
      47B1    12.995697    48B1    12.996020    59A1    12.996904  
      24A2    12.997105    60A1    13.010603    49B1    13.010992  
      50B1    13.011466    25A2    13.011580    32B2    13.011653  
      61A1    13.012104    26A2    13.012316    33B2    13.012419  
      62A1    13.012975    51B1    13.013274    27A2    13.013295  
      34B2    13.013444    52B1    13.013586    63A1    13.014051  
      35B2    13.014097    28A2    13.014098    64A1    13.014242  
      53B1    13.014338    36B2    13.203993    54B1    13.204731  
      29A2    13.206922    37B2    13.206997    65A1    13.208831  
      66A1    13.210074    55B1    13.213446    38B2    13.218264  
      30A2    13.219088    56B1    13.219461    67A1    13.219572  
      39B2    13.220395    31A2    13.224845    68A1    13.227284  
      69A1    13.228359    40B2    13.232902    57B1    13.234185  
      32A2    13.235370    58B1    13.305129    70A1    13.313025  
      59B1    13.315990  

    Beta Occupied:                                                        

       1A1  -323.927050     1B1  -323.911840     2A1  -323.911834  
       3A1   -39.054342     2B1   -39.041413     4A1   -39.041356  
       5A1   -34.319219     1B2   -34.318860     3B1   -34.318683  
       4B1   -34.306210     6A1   -34.306202     5B1   -34.306001  
       7A1   -34.305985     1A2   -34.305199     2B2   -34.305191  
       8A1    -4.410131     9A1    -4.394911     6B1    -4.394498  
      10A1    -2.932757     3B2    -2.929894     7B1    -2.929449  
      11A1    -2.918056     8B1    -2.915664    12A1    -2.915253  
       9B1    -2.913598     4B2    -2.913148     2A2    -2.912846  
      13A1    -0.442079    10B1    -0.424603     5B2    -0.424390  
      14A1    -0.417209     3A2    -0.409591    15A1    -0.407847  
       6B2    -0.400108    16A1    -0.386152    17A1    -0.382493  
       7B2    -0.380474     4A2    -0.380295    11B1    -0.379461  
       5A2    -0.371252    12B1    -0.371250    13B1    -0.356061  
      18A1    -0.310320  

    Beta Virtual:                                                         

      19A1    -0.036085    14B1    -0.034479    20A1    -0.006620  
       8B2     0.003194    15B1     0.020900    21A1     0.022735  
       6A2     0.027985     9B2     0.030374    16B1     0.032328  
      22A1     0.033201    17B1     0.041754    23A1     0.117202  
      10B2     0.126301    18B1     0.155418    24A1     0.158478  
      25A1     0.177850    26A1     0.205595    11B2     0.205778  
      19B1     0.208712     7A2     0.213011    27A1     0.241782  
      20B1     0.243450    12B2     0.253697     8A2     0.254520  
      28A1     0.255368    21B1     0.267588    13B2     0.276894  
      22B1     0.314921    29A1     0.315544     9A2     0.326560  
      30A1     0.339879    14B2     0.362609    23B1     0.364438  
      31A1     0.365283    10A2     0.371909    24B1     0.481705  
      32A1     0.541077    25B1     0.545327    33A1     0.698133  
      15B2     0.706607    26B1     0.757750    34A1     0.758298  
      16B2     0.801201    11A2     0.813364    35A1     0.863550  
      27B1     0.881251    36A1     0.885430    17B2     0.904141  
      12A2     0.937198    18B2     0.945173    28B1     0.978403  
      37A1     1.019358    29B1     1.048663    38A1     1.056117  
      13A2     1.127394    39A1     1.151447    30B1     1.158035  
      19B2     1.188283    14A2     1.198415    40A1     1.378328  
      31B1     1.381789    32B1     1.392583    20B2     3.057456  
      41A1     3.135637    33B1     3.141559    42A1     3.153143  
      21B2     3.159447    15A2     3.170635    43A1     3.196457  
      34B1     3.204173    44A1     3.211688    35B1     3.319890  
      45A1     3.516957    46A1     3.522702    36B1     3.530801  
      22B2     3.541283    16A2     3.544376    23B2     3.557152  
      37B1     3.565664    24B2     3.565965    47A1     3.567091  
      38B1     3.573491    25B2     3.581608    48A1     3.582406  
      17A2     3.583353    39B1     3.584934    18A2     3.585120  
      26B2     3.585196    49A1     3.586449    40B1     3.588651  
      19A2     3.591749    50A1     3.608644    41B1     3.663308  
      51A1     3.715841    42B1     3.723144    20A2     3.815056  
      52A1     3.821638    27B2     3.822954    28B2     3.855926  
      53A1     3.864456    43B1     3.873997    21A2     3.885897  
      29B2     3.930362    22A2     3.941822    44B1     4.074076  
      54A1     4.077227    55A1     4.105612    45B1     4.117712  
      56A1     4.357338    46B1     4.364354    57A1    12.993323  
      30B2    12.993941    23A2    12.994882    31B2    12.994992  
      58A1    12.995765    47B1    12.995886    48B1    12.996138  
      59A1    12.996382    24A2    12.996409    60A1    13.011275  
      49B1    13.011791    25A2    13.011939    50B1    13.011961  
      32B2    13.012092    26A2    13.012323    61A1    13.012465  
      33B2    13.012691    51B1    13.012808    34B2    13.013225  
      27A2    13.013237    62A1    13.013440    52B1    13.013601  
      35B2    13.014166    63A1    13.014188    28A2    13.014353  
      64A1    13.014455    53B1    13.015387    36B2    13.203715  
      54B1    13.204593    37B2    13.206705    29A2    13.207080  
      65A1    13.208468    66A1    13.210350    55B1    13.212847  
      38B2    13.218192    39B2    13.219008    30A2    13.219012  
      67A1    13.219251    56B1    13.219570    31A2    13.224348  
      68A1    13.226139    69A1    13.228215    40B2    13.232276  
      57B1    13.233635    32A2    13.234007    58B1    13.304971  
      70A1    13.312325    59B1    13.315277  

    Final Occupation by Irrep:
             A1    A2    B1    B2 
    DOCC [    18,    5,   13,    7 ]
    SOCC [     0,    0,    1,    0 ]

  @DF-UKS Final Energy: -4920.98753853616290

   => Energetics <=

    Nuclear Repulsion Energy =            572.3288892399986025
    One-Electron Energy =               -8006.6074213780875652
    Two-Electron Energy =                2623.2467968378073238
    DFT Exchange-Correlation Energy =    -109.9542416958810946
    Empirical Dispersion Energy =          -0.0015615400000000
    VV10 Nonlocal Energy =                  0.0000000000000000
    Total Energy =                      -4920.9875385361619919

  UHF NO Occupations:
  HONO-2 :   13 B1 1.9994585
  HONO-1 :   18 A1 1.9897032
  HONO-0 :   14 B1 1.0000000
  LUNO+0 :   19 A1 0.0102968
  LUNO+1 :   15 B1 0.0005415
  LUNO+2 :   20 A1 0.0003437
  LUNO+3 :    6 A2 0.0002113


Computation Completed


Properties will be evaluated at   0.000000,   0.000000,   0.000000 [a0]

Properties computed using the SCF density matrix

  Nuclear Dipole Moment: [e a0]
     X:    -0.0000      Y:    -0.0000      Z:     0.0000

  Electronic Dipole Moment: [e a0]
     X:     0.0000      Y:     0.0000      Z:     0.1803

  Dipole Moment: [e a0]
     X:    -0.0000      Y:    -0.0000      Z:     0.1803     Total:     0.1803

  Dipole Moment: [D]
     X:    -0.0000      Y:    -0.0000      Z:     0.4584     Total:     0.4584


*** tstop() called on bp1-compute00133.data.bp.acrc.priv at Fri Oct 29 08:33:37 2021
Module time:
	user time   =     624.23 seconds =      10.40 minutes
	system time =      28.16 seconds =       0.47 minutes
	total time  =         28 seconds =       0.47 minutes
Total time:
	user time   =     624.23 seconds =      10.40 minutes
	system time =      28.16 seconds =       0.47 minutes
	total time  =         28 seconds =       0.47 minutes

*** tstart() called on bp1-compute00133.data.bp.acrc.priv
*** at Fri Oct 29 08:33:37 2021


         ------------------------------------------------------------
                                   SCF GRAD                          
                          Rob Parrish, Justin Turney,                
                       Andy Simmonett, and Alex Sokolov              
         ------------------------------------------------------------

  ==> Geometry <==

    Molecular point group: c2v
    Full point group: C2v

    Geometry (in Angstrom), charge = 0, multiplicity = 2:

       Center              X                  Y                   Z               Mass       
    ------------   -----------------  -----------------  -----------------  -----------------
         CU           0.000000000000    -0.000000000000     1.346828000000    62.929597720000
         CU           1.166387000000     0.000000000000    -0.673414000000    62.929597720000
         CU          -1.166387000000    -0.000000000000    -0.673414000000    62.929597720000

  Nuclear repulsion =  572.328889239998603

  ==> Basis Set <==

  Basis Set: DEF2-TZVPPD
    Blend: DEF2-TZVPPD
    Number of shells: 57
    Number of basis function: 201
    Number of Cartesian functions: 249
    Spherical Harmonics?: true
    Max angular momentum: 4

  ==> DFJKGrad: Density-Fitted SCF Gradients <==

    Gradient:                    1
    J tasked:                  Yes
    K tasked:                  Yes
    wK tasked:                 Yes
    Omega:               2.500E-01
    OpenMP threads:             24
    Integrals threads:          24
    Memory [MiB]:           102996
    Schwarz Cutoff:          0E+00
    Fitting Condition:       1E-10

   => Auxiliary Basis Set <=

  Basis Set: (DEF2-TZVPPD AUX)
    Blend: DEF2-TZVPP-JKFIT
    Number of shells: 174
    Number of basis function: 792
    Number of Cartesian functions: 1131
    Spherical Harmonics?: true
    Max angular momentum: 6

  ==> DFT Potential <==

   => Composite Functional: M11-D3BJ <= 

    M11 Meta-GGA XC Functional

    R. Peverati and D. G. Truhlar, J. Phys. Chem. Lett., 2, 2810, 2011


    Deriv               =              1
    GGA                 =           TRUE
    Meta                =           TRUE

    Exchange Hybrid     =           TRUE
    MP2 Hybrid          =          FALSE

   => Exchange Functionals <=

    1.0000   XC_HYB_MGGA_X_M11 [omega = 0.2500]

   => Exact (HF) Exchange <=

    0.5720            HF,LR [omega = 0.2500]
    0.4280               HF 

   => Correlation Functionals <=

    1.0000    XC_MGGA_C_M11

   => Molecular Quadrature <=

    Radial Scheme          =       TREUTLER
    Pruning Scheme         =           FLAT
    Nuclear Scheme         =       TREUTLER

    BS radius alpha        =              1
    Pruning alpha          =              1
    Radial Points          =             75
    Spherical Points       =            302
    Total Points           =          67950
    Total Blocks           =            595
    Max Points             =            254
    Max Functions          =            191


  -Total Gradient:
     Atom            X                  Y                   Z
    ------   -----------------  -----------------  -----------------
       1        0.000000000000     0.000000000000    -0.005733397228
       2       -0.021151536675    -0.000000000000     0.002890847159
       3        0.021151536675     0.000000000000     0.002890847159


*** tstop() called on bp1-compute00133.data.bp.acrc.priv at Fri Oct 29 08:33:45 2021
Module time:
	user time   =     112.75 seconds =       1.88 minutes
	system time =       5.17 seconds =       0.09 minutes
	total time  =          8 seconds =       0.13 minutes
Total time:
	user time   =     738.45 seconds =      12.31 minutes
	system time =      33.43 seconds =       0.56 minutes
	total time  =         36 seconds =       0.60 minutes

			-----------------------------------------
			 OPTKING 2.0: for geometry optimizations 
			  - R.A. King,  Bethel University        
			-----------------------------------------
	At level 1: Red. Int., RFO, no backsteps, dynamic trust

	Internal coordinates to be generated automatically.
	Detected frag 1 with atoms:  1 2 3
	---Fragment 1 Bond Connectivity---
	 1 : 2 3
	 2 : 1 3
	 3 : 1 2

	---Fragment 1 Geometry and Gradient---
	 CU          0.0000000000       -0.0000000000        2.5451360581
	 CU          2.2041519863        0.0000000000       -1.2725680290
	 CU         -2.2041519863       -0.0000000000       -1.2725680290
	             0.0000000000        0.0000000000       -0.0057333972
	            -0.0211515367       -0.0000000000        0.0028908472
	             0.0211515367        0.0000000000        0.0028908472

	Previous optimization step data not found.  Starting new optimization.

	---Fragment 1 Intrafragment Coordinates---
	 - Coordinate -           - BOHR/RAD -       - ANG/DEG -
	 R(1,2)           =         4.408305	       2.332774
	 R(1,3)           =         4.408305	       2.332774
	 R(2,3)           =         4.408304	       2.332774
	 B(1,2,3)         =         1.047198	      60.000006
	 B(1,3,2)         =         1.047198	      60.000006
	 B(2,1,3)         =         1.047197	      59.999989

	Current energy   :     -4920.9875385362

	Generating empirical Hessian (Schlegel '84) for each fragment.
	Taking RFO optimization step.
	Going to follow RFO solution 1.
	Using RFO vector 1.
	Norm of target step-size    0.13564
	Projected energy change by RFO approximation:        -0.0010025515

	Back-transformation to cartesian coordinates...
	Successfully converged to displaced geometry.

	--- Internal Coordinate Step in ANG or DEG, aJ/ANG or AJ/DEG ---
	 ---------------------------------------------------------------------------
	   Coordinate                Previous        Force       Change         New 
	   ----------                --------       ------       ------       ------
	    1 R(1,2)          =      2.332774     0.033288     0.017288     2.350062
	    2 R(1,3)          =      2.332774     0.033288     0.017288     2.350062
	    3 R(2,3)          =      2.332774     0.148709     0.065687     2.398461
	    4 B(1,2,3)        =     60.000006    -0.000140    -0.683636    59.316369
	    5 B(1,3,2)        =     60.000006    -0.000140    -0.683636    59.316369
	    6 B(2,1,3)        =     59.999989     0.000279     1.367273    61.367262
	 ---------------------------------------------------------------------------
	Successfully symmetrized geometry.

  ==> Convergence Check <==

  Measures of convergence in internal coordinates in au.
  Criteria marked as inactive (o), active & met (*), and active & unmet ( ).
  --------------------------------------------------------------------------------------------- ~
   Step     Total Energy     Delta E     MAX Force     RMS Force      MAX Disp      RMS Disp    ~
  --------------------------------------------------------------------------------------------- ~
    Convergence Criteria    1.00e-06 *    3.00e-04 *             o    1.20e-03 *             o  ~
  --------------------------------------------------------------------------------------------- ~
      1   -4920.98753854   -4.92e+03      1.80e-02      7.94e-03 o    1.24e-01      5.54e-02 o  ~
  ---------------------------------------------------------------------------------------------

	Writing optimization data to binary file.
	Structure for next step:
	Cartesian Geometry (in Angstrom)
	   CU     0.0000000000  -0.0000000000   1.3473660794
	   CU     1.1992303162   0.0000000000  -0.6736830397
	   CU    -1.1992303162  -0.0000000000  -0.6736830397
			--------------------------
			 OPTKING Finished Execution 
			--------------------------

    Structure for next step:
    Molecular point group: c2v
    Full point group: C2v

    Geometry (in Angstrom), charge = 0, multiplicity = 2:

    CU           0.000000000000     0.000000000000     1.347366084727
    CU           1.199230320899     0.000000000000    -0.673683042364
    CU          -1.199230320899    -0.000000000000    -0.673683042364

gradient() will perform analytic gradient computation.

*** tstart() called on bp1-compute00133.data.bp.acrc.priv
*** at Fri Oct 29 08:33:45 2021

   => Loading Basis Set <=

    Name: DEF2-TZVPPD
    Role: ORBITAL
    Keyword: BASIS
    atoms 1-3 entry CU         line  1290 file /work/zw18965/.conda/envs/p4env/share/psi4/basis/def2-tzvppd.gbs 


         ---------------------------------------------------------
                                   SCF
               by Justin Turney, Rob Parrish, Andy Simmonett
                          and Daniel G. A. Smith
                              UKS Reference
                       24 Threads, 137329 MiB Core
         ---------------------------------------------------------

  ==> Geometry <==

    Molecular point group: c2v
    Full point group: C2v

    Geometry (in Angstrom), charge = 0, multiplicity = 2:

       Center              X                  Y                   Z               Mass       
    ------------   -----------------  -----------------  -----------------  -----------------
         CU           0.000000000000     0.000000000000     1.347366084727    62.929597720000
         CU           1.199230320899     0.000000000000    -0.673683042364    62.929597720000
         CU          -1.199230320899    -0.000000000000    -0.673683042364    62.929597720000

  Running in c2v symmetry.

  Rotational constants: A =      0.09837  B =      0.09313  C =      0.04784 [cm^-1]
  Rotational constants: A =   2949.16969  B =   2792.07479  C =   1434.23649 [MHz]
  Nuclear repulsion =  564.297255612102504

  Charge       = 0
  Multiplicity = 2
  Electrons    = 87
  Nalpha       = 44
  Nbeta        = 43

  ==> Algorithm <==

  SCF Algorithm Type is DF.
  DIIS enabled.
  MOM disabled.
  Fractional occupation disabled.
  Guess Type is READ.
  Energy threshold   = 1.00e-08
  Density threshold  = 1.00e-08
  Integral threshold = 0.00e+00

  ==> Primary Basis <==

  Basis Set: DEF2-TZVPPD
    Blend: DEF2-TZVPPD
    Number of shells: 57
    Number of basis function: 201
    Number of Cartesian functions: 249
    Spherical Harmonics?: true
    Max angular momentum: 4

  ==> DFT Potential <==

   => Composite Functional: M11-D3BJ <= 

    M11 Meta-GGA XC Functional

    R. Peverati and D. G. Truhlar, J. Phys. Chem. Lett., 2, 2810, 2011


    Deriv               =              1
    GGA                 =           TRUE
    Meta                =           TRUE

    Exchange Hybrid     =           TRUE
    MP2 Hybrid          =          FALSE

   => Exchange Functionals <=

    1.0000   XC_HYB_MGGA_X_M11 [omega = 0.2500]

   => Exact (HF) Exchange <=

    0.5720            HF,LR [omega = 0.2500]
    0.4280               HF 

   => Correlation Functionals <=

    1.0000    XC_MGGA_C_M11

   => Molecular Quadrature <=

    Radial Scheme          =       TREUTLER
    Pruning Scheme         =           FLAT
    Nuclear Scheme         =       TREUTLER

    BS radius alpha        =              1
    Pruning alpha          =              1
    Radial Points          =             75
    Spherical Points       =            302
    Total Points           =          67950
    Total Blocks           =            596
    Max Points             =            256
    Max Functions          =            191

   => M11-D3(BJ): Empirical Dispersion <=

    Grimme's -D3 (BJ-damping) Dispersion Correction
    Grimme S.; Ehrlich S.; Goerigk L. (2011), J. Comput. Chem., 32: 1456
    Parametrisation from:    L. Goerigk, J. Phys. Chem. Lett. 6, 3891-3896, 2015

        s6 =       1.000000
        s8 =       2.811200
        a1 =       0.000000
        a2 =      10.138900

   => Loading Basis Set <=

    Name: (DEF2-TZVPPD AUX)
    Role: JKFIT
    Keyword: DF_BASIS_SCF
    atoms 1-3 entry CU         line  2361 file /work/zw18965/.conda/envs/p4env/share/psi4/basis/def2-tzvpp-jkfit.gbs 

   => Loading Basis Set <=

    Name: DEF2-TZVPPD
    Role: ORBITAL
    Keyword: BASIS
    atoms 1-3 entry CU         line  1290 file /work/zw18965/.conda/envs/p4env/share/psi4/basis/def2-tzvppd.gbs 

  Reading orbitals from file 180, no projection.

  ==> Pre-Iterations <==

   -------------------------------------------------------
    Irrep   Nso     Nmo     Nalpha   Nbeta   Ndocc  Nsocc
   -------------------------------------------------------
     A1        70      70       0       0       0       0
     A2        32      32       0       0       0       0
     B1        59      59       0       0       0       0
     B2        40      40       0       0       0       0
   -------------------------------------------------------
    Total     201     201      44      43      43       1
   -------------------------------------------------------

  ==> Integral Setup <==

  ==> DiskDFJK: Density-Fitted J/K Matrices <==

    J tasked:                  Yes
    K tasked:                  Yes
    wK tasked:                 Yes
    Omega:               2.500E-01
    OpenMP threads:             24
    Integrals threads:          24
    Memory [MiB]:           102339
    Algorithm:                Core
    Integral Cache:           NONE
    Schwarz Cutoff:          1E-12
    Fitting Condition:       1E-10

   => Auxiliary Basis Set <=

  Basis Set: (DEF2-TZVPPD AUX)
    Blend: DEF2-TZVPP-JKFIT
    Number of shells: 174
    Number of basis function: 792
    Number of Cartesian functions: 1131
    Spherical Harmonics?: true
    Max angular momentum: 6

  Cached 100.0% of DFT collocation blocks in 0.642 [GiB].

  Minimum eigenvalue in the overlap matrix is 7.7698682144E-04.
  Using Symmetric Orthogonalization.

  SCF Guess: Orbitals guess was supplied from a previous computation.

  ==> Iterations <==

                           Total Energy        Delta E     RMS |[F,P]|

   @DF-UKS iter   0: -4921.01657814657483   -4.92102e+03   1.59089e-03 
   @DF-UKS iter   1: -4920.98968785103716    2.68903e-02   7.48261e-05 DIIS
   @DF-UKS iter   2: -4920.98966598916377    2.18619e-05   1.53032e-04 DIIS
   @DF-UKS iter   3: -4920.98970148969784   -3.55005e-05   6.92523e-06 DIIS
   @DF-UKS iter   4: -4920.98970216952421   -6.79826e-07   6.45603e-06 DIIS
   @DF-UKS iter   5: -4920.98970242687574   -2.57352e-07   3.71958e-06 DIIS
   @DF-UKS iter   6: -4920.98970260602073   -1.79145e-07   1.35515e-06 DIIS
   @DF-UKS iter   7: -4920.98970267453660   -6.85159e-08   5.99047e-07 DIIS
   @DF-UKS iter   8: -4920.98970269784604   -2.33094e-08   3.17612e-07 DIIS
   @DF-UKS iter   9: -4920.98970270665541   -8.80937e-09   1.57115e-07 DIIS
   @DF-UKS iter  10: -4920.98970270921382   -2.55841e-09   8.27845e-08 DIIS
   @DF-UKS iter  11: -4920.98970270980681   -5.92991e-10   3.86803e-08 DIIS
   @DF-UKS iter  12: -4920.98970270992868   -1.21872e-10   1.50518e-08 DIIS
   @DF-UKS iter  13: -4920.98970270994323   -1.45519e-11   4.74959e-09 DIIS
  Energy and wave function converged.


  ==> Post-Iterations <==

   @Spin Contamination Metric:   2.425990074E-02
   @S^2 Expected:                7.500000000E-01
   @S^2 Observed:                7.742599007E-01
   @S   Expected:                5.000000000E-01
   @S   Observed:                5.000000000E-01

    Orbital Energies [Eh]
    ---------------------

    Alpha Occupied:                                                       

       1A1  -323.926176     1B1  -323.910927     2A1  -323.910922  
       3A1   -39.053246     2B1   -39.040126     4A1   -39.040069  
       5A1   -34.318211     3B1   -34.317882     1B2   -34.317763  
       4B1   -34.304620     6A1   -34.304611     5B1   -34.304435  
       7A1   -34.304417     1A2   -34.303462     2B2   -34.303455  
       8A1    -4.408972     9A1    -4.394937     6B1    -4.394670  
      10A1    -2.931294     7B1    -2.929158     3B2    -2.928637  
      11A1    -2.916118     8B1    -2.915166    12A1    -2.915003  
       9B1    -2.913109     4B2    -2.912285     2A2    -2.912098  
      13A1    -0.438371    10B1    -0.424727     5B2    -0.421079  
      14A1    -0.415697     3A2    -0.409020    15A1    -0.406948  
       6B2    -0.397790    16A1    -0.385052    17A1    -0.381772  
      11B1    -0.380745     4A2    -0.380276     7B2    -0.380205  
      12B1    -0.373995     5A2    -0.373301    13B1    -0.360724  
      18A1    -0.322915    14B1    -0.180767  

    Alpha Virtual:                                                        

      19A1    -0.023440     8B2     0.017965    20A1     0.022396  
      21A1     0.045408    15B1     0.051176    22A1     0.053499  
       9B2     0.056862    16B1     0.061355     6A2     0.075248  
      17B1     0.096047    23A1     0.133233    10B2     0.137958  
      18B1     0.161101    24A1     0.162015    25A1     0.175445  
       7A2     0.209308    11B2     0.212304    26A1     0.216534  
      19B1     0.226415    27A1     0.242281    20B1     0.255461  
      12B2     0.258182     8A2     0.264261    28A1     0.264404  
      21B1     0.271457    13B2     0.281755    29A1     0.322758  
      22B1     0.325786     9A2     0.342169    30A1     0.352292  
      31A1     0.371887    14B2     0.372884    23B1     0.375043  
      10A2     0.381275    24B1     0.485739    25B1     0.542711  
      32A1     0.545803    33A1     0.703065    15B2     0.715600  
      26B1     0.756409    34A1     0.757244    16B2     0.803633  
      11A2     0.810197    35A1     0.863661    27B1     0.869777  
      36A1     0.880754    17B2     0.899225    12A2     0.934844  
      18B2     0.942760    28B1     0.970994    37A1     1.016564  
      38A1     1.040075    29B1     1.040761    13A2     1.119825  
      30B1     1.140166    39A1     1.144265    14A2     1.183642  
      19B2     1.185496    31B1     1.358481    40A1     1.371356  
      32B1     1.381915    20B2     3.057124    41A1     3.123228  
      33B1     3.134880    42A1     3.139609    21B2     3.160431  
      15A2     3.168338    43A1     3.186516    44A1     3.209264  
      34B1     3.227121    35B1     3.324376    45A1     3.511508  
      36B1     3.517751    46A1     3.526493    22B2     3.544054  
      16A2     3.545946    23B2     3.559900    37B1     3.564893  
      24B2     3.567332    47A1     3.572455    38B1     3.575577  
      48A1     3.580977    25B2     3.581262    17A2     3.582057  
      39B1     3.584028    18A2     3.584193    26B2     3.584356  
      49A1     3.585414    40B1     3.585704    19A2     3.589324  
      50A1     3.611111    41B1     3.644939    42B1     3.707097  
      51A1     3.711095    20A2     3.813339    52A1     3.816177  
      27B2     3.816723    28B2     3.847117    53A1     3.862951  
      43B1     3.869388    21A2     3.884005    29B2     3.929044  
      22A2     3.940221    54A1     4.058041    44B1     4.069075  
      55A1     4.076291    45B1     4.112109    56A1     4.329289  
      46B1     4.338396    57A1    12.994695    30B2    12.995192  
      23A2    12.995827    31B2    12.995948    47B1    12.996627  
      58A1    12.996800    48B1    12.996948    59A1    12.997891  
      24A2    12.997993    60A1    13.012262    49B1    13.012597  
      50B1    13.013118    25A2    13.013167    32B2    13.013225  
      61A1    13.013713    26A2    13.013835    33B2    13.013978  
      62A1    13.014479    51B1    13.014636    27A2    13.014684  
      34B2    13.014839    52B1    13.015003    63A1    13.015387  
      35B2    13.015395    28A2    13.015405    64A1    13.015588  
      53B1    13.015688    36B2    13.205000    54B1    13.205716  
      37B2    13.208202    29A2    13.208225    65A1    13.210635  
      66A1    13.212668    55B1    13.216194    38B2    13.219938  
      30A2    13.220445    56B1    13.220750    67A1    13.221171  
      39B2    13.222637    31A2    13.225502    68A1    13.229556  
      69A1    13.230659    57B1    13.231543    32A2    13.232696  
      40B2    13.233176    58B1    13.294009    59B1    13.300105  
      70A1    13.306712  

    Beta Occupied:                                                        

       1A1  -323.926117     1B1  -323.910396     2A1  -323.910390  
       3A1   -39.053313     2B1   -39.039637     4A1   -39.039580  
       5A1   -34.318186     1B2   -34.317852     3B1   -34.317678  
       4B1   -34.304495     6A1   -34.304487     5B1   -34.304246  
       7A1   -34.304228     1A2   -34.303528     2B2   -34.303521  
       8A1    -4.409031     9A1    -4.393033     6B1    -4.392758  
      10A1    -2.931429     3B2    -2.928853     7B1    -2.928392  
      11A1    -2.915660     8B1    -2.914030    12A1    -2.913524  
       9B1    -2.912088     4B2    -2.911580     2A2    -2.911363  
      13A1    -0.438030    10B1    -0.422802     5B2    -0.421498  
      14A1    -0.414286     3A2    -0.408422    15A1    -0.404560  
       6B2    -0.396948    16A1    -0.384499    17A1    -0.381123  
       4A2    -0.379499     7B2    -0.379437    11B1    -0.379088  
       5A2    -0.371467    12B1    -0.371186    13B1    -0.356583  
      18A1    -0.307931  

    Beta Virtual:                                                         

      19A1    -0.035358    14B1    -0.034320    20A1    -0.006154  
       8B2     0.003781    15B1     0.021070    21A1     0.023260  
       6A2     0.028156     9B2     0.031023    16B1     0.032096  
      22A1     0.033529    17B1     0.042042    23A1     0.118169  
      10B2     0.127444    18B1     0.154829    24A1     0.159701  
      25A1     0.177570    26A1     0.205353    11B2     0.206507  
      19B1     0.208104     7A2     0.212075    27A1     0.241200  
      20B1     0.243623    12B2     0.253377     8A2     0.254200  
      28A1     0.255403    21B1     0.265271    13B2     0.275476  
      22B1     0.313544    29A1     0.314950     9A2     0.325806  
      30A1     0.340801    14B2     0.362731    23B1     0.363056  
      31A1     0.363983    10A2     0.369368    24B1     0.479248  
      25B1     0.537054    32A1     0.538985    33A1     0.698053  
      15B2     0.712314    26B1     0.755168    34A1     0.758383  
      16B2     0.801894    11A2     0.809818    35A1     0.863476  
      27B1     0.876265    36A1     0.884860    17B2     0.902308  
      12A2     0.936010    18B2     0.947277    28B1     0.971380  
      37A1     1.018927    29B1     1.045078    38A1     1.047826  
      13A2     1.123751    39A1     1.148107    30B1     1.148747  
      19B2     1.187114    14A2     1.190129    31B1     1.366794  
      40A1     1.374331    32B1     1.386433    20B2     3.057538  
      41A1     3.123724    33B1     3.137240    42A1     3.143952  
      21B2     3.160321    15A2     3.168326    43A1     3.185751  
      44A1     3.209318    34B1     3.227259    35B1     3.325928  
      45A1     3.513278    36B1     3.522203    46A1     3.526999  
      22B2     3.543668    16A2     3.545853    23B2     3.560654  
      37B1     3.565786    24B2     3.568115    47A1     3.573176  
      38B1     3.575689    48A1     3.582424    25B2     3.582974  
      17A2     3.584009    18A2     3.585084    26B2     3.585343  
      39B1     3.585890    49A1     3.587177    40B1     3.587363  
      19A2     3.590066    50A1     3.611252    41B1     3.645842  
      42B1     3.706860    51A1     3.711010    20A2     3.814293  
      27B2     3.817048    52A1     3.817951    28B2     3.845954  
      53A1     3.863378    43B1     3.871113    21A2     3.884412  
      29B2     3.928066    22A2     3.938840    54A1     4.058198  
      44B1     4.071493    55A1     4.074738    45B1     4.113498  
      56A1     4.327490    46B1     4.339066    57A1    12.994595  
      30B2    12.995035    31B2    12.996037    23A2    12.996084  
      58A1    12.996928    47B1    12.996929    48B1    12.996987  
      24A2    12.997290    59A1    12.997374    60A1    13.012843  
      49B1    13.013325    25A2    13.013524    50B1    13.013549  
      32B2    13.013589    26A2    13.013725    61A1    13.013905  
      33B2    13.014131    51B1    13.014190    34B2    13.014561  
      27A2    13.014565    62A1    13.014901    52B1    13.015009  
      63A1    13.015558    35B2    13.015684    28A2    13.015803  
      64A1    13.015997    53B1    13.016765    36B2    13.204735  
      54B1    13.205601    37B2    13.207938    29A2    13.208436  
      65A1    13.210494    66A1    13.212756    55B1    13.215564  
      38B2    13.219863    30A2    13.220301    56B1    13.220837  
      67A1    13.220897    39B2    13.221186    31A2    13.224981  
      68A1    13.229246    69A1    13.229474    57B1    13.230938  
      32A2    13.231257    40B2    13.232471    58B1    13.293221  
      59B1    13.299935    70A1    13.305972  

    Final Occupation by Irrep:
             A1    A2    B1    B2 
    DOCC [    18,    5,   13,    7 ]
    SOCC [     0,    0,    1,    0 ]

  @DF-UKS Final Energy: -4920.98970270994323

   => Energetics <=

    Nuclear Repulsion Energy =            564.2972556121025036
    One-Electron Energy =               -7990.6818152116393321
    Two-Electron Energy =                2615.3470268320616015
    DFT Exchange-Correlation Energy =    -109.9506088524680223
    Empirical Dispersion Energy =          -0.0015610900000000
    VV10 Nonlocal Energy =                  0.0000000000000000
    Total Energy =                      -4920.9897027099432307

  UHF NO Occupations:
  HONO-2 :   13 B1 1.9994748
  HONO-1 :   18 A1 1.9893203
  HONO-0 :   14 B1 1.0000000
  LUNO+0 :   19 A1 0.0106797
  LUNO+1 :   15 B1 0.0005252
  LUNO+2 :   20 A1 0.0003317
  LUNO+3 :    6 A2 0.0002088


Computation Completed


Properties will be evaluated at   0.000000,   0.000000,   0.000000 [a0]

Properties computed using the SCF density matrix

  Nuclear Dipole Moment: [e a0]
     X:    -0.0000      Y:    -0.0000      Z:    -0.0000

  Electronic Dipole Moment: [e a0]
     X:     0.0000      Y:     0.0000      Z:     0.1693

  Dipole Moment: [e a0]
     X:    -0.0000      Y:    -0.0000      Z:     0.1693     Total:     0.1693

  Dipole Moment: [D]
     X:    -0.0000      Y:    -0.0000      Z:     0.4303     Total:     0.4303


*** tstop() called on bp1-compute00133.data.bp.acrc.priv at Fri Oct 29 08:34:04 2021
Module time:
	user time   =     409.89 seconds =       6.83 minutes
	system time =      18.19 seconds =       0.30 minutes
	total time  =         19 seconds =       0.32 minutes
Total time:
	user time   =    1149.11 seconds =      19.15 minutes
	system time =      51.66 seconds =       0.86 minutes
	total time  =         55 seconds =       0.92 minutes

*** tstart() called on bp1-compute00133.data.bp.acrc.priv
*** at Fri Oct 29 08:34:04 2021


         ------------------------------------------------------------
                                   SCF GRAD                          
                          Rob Parrish, Justin Turney,                
                       Andy Simmonett, and Alex Sokolov              
         ------------------------------------------------------------

  ==> Geometry <==

    Molecular point group: c2v
    Full point group: C2v

    Geometry (in Angstrom), charge = 0, multiplicity = 2:

       Center              X                  Y                   Z               Mass       
    ------------   -----------------  -----------------  -----------------  -----------------
         CU           0.000000000000     0.000000000000     1.347366084727    62.929597720000
         CU           1.199230320899     0.000000000000    -0.673683042364    62.929597720000
         CU          -1.199230320899    -0.000000000000    -0.673683042364    62.929597720000

  Nuclear repulsion =  564.297255612102504

  ==> Basis Set <==

  Basis Set: DEF2-TZVPPD
    Blend: DEF2-TZVPPD
    Number of shells: 57
    Number of basis function: 201
    Number of Cartesian functions: 249
    Spherical Harmonics?: true
    Max angular momentum: 4

  ==> DFJKGrad: Density-Fitted SCF Gradients <==

    Gradient:                    1
    J tasked:                  Yes
    K tasked:                  Yes
    wK tasked:                 Yes
    Omega:               2.500E-01
    OpenMP threads:             24
    Integrals threads:          24
    Memory [MiB]:           102996
    Schwarz Cutoff:          0E+00
    Fitting Condition:       1E-10

   => Auxiliary Basis Set <=

  Basis Set: (DEF2-TZVPPD AUX)
    Blend: DEF2-TZVPP-JKFIT
    Number of shells: 174
    Number of basis function: 792
    Number of Cartesian functions: 1131
    Spherical Harmonics?: true
    Max angular momentum: 6

  ==> DFT Potential <==

   => Composite Functional: M11-D3BJ <= 

    M11 Meta-GGA XC Functional

    R. Peverati and D. G. Truhlar, J. Phys. Chem. Lett., 2, 2810, 2011


    Deriv               =              1
    GGA                 =           TRUE
    Meta                =           TRUE

    Exchange Hybrid     =           TRUE
    MP2 Hybrid          =          FALSE

   => Exchange Functionals <=

    1.0000   XC_HYB_MGGA_X_M11 [omega = 0.2500]

   => Exact (HF) Exchange <=

    0.5720            HF,LR [omega = 0.2500]
    0.4280               HF 

   => Correlation Functionals <=

    1.0000    XC_MGGA_C_M11

   => Molecular Quadrature <=

    Radial Scheme          =       TREUTLER
    Pruning Scheme         =           FLAT
    Nuclear Scheme         =       TREUTLER

    BS radius alpha        =              1
    Pruning alpha          =              1
    Radial Points          =             75
    Spherical Points       =            302
    Total Points           =          67950
    Total Blocks           =            596
    Max Points             =            256
    Max Functions          =            191


  -Total Gradient:
     Atom            X                  Y                   Z
    ------   -----------------  -----------------  -----------------
       1        0.000000000000    -0.000000000000    -0.002337954927
       2       -0.013798490580    -0.000000000000     0.001184361997
       3        0.013798490580     0.000000000000     0.001184361997


*** tstop() called on bp1-compute00133.data.bp.acrc.priv at Fri Oct 29 08:34:12 2021
Module time:
	user time   =     111.51 seconds =       1.86 minutes
	system time =       5.04 seconds =       0.08 minutes
	total time  =          8 seconds =       0.13 minutes
Total time:
	user time   =    1262.13 seconds =      21.04 minutes
	system time =      56.81 seconds =       0.95 minutes
	total time  =         63 seconds =       1.05 minutes

			-----------------------------------------
			 OPTKING 2.0: for geometry optimizations 
			  - R.A. King,  Bethel University        
			-----------------------------------------
	At level 1: Red. Int., RFO, no backsteps, dynamic trust

	Previous internal coordinate definitions found.
	---Fragment 1 Geometry and Gradient---
	 CU          0.0000000000        0.0000000000        2.5461528909
	 CU          2.2662168678        0.0000000000       -1.2730764454
	 CU         -2.2662168678       -0.0000000000       -1.2730764454
	             0.0000000000       -0.0000000000       -0.0023379549
	            -0.0137984906       -0.0000000000        0.0011843620
	             0.0137984906        0.0000000000        0.0011843620

	---Fragment 1 Intrafragment Coordinates---
	 - Coordinate -           - BOHR/RAD -       - ANG/DEG -
	 R(1,2)           =         4.440974	       2.350062
	 R(1,3)           =         4.440974	       2.350062
	 R(2,3)           =         4.532434	       2.398461
	 B(1,2,3)         =         1.035266	      59.316369
	 B(1,3,2)         =         1.035266	      59.316369
	 B(2,1,3)         =         1.071061	      61.367262

	Current energy   :     -4920.9897027099

	Energy change for the previous step:
		Projected    :        -0.0010025515
		Actual       :        -0.0021641738
	Energy ratio indicates good step: Trust radius increased to 1.000e+00.


	Performing BFGS update.
	Previous computed or guess Hessian on step 1.
	Steps to be used in Hessian update: 1
	Taking RFO optimization step.
	Going to follow RFO solution 1.
	Using RFO vector 1.
	Norm of target step-size    0.24155
	Projected energy change by RFO approximation:        -0.0056901771

	Back-transformation to cartesian coordinates...
	Successfully converged to displaced geometry.

	--- Internal Coordinate Step in ANG or DEG, aJ/ANG or AJ/DEG ---
	 ---------------------------------------------------------------------------
	   Coordinate                Previous        Force       Change         New 
	   ----------                --------       ------       ------       ------
	    1 R(1,2)          =      2.350062     0.015625     0.023348     2.373410
	    2 R(1,3)          =      2.350062     0.015625     0.023348     2.373410
	    3 R(2,3)          =      2.398461     0.099364     0.119623     2.518084
	    4 B(1,2,3)        =     59.316369    -0.000101    -1.354127    57.962242
	    5 B(1,3,2)        =     59.316369    -0.000101    -1.354127    57.962242
	    6 B(2,1,3)        =     61.367262     0.000202     2.708255    64.075516
	 ---------------------------------------------------------------------------
	Successfully symmetrized geometry.

  ==> Convergence Check <==

  Measures of convergence in internal coordinates in au.
  Criteria marked as inactive (o), active & met (*), and active & unmet ( ).
  ---------------------------------------------------------------------------------------------
   Step     Total Energy     Delta E     MAX Force     RMS Force      MAX Disp      RMS Disp   
  ---------------------------------------------------------------------------------------------
    Convergence Criteria    1.00e-06 *    3.00e-04 *             o    1.20e-03 *             o
  ---------------------------------------------------------------------------------------------
      2   -4920.98970271   -2.16e-03      1.21e-02      5.22e-03 o    2.26e-01      9.86e-02 o  ~
  ---------------------------------------------------------------------------------------------

	Writing optimization data to binary file.
	Structure for next step:
	Cartesian Geometry (in Angstrom)
	   CU     0.0000000000  -0.0000000000   1.3412911193
	   CU     1.2590419058   0.0000000000  -0.6706455596
	   CU    -1.2590419058  -0.0000000000  -0.6706455596
			--------------------------
			 OPTKING Finished Execution 
			--------------------------

    Structure for next step:
    Molecular point group: c2v
    Full point group: C2v

    Geometry (in Angstrom), charge = 0, multiplicity = 2:

    CU           0.000000000000    -0.000000000000     1.341291124568
    CU           1.259041910771     0.000000000000    -0.670645562284
    CU          -1.259041910771    -0.000000000000    -0.670645562284

gradient() will perform analytic gradient computation.

*** tstart() called on bp1-compute00133.data.bp.acrc.priv
*** at Fri Oct 29 08:34:12 2021

   => Loading Basis Set <=

    Name: DEF2-TZVPPD
    Role: ORBITAL
    Keyword: BASIS
    atoms 1-3 entry CU         line  1290 file /work/zw18965/.conda/envs/p4env/share/psi4/basis/def2-tzvppd.gbs 


         ---------------------------------------------------------
                                   SCF
               by Justin Turney, Rob Parrish, Andy Simmonett
                          and Daniel G. A. Smith
                              UKS Reference
                       24 Threads, 137329 MiB Core
         ---------------------------------------------------------

  ==> Geometry <==

    Molecular point group: c2v
    Full point group: C2v

    Geometry (in Angstrom), charge = 0, multiplicity = 2:

       Center              X                  Y                   Z               Mass       
    ------------   -----------------  -----------------  -----------------  -----------------
         CU           0.000000000000    -0.000000000000     1.341291124568    62.929597720000
         CU           1.259041910771     0.000000000000    -0.670645562284    62.929597720000
         CU          -1.259041910771    -0.000000000000    -0.670645562284    62.929597720000

  Running in c2v symmetry.

  Rotational constants: A =      0.09927  B =      0.08450  C =      0.04564 [cm^-1]
  Rotational constants: A =   2975.94488  B =   2533.09731  C =   1368.36091 [MHz]
  Nuclear repulsion =  551.756695424326153

  Charge       = 0
  Multiplicity = 2
  Electrons    = 87
  Nalpha       = 44
  Nbeta        = 43

  ==> Algorithm <==

  SCF Algorithm Type is DF.
  DIIS enabled.
  MOM disabled.
  Fractional occupation disabled.
  Guess Type is READ.
  Energy threshold   = 1.00e-08
  Density threshold  = 1.00e-08
  Integral threshold = 0.00e+00

  ==> Primary Basis <==

  Basis Set: DEF2-TZVPPD
    Blend: DEF2-TZVPPD
    Number of shells: 57
    Number of basis function: 201
    Number of Cartesian functions: 249
    Spherical Harmonics?: true
    Max angular momentum: 4

  ==> DFT Potential <==

   => Composite Functional: M11-D3BJ <= 

    M11 Meta-GGA XC Functional

    R. Peverati and D. G. Truhlar, J. Phys. Chem. Lett., 2, 2810, 2011


    Deriv               =              1
    GGA                 =           TRUE
    Meta                =           TRUE

    Exchange Hybrid     =           TRUE
    MP2 Hybrid          =          FALSE

   => Exchange Functionals <=

    1.0000   XC_HYB_MGGA_X_M11 [omega = 0.2500]

   => Exact (HF) Exchange <=

    0.5720            HF,LR [omega = 0.2500]
    0.4280               HF 

   => Correlation Functionals <=

    1.0000    XC_MGGA_C_M11

   => Molecular Quadrature <=

    Radial Scheme          =       TREUTLER
    Pruning Scheme         =           FLAT
    Nuclear Scheme         =       TREUTLER

    BS radius alpha        =              1
    Pruning alpha          =              1
    Radial Points          =             75
    Spherical Points       =            302
    Total Points           =          67950
    Total Blocks           =            595
    Max Points             =            256
    Max Functions          =            191

   => M11-D3(BJ): Empirical Dispersion <=

    Grimme's -D3 (BJ-damping) Dispersion Correction
    Grimme S.; Ehrlich S.; Goerigk L. (2011), J. Comput. Chem., 32: 1456
    Parametrisation from:    L. Goerigk, J. Phys. Chem. Lett. 6, 3891-3896, 2015

        s6 =       1.000000
        s8 =       2.811200
        a1 =       0.000000
        a2 =      10.138900

   => Loading Basis Set <=

    Name: (DEF2-TZVPPD AUX)
    Role: JKFIT
    Keyword: DF_BASIS_SCF
    atoms 1-3 entry CU         line  2361 file /work/zw18965/.conda/envs/p4env/share/psi4/basis/def2-tzvpp-jkfit.gbs 

   => Loading Basis Set <=

    Name: DEF2-TZVPPD
    Role: ORBITAL
    Keyword: BASIS
    atoms 1-3 entry CU         line  1290 file /work/zw18965/.conda/envs/p4env/share/psi4/basis/def2-tzvppd.gbs 

  Reading orbitals from file 180, no projection.

  ==> Pre-Iterations <==

   -------------------------------------------------------
    Irrep   Nso     Nmo     Nalpha   Nbeta   Ndocc  Nsocc
   -------------------------------------------------------
     A1        70      70       0       0       0       0
     A2        32      32       0       0       0       0
     B1        59      59       0       0       0       0
     B2        40      40       0       0       0       0
   -------------------------------------------------------
    Total     201     201      44      43      43       1
   -------------------------------------------------------

  ==> Integral Setup <==

  ==> DiskDFJK: Density-Fitted J/K Matrices <==

    J tasked:                  Yes
    K tasked:                  Yes
    wK tasked:                 Yes
    Omega:               2.500E-01
    OpenMP threads:             24
    Integrals threads:          24
    Memory [MiB]:           102342
    Algorithm:                Core
    Integral Cache:           NONE
    Schwarz Cutoff:          1E-12
    Fitting Condition:       1E-10

   => Auxiliary Basis Set <=

  Basis Set: (DEF2-TZVPPD AUX)
    Blend: DEF2-TZVPP-JKFIT
    Number of shells: 174
    Number of basis function: 792
    Number of Cartesian functions: 1131
    Spherical Harmonics?: true
    Max angular momentum: 6

  Cached 100.0% of DFT collocation blocks in 0.639 [GiB].

  Minimum eigenvalue in the overlap matrix is 7.9363343339E-04.
  Using Symmetric Orthogonalization.

  SCF Guess: Orbitals guess was supplied from a previous computation.

  ==> Iterations <==

                           Total Energy        Delta E     RMS |[F,P]|

   @DF-UKS iter   0: -4921.03061946960406   -4.92103e+03   2.46710e-03 
   @DF-UKS iter   1: -4920.99169990537212    3.89196e-02   8.23694e-05 DIIS
   @DF-UKS iter   2: -4920.99169011246613    9.79291e-06   1.54508e-04 DIIS
   @DF-UKS iter   3: -4920.99172634952629   -3.62371e-05   1.16613e-05 DIIS
   @DF-UKS iter   4: -4920.99172894657568   -2.59705e-06   9.41721e-06 DIIS
   @DF-UKS iter   5: -4920.99172998189442   -1.03532e-06   7.04556e-06 DIIS
   @DF-UKS iter   6: -4920.99173044223244   -4.60338e-07   3.34583e-06 DIIS
   @DF-UKS iter   7: -4920.99173071822133   -2.75989e-07   1.21433e-06 DIIS
   @DF-UKS iter   8: -4920.99173082377365   -1.05552e-07   6.14103e-07 DIIS
   @DF-UKS iter   9: -4920.99173085780512   -3.40315e-08   3.07766e-07 DIIS
   @DF-UKS iter  10: -4920.99173086716291   -9.35779e-09   1.53459e-07 DIIS
   @DF-UKS iter  11: -4920.99173086938754   -2.22462e-09   7.23801e-08 DIIS
   @DF-UKS iter  12: -4920.99173086981136   -4.23825e-10   2.58408e-08 DIIS
   @DF-UKS iter  13: -4920.99173086985684   -4.54747e-11   1.49963e-08 DIIS
   @DF-UKS iter  14: -4920.99173086986320   -6.36646e-12   6.22530e-09 DIIS
  Energy and wave function converged.


  ==> Post-Iterations <==

   @Spin Contamination Metric:   2.553493949E-02
   @S^2 Expected:                7.500000000E-01
   @S^2 Observed:                7.755349395E-01
   @S   Expected:                5.000000000E-01
   @S   Observed:                5.000000000E-01

    Orbital Energies [Eh]
    ---------------------

    Alpha Occupied:                                                       

       1A1  -323.924442     1B1  -323.908767     2A1  -323.908761  
       3A1   -39.051474     2B1   -39.037399     4A1   -39.037342  
       5A1   -34.316438     3B1   -34.316142     1B2   -34.315982  
       4B1   -34.301987     6A1   -34.301980     5B1   -34.301681  
       7A1   -34.301660     1A2   -34.300899     2B2   -34.300893  
       8A1    -4.407054     9A1    -4.392248     6B1    -4.392132  
      10A1    -2.929122     7B1    -2.927336     3B2    -2.926755  
      11A1    -2.912894     8B1    -2.912740    12A1    -2.912235  
       9B1    -2.910727     4B2    -2.910003     2A2    -2.909911  
      13A1    -0.432297    10B1    -0.422154     5B2    -0.416918  
      14A1    -0.411897     3A2    -0.407110    15A1    -0.401130  
       6B2    -0.393065    16A1    -0.382578    11B1    -0.380332  
      17A1    -0.379540     4A2    -0.379063     7B2    -0.378522  
      12B1    -0.373775     5A2    -0.373547    13B1    -0.361409  
      18A1    -0.319462    14B1    -0.182686  

    Alpha Virtual:                                                        

      19A1    -0.022147     8B2     0.018767    20A1     0.022791  
      21A1     0.044921    15B1     0.050393    22A1     0.054282  
       9B2     0.057274    16B1     0.060972     6A2     0.074143  
      17B1     0.095594    23A1     0.134183    10B2     0.139232  
      18B1     0.160055    24A1     0.163595    25A1     0.175019  
       7A2     0.207080    11B2     0.213466    26A1     0.216053  
      19B1     0.225266    27A1     0.241945    20B1     0.254488  
      12B2     0.256897     8A2     0.263629    28A1     0.264892  
      21B1     0.267692    13B2     0.280247    29A1     0.322276  
      22B1     0.323260     9A2     0.340596    30A1     0.353729  
      31A1     0.370631    14B2     0.373264    23B1     0.373329  
      10A2     0.377522    24B1     0.480144    25B1     0.530061  
      32A1     0.543523    33A1     0.704512    15B2     0.724763  
      26B1     0.752246    34A1     0.759749    16B2     0.804484  
      11A2     0.804597    35A1     0.860757    27B1     0.862871  
      36A1     0.885695    17B2     0.896773    12A2     0.932555  
      18B2     0.950407    28B1     0.959160    37A1     1.013345  
      38A1     1.026386    29B1     1.035886    13A2     1.112119  
      30B1     1.123524    39A1     1.142838    14A2     1.170054  
      19B2     1.184204    31B1     1.324550    40A1     1.366706  
      32B1     1.379259    20B2     3.058652    41A1     3.090175  
      33B1     3.128764    42A1     3.130764    15A2     3.161898  
      43A1     3.162819    21B2     3.162837    44A1     3.223552  
      34B1     3.258737    35B1     3.339417    36B1     3.501842  
      45A1     3.504435    46A1     3.534220    22B2     3.547544  
      16A2     3.548185    23B2     3.563884    37B1     3.565721  
      24B2     3.572424    47A1     3.576819    38B1     3.578298  
      48A1     3.582394    17A2     3.582916    25B2     3.583026  
      18A2     3.584655    39B1     3.584744    26B2     3.584902  
      49A1     3.585891    40B1     3.588669    19A2     3.589690  
      50A1     3.611061    41B1     3.620080    42B1     3.685055  
      51A1     3.704698    27B2     3.805064    52A1     3.809344  
      20A2     3.812562    28B2     3.834295    43B1     3.864414  
      53A1     3.864432    21A2     3.881678    29B2     3.926897  
      22A2     3.934948    54A1     4.001207    55A1     4.046184  
      44B1     4.063343    45B1     4.106628    56A1     4.289569  
      46B1     4.296089    57A1    12.997001    30B2    12.997157  
      23A2    12.997927    31B2    12.997980    47B1    12.998179  
      48B1    12.998747    58A1    12.998815    24A2    12.999644  
      59A1    12.999790    60A1    13.014671    49B1    13.014968  
      50B1    13.015389    25A2    13.015476    32B2    13.015504  
      61A1    13.015977    26A2    13.015996    33B2    13.016158  
      51B1    13.016591    62A1    13.016612    27A2    13.016624  
      34B2    13.016793    52B1    13.016967    63A1    13.017250  
      35B2    13.017328    28A2    13.017337    64A1    13.017525  
      53B1    13.017588    36B2    13.206865    54B1    13.207582  
      37B2    13.210067    29A2    13.210342    65A1    13.212356  
      66A1    13.216615    55B1    13.220190    38B2    13.222354  
      30A2    13.222611    56B1    13.222799    67A1    13.223206  
      39B2    13.225195    31A2    13.226811    57B1    13.229272  
      32A2    13.230735    68A1    13.231588    69A1    13.233404  
      40B2    13.233967    58B1    13.265999    59B1    13.294837  
      70A1    13.298451  

    Beta Occupied:                                                        

       1A1  -323.924397     1B1  -323.908202     2A1  -323.908197  
       3A1   -39.051515     2B1   -39.036910     4A1   -39.036853  
       5A1   -34.316377     1B2   -34.316063     3B1   -34.315904  
       4B1   -34.301873     6A1   -34.301867     5B1   -34.301535  
       7A1   -34.301515     1A2   -34.300980     2B2   -34.300974  
       8A1    -4.407106     9A1    -4.390272     6B1    -4.390152  
      10A1    -2.929205     3B2    -2.926962     7B1    -2.926521  
      11A1    -2.912332     8B1    -2.911599    12A1    -2.910896  
       9B1    -2.909775     4B2    -2.909299     2A2    -2.909178  
      13A1    -0.431906    10B1    -0.420116     5B2    -0.417279  
      14A1    -0.410824     3A2    -0.406521    15A1    -0.398697  
       6B2    -0.392182    16A1    -0.382106    11B1    -0.378645  
      17A1    -0.378541     4A2    -0.378254     7B2    -0.377716  
       5A2    -0.371831    12B1    -0.371111    13B1    -0.357407  
      18A1    -0.303817  

    Beta Virtual:                                                         

      14B1    -0.034176    19A1    -0.033962    20A1    -0.005269  
       8B2     0.004812    15B1     0.021209    21A1     0.024150  
       6A2     0.028383    16B1     0.031560     9B2     0.032333  
      22A1     0.034220    17B1     0.042764    23A1     0.119862  
      10B2     0.129361    18B1     0.153771    24A1     0.162185  
      25A1     0.177130    26A1     0.204979    19B1     0.207099  
      11B2     0.208106     7A2     0.210309    27A1     0.240270  
      20B1     0.244269    12B2     0.252686     8A2     0.253796  
      28A1     0.255825    21B1     0.260970    13B2     0.273204  
      22B1     0.311140    29A1     0.314224     9A2     0.324670  
      30A1     0.342761    23B1     0.360720    31A1     0.361830  
      14B2     0.363234    10A2     0.365006    24B1     0.473455  
      25B1     0.524599    32A1     0.536796    33A1     0.699326  
      15B2     0.721960    26B1     0.750788    34A1     0.760505  
      16B2     0.803205    11A2     0.804067    35A1     0.861658  
      27B1     0.868728    36A1     0.888803    17B2     0.899905  
      12A2     0.933762    18B2     0.954719    28B1     0.959069  
      37A1     1.017832    38A1     1.032357    29B1     1.040348  
      13A2     1.116739    30B1     1.131702    39A1     1.146355  
      14A2     1.175613    19B2     1.185941    31B1     1.333383  
      40A1     1.369544    32B1     1.382751    20B2     3.059056  
      41A1     3.089308    33B1     3.131223    42A1     3.135045  
      15A2     3.162043    21B2     3.162695    43A1     3.163595  
      44A1     3.223451    34B1     3.258776    35B1     3.340686  
      45A1     3.506161    36B1     3.506301    46A1     3.534590  
      22B2     3.547114    16A2     3.548060    23B2     3.564576  
      37B1     3.566494    24B2     3.573199    47A1     3.577529  
      38B1     3.578563    48A1     3.583779    25B2     3.584747  
      17A2     3.584975    18A2     3.585625    26B2     3.585893  
      39B1     3.586798    49A1     3.587649    40B1     3.589921  
      19A2     3.590293    50A1     3.611133    41B1     3.621073  
      42B1     3.684775    51A1     3.704634    27B2     3.804400  
      52A1     3.810881    20A2     3.813542    28B2     3.833958  
      53A1     3.864936    43B1     3.865936    21A2     3.881910  
      29B2     3.926045    22A2     3.933420    54A1     3.999681  
      55A1     4.046068    44B1     4.065412    45B1     4.108074  
      56A1     4.287994    46B1     4.296170    57A1    12.996908  
      30B2    12.997003    31B2    12.998099    23A2    12.998202  
      47B1    12.998513    48B1    12.998827    24A2    12.998941  
      58A1    12.999017    59A1    12.999246    60A1    13.015101  
      49B1    13.015544    32B2    13.015627    25A2    13.015650  
      50B1    13.015757    26A2    13.015827    61A1    13.015950  
      51B1    13.016199    33B2    13.016230    27A2    13.016543  
      34B2    13.016561    62A1    13.016973    52B1    13.017022  
      63A1    13.017469    35B2    13.017830    28A2    13.017874  
      64A1    13.018171    53B1    13.018605    36B2    13.206621  
      54B1    13.207510    37B2    13.209852    29A2    13.210649  
      65A1    13.212295    66A1    13.216684    55B1    13.219517  
      38B2    13.222249    30A2    13.222372    56B1    13.222855  
      67A1    13.222905    39B2    13.223659    31A2    13.226171  
      57B1    13.228560    32A2    13.229218    68A1    13.231238  
      69A1    13.232025    40B2    13.233116    58B1    13.265064  
      59B1    13.294648    70A1    13.297623  

    Final Occupation by Irrep:
             A1    A2    B1    B2 
    DOCC [    18,    5,   13,    7 ]
    SOCC [     0,    0,    1,    0 ]

  @DF-UKS Final Energy: -4920.99173086986320

   => Energetics <=

    Nuclear Repulsion Energy =            551.7566954243261534
    One-Electron Energy =               -7965.8106066442260271
    Two-Electron Energy =                2603.0096746966842147
    DFT Exchange-Correlation Energy =    -109.9459341066472007
    Empirical Dispersion Energy =          -0.0015602400000000
    VV10 Nonlocal Energy =                  0.0000000000000000
    Total Energy =                      -4920.9917308698622946

  UHF NO Occupations:
  HONO-2 :   13 B1 1.9995024
  HONO-1 :   18 A1 1.9886185
  HONO-0 :   14 B1 1.0000000
  LUNO+0 :   19 A1 0.0113815
  LUNO+1 :   15 B1 0.0004976
  LUNO+2 :   20 A1 0.0003021
  LUNO+3 :    8 B2 0.0002043


Computation Completed


Properties will be evaluated at   0.000000,   0.000000,   0.000000 [a0]

Properties computed using the SCF density matrix

  Nuclear Dipole Moment: [e a0]
     X:     0.0000      Y:    -0.0000      Z:     0.0000

  Electronic Dipole Moment: [e a0]
     X:     0.0000      Y:     0.0000      Z:     0.1401

  Dipole Moment: [e a0]
     X:     0.0000      Y:    -0.0000      Z:     0.1401     Total:     0.1401

  Dipole Moment: [D]
     X:     0.0000      Y:    -0.0000      Z:     0.3560     Total:     0.3560


*** tstop() called on bp1-compute00133.data.bp.acrc.priv at Fri Oct 29 08:34:31 2021
Module time:
	user time   =     418.84 seconds =       6.98 minutes
	system time =      16.75 seconds =       0.28 minutes
	total time  =         19 seconds =       0.32 minutes
Total time:
	user time   =    1681.87 seconds =      28.03 minutes
	system time =      73.60 seconds =       1.23 minutes
	total time  =         82 seconds =       1.37 minutes

*** tstart() called on bp1-compute00133.data.bp.acrc.priv
*** at Fri Oct 29 08:34:31 2021


         ------------------------------------------------------------
                                   SCF GRAD                          
                          Rob Parrish, Justin Turney,                
                       Andy Simmonett, and Alex Sokolov              
         ------------------------------------------------------------

  ==> Geometry <==

    Molecular point group: c2v
    Full point group: C2v

    Geometry (in Angstrom), charge = 0, multiplicity = 2:

       Center              X                  Y                   Z               Mass       
    ------------   -----------------  -----------------  -----------------  -----------------
         CU           0.000000000000    -0.000000000000     1.341291124568    62.929597720000
         CU           1.259041910771     0.000000000000    -0.670645562284    62.929597720000
         CU          -1.259041910771    -0.000000000000    -0.670645562284    62.929597720000

  Nuclear repulsion =  551.756695424326153

  ==> Basis Set <==

  Basis Set: DEF2-TZVPPD
    Blend: DEF2-TZVPPD
    Number of shells: 57
    Number of basis function: 201
    Number of Cartesian functions: 249
    Spherical Harmonics?: true
    Max angular momentum: 4

  ==> DFJKGrad: Density-Fitted SCF Gradients <==

    Gradient:                    1
    J tasked:                  Yes
    K tasked:                  Yes
    wK tasked:                 Yes
    Omega:               2.500E-01
    OpenMP threads:             24
    Integrals threads:          24
    Memory [MiB]:           102996
    Schwarz Cutoff:          0E+00
    Fitting Condition:       1E-10

   => Auxiliary Basis Set <=

  Basis Set: (DEF2-TZVPPD AUX)
    Blend: DEF2-TZVPP-JKFIT
    Number of shells: 174
    Number of basis function: 792
    Number of Cartesian functions: 1131
    Spherical Harmonics?: true
    Max angular momentum: 6

  ==> DFT Potential <==

   => Composite Functional: M11-D3BJ <= 

    M11 Meta-GGA XC Functional

    R. Peverati and D. G. Truhlar, J. Phys. Chem. Lett., 2, 2810, 2011


    Deriv               =              1
    GGA                 =           TRUE
    Meta                =           TRUE

    Exchange Hybrid     =           TRUE
    MP2 Hybrid          =          FALSE

   => Exchange Functionals <=

    1.0000   XC_HYB_MGGA_X_M11 [omega = 0.2500]

   => Exact (HF) Exchange <=

    0.5720            HF,LR [omega = 0.2500]
    0.4280               HF 

   => Correlation Functionals <=

    1.0000    XC_MGGA_C_M11

   => Molecular Quadrature <=

    Radial Scheme          =       TREUTLER
    Pruning Scheme         =           FLAT
    Nuclear Scheme         =       TREUTLER

    BS radius alpha        =              1
    Pruning alpha          =              1
    Radial Points          =             75
    Spherical Points       =            302
    Total Points           =          67950
    Total Blocks           =            595
    Max Points             =            256
    Max Functions          =            191


  -Total Gradient:
     Atom            X                  Y                   Z
    ------   -----------------  -----------------  -----------------
       1        0.000000000000     0.000000000000     0.001791589045
       2       -0.004768229237    -0.000000000000    -0.000901322336
       3        0.004768229237     0.000000000000    -0.000901322336


*** tstop() called on bp1-compute00133.data.bp.acrc.priv at Fri Oct 29 08:34:39 2021
Module time:
	user time   =     108.44 seconds =       1.81 minutes
	system time =       4.88 seconds =       0.08 minutes
	total time  =          8 seconds =       0.13 minutes
Total time:
	user time   =    1791.85 seconds =      29.86 minutes
	system time =      78.60 seconds =       1.31 minutes
	total time  =         90 seconds =       1.50 minutes

			-----------------------------------------
			 OPTKING 2.0: for geometry optimizations 
			  - R.A. King,  Bethel University        
			-----------------------------------------
	At level 1: Red. Int., RFO, no backsteps, dynamic trust

	Previous internal coordinate definitions found.
	---Fragment 1 Geometry and Gradient---
	 CU          0.0000000000       -0.0000000000        2.5346728799
	 CU          2.3792443918        0.0000000000       -1.2673364400
	 CU         -2.3792443918       -0.0000000000       -1.2673364400
	             0.0000000000        0.0000000000        0.0017915890
	            -0.0047682292       -0.0000000000       -0.0009013223
	             0.0047682292        0.0000000000       -0.0009013223

	---Fragment 1 Intrafragment Coordinates---
	 - Coordinate -           - BOHR/RAD -       - ANG/DEG -
	 R(1,2)           =         4.485095	       2.373410
	 R(1,3)           =         4.485095	       2.373410
	 R(2,3)           =         4.758489	       2.518084
	 B(1,2,3)         =         1.011632	      57.962242
	 B(1,3,2)         =         1.011632	      57.962242
	 B(2,1,3)         =         1.118329	      64.075516

	Current energy   :     -4920.9917308699

	Energy change for the previous step:
		Projected    :        -0.0056901771
		Actual       :        -0.0020281599

	Performing BFGS update.
	Previous computed or guess Hessian on step 1.
	Steps to be used in Hessian update: 2 1
	Taking RFO optimization step.
	Going to follow RFO solution 1.
	Using RFO vector 1.
	Norm of target step-size    0.11882
	Projected energy change by RFO approximation:        -0.0014792669

	Back-transformation to cartesian coordinates...
	Successfully converged to displaced geometry.

	--- Internal Coordinate Step in ANG or DEG, aJ/ANG or AJ/DEG ---
	 ---------------------------------------------------------------------------
	   Coordinate                Previous        Force       Change         New 
[...]
      84Ap     3.576525    40App    3.578932    85Ap     3.582420  
      41App    3.583414    42App    3.583969    86Ap     3.584979  
      43App    3.585864    87Ap     3.586271    44App    3.586959  
      88Ap     3.587348    45App    3.590930    89Ap     3.591166  
      90Ap     3.606877    91Ap     3.607325    92Ap     3.676357  
      93Ap     3.709049    46App    3.792861    94Ap     3.806118  
      47App    3.816775    48App    3.834700    95Ap     3.858226  
      96Ap     3.875009    49App    3.879735    50App    3.928517  
      51App    3.928909    97Ap     3.933482    98Ap     4.039676  
      99Ap     4.053196   100Ap     4.114999   101Ap     4.266713  
     102Ap     4.273297    52App   12.999661   103Ap    13.000009  
      53App   13.000625   104Ap    13.000664   105Ap    13.001055  
      54App   13.001066   106Ap    13.001268    55App   13.002129  
     107Ap    13.002671   108Ap    13.016459   109Ap    13.016485  
     110Ap    13.016875    56App   13.016954    57App   13.017008  
      58App   13.017367   111Ap    13.017409    59App   13.017502  
      60App   13.017726   112Ap    13.017891    61App   13.017973  
     113Ap    13.017973   114Ap    13.018179   115Ap    13.018294  
      62App   13.018738    63App   13.018792   116Ap    13.018816  
     117Ap    13.018876    64App   13.209413   118Ap    13.210226  
      65App   13.212395    66App   13.212907   119Ap    13.214040  
     120Ap    13.219715   121Ap    13.222092    67App   13.224090  
      68App   13.224285   122Ap    13.224390   123Ap    13.224669  
      69App   13.226669    70App   13.228105   124Ap    13.228440  
      71App   13.231167   125Ap    13.232436   126Ap    13.235982  
      72App   13.236077   127Ap    13.246653   128Ap    13.300850  
     129Ap    13.303521  

    Beta Occupied:                                                        

       1Ap  -323.922053     2Ap  -323.906591     3Ap  -323.906539  
       4Ap   -39.049514     5Ap   -39.034817     6Ap   -39.034743  
       7Ap   -34.314338     1App  -34.313950     8Ap   -34.313859  
       9Ap   -34.299919    10Ap   -34.299868    11Ap   -34.299412  
      12Ap   -34.299359     2App  -34.299081     3App  -34.299030  
      13Ap    -4.404884    14Ap    -4.388305    15Ap    -4.388247  
      16Ap    -2.926889     4App   -2.924484    17Ap    -2.924304  
      18Ap    -2.910217    19Ap    -2.909995    20Ap    -2.908757  
      21Ap    -2.908026     5App   -2.907747     6App   -2.907666  
      22Ap    -0.427460    23Ap    -0.419172     7App   -0.414389  
      24Ap    -0.409214     8App   -0.405148    25Ap    -0.392681  
       9App   -0.387958    26Ap    -0.379756    27Ap    -0.379011  
      10App   -0.377167    11App   -0.375532    28Ap    -0.374571  
      12App   -0.372380    29Ap    -0.371612    30Ap    -0.357800  
      31Ap    -0.299956  

    Beta Virtual:                                                         

      32Ap    -0.034677    33Ap    -0.031922    34Ap    -0.004158  
      13App    0.005801    35Ap     0.020707    36Ap     0.025102  
      14App    0.028208    37Ap     0.030350    15App    0.034294  
      38Ap     0.035615    39Ap     0.044022    40Ap     0.121575  
      16App    0.131103    41Ap     0.152205    42Ap     0.166626  
      43Ap     0.176781    44Ap     0.204262    45Ap     0.205443  
      17App    0.207577    18App    0.211603    46Ap     0.239949  
      47Ap     0.246432    19App    0.251436    20App    0.254123  
      48Ap     0.255232    49Ap     0.258135    21App    0.271658  
      50Ap     0.308487    51Ap     0.314986    22App    0.324247  
      52Ap     0.345484    53Ap     0.358332    23App    0.359953  
      54Ap     0.360583    24App    0.365574    55Ap     0.461379  
      56Ap     0.519105    57Ap     0.541662    58Ap     0.706079  
      25App    0.729245    59Ap     0.745504    60Ap     0.765124  
      26App    0.797466    27App    0.806643    61Ap     0.861920  
      62Ap     0.862126    63Ap     0.900900    28App    0.902103  
      29App    0.929452    64Ap     0.945540    30App    0.969141  
      65Ap     1.004674    66Ap     1.028705    67Ap     1.041267  
      31App    1.105746    68Ap     1.113609    69Ap     1.157332  
      32App    1.164220    33App    1.190798    70Ap     1.287923  
      71Ap     1.376024    72Ap     1.390327    73Ap     3.053449  
      34App    3.063015    74Ap     3.129346    75Ap     3.134803  
      35App    3.151772    76Ap     3.168924    36App    3.169123  
      77Ap     3.221306    78Ap     3.261322    79Ap     3.348573  
      80Ap     3.494226    81Ap     3.504058    82Ap     3.542021  
      37App    3.548445    38App    3.550076    83Ap     3.567227  
      39App    3.567847    84Ap     3.577372    40App    3.579770  
      85Ap     3.583347    41App    3.585622    42App    3.586112  
      43App    3.586963    86Ap     3.587138    87Ap     3.587255  
      44App    3.587666    88Ap     3.589066    45App    3.591550  
      89Ap     3.592126    90Ap     3.607320    91Ap     3.608290  
      92Ap     3.676084    93Ap     3.708961    46App    3.791592  
      94Ap     3.807285    47App    3.817899    48App    3.834980  
      95Ap     3.859574    96Ap     3.875842    49App    3.879693  
      50App    3.927429    51App    3.927675    97Ap     3.931871  
      98Ap     4.039552    99Ap     4.054582   100Ap     4.116998  
     101Ap     4.266202   102Ap     4.272221    52App   12.999504  
     103Ap    12.999929    53App   13.000802   104Ap    13.001103  
      54App   13.001239   105Ap    13.001388   106Ap    13.001500  
      55App   13.001549   107Ap    13.001940    56App   13.016644  
      57App   13.016694   108Ap    13.016699   109Ap    13.016918  
     110Ap    13.017202    58App   13.017260   111Ap    13.017314  
     112Ap    13.017577    59App   13.017598    60App   13.018053  
      61App   13.018138   113Ap    13.018254   114Ap    13.018323  
     115Ap    13.018556    62App   13.019236    63App   13.019289  
     116Ap    13.019610   117Ap    13.019754    64App   13.209153  
     118Ap    13.210199    65App   13.212238    66App   13.213293  
     119Ap    13.213868   120Ap    13.219902   121Ap    13.221436  
      67App   13.223952    68App   13.224001   122Ap    13.224313  
     123Ap    13.224449    69App   13.225055    70App   13.226955  
     124Ap    13.227603    71App   13.230001   125Ap    13.231031  
      72App   13.235063   126Ap    13.235496   127Ap    13.245557  
     128Ap    13.299955   129Ap    13.303333  

    Final Occupation by Irrep:
             Ap   App 
    DOCC [    31,   12 ]
    SOCC [     1,    0 ]

  @DF-UKS Final Energy: -4920.99244824873131

   => Energetics <=

    Nuclear Repulsion Energy =            543.2148745100676024
    One-Electron Energy =               -7948.8969234076330395
    Two-Electron Energy =                2594.6358757931825494
    DFT Exchange-Correlation Energy =    -109.9447156443485198
    Empirical Dispersion Energy =          -0.0015595000000000
    VV10 Nonlocal Energy =                  0.0000000000000000
    Total Energy =                      -4920.9924482487322166

  UHF NO Occupations:
  HONO-2 :   30 Ap 1.9995206
  HONO-1 :   31 Ap 1.9877947
  HONO-0 :   32 Ap 1.0000000
  LUNO+0 :   33 Ap 0.0122053
  LUNO+1 :   34 Ap 0.0004794
  LUNO+2 :   35 Ap 0.0002607
  LUNO+3 :   13App 0.0001979


Computation Completed


Properties will be evaluated at   0.000000,   0.000000,   0.000000 [a0]

Properties computed using the SCF density matrix

  Nuclear Dipole Moment: [e a0]
     X:     0.0000      Y:     0.0000      Z:    -0.0000

  Electronic Dipole Moment: [e a0]
     X:    -0.0008      Y:     0.0000      Z:     0.0628

  Dipole Moment: [e a0]
     X:    -0.0008      Y:     0.0000      Z:     0.0628     Total:     0.0628

  Dipole Moment: [D]
     X:    -0.0020      Y:     0.0000      Z:     0.1597     Total:     0.1597


*** tstop() called on bp1-compute00133.data.bp.acrc.priv at Fri Oct 29 08:40:43 2021
Module time:
	user time   =     702.35 seconds =      11.71 minutes
	system time =      25.40 seconds =       0.42 minutes
	total time  =         31 seconds =       0.52 minutes
Total time:
	user time   =    9193.35 seconds =     153.22 minutes
	system time =     370.53 seconds =       6.18 minutes
	total time  =        454 seconds =       7.57 minutes

*** tstart() called on bp1-compute00133.data.bp.acrc.priv
*** at Fri Oct 29 08:40:43 2021


         ------------------------------------------------------------
                                   SCF GRAD                          
                          Rob Parrish, Justin Turney,                
                       Andy Simmonett, and Alex Sokolov              
         ------------------------------------------------------------

  ==> Geometry <==

    Molecular point group: cs
    Full point group: Cs

    Geometry (in Angstrom), charge = 0, multiplicity = 2:

       Center              X                  Y                   Z               Mass       
    ------------   -----------------  -----------------  -----------------  -----------------
         CU          -0.000208476172     0.000000000000     1.297938766900    62.929597720000
         CU           1.337489795091     0.000000000000    -0.649121128755    62.929597720000
         CU          -1.337281318919     0.000000000000    -0.648817638145    62.929597720000

  Nuclear repulsion =  543.214874510067602

  ==> Basis Set <==

  Basis Set: DEF2-TZVPPD
    Blend: DEF2-TZVPPD
    Number of shells: 57
    Number of basis function: 201
    Number of Cartesian functions: 249
    Spherical Harmonics?: true
    Max angular momentum: 4

  ==> DFJKGrad: Density-Fitted SCF Gradients <==

    Gradient:                    1
    J tasked:                  Yes
    K tasked:                  Yes
    wK tasked:                 Yes
    Omega:               2.500E-01
    OpenMP threads:             24
    Integrals threads:          24
    Memory [MiB]:           102996
    Schwarz Cutoff:          0E+00
    Fitting Condition:       1E-10

   => Auxiliary Basis Set <=

  Basis Set: (DEF2-TZVPPD AUX)
    Blend: DEF2-TZVPP-JKFIT
    Number of shells: 174
    Number of basis function: 792
    Number of Cartesian functions: 1131
    Spherical Harmonics?: true
    Max angular momentum: 6

  ==> DFT Potential <==

   => Composite Functional: M11-D3BJ <= 

    M11 Meta-GGA XC Functional

    R. Peverati and D. G. Truhlar, J. Phys. Chem. Lett., 2, 2810, 2011


    Deriv               =              1
    GGA                 =           TRUE
    Meta                =           TRUE

    Exchange Hybrid     =           TRUE
    MP2 Hybrid          =          FALSE

   => Exchange Functionals <=

    1.0000   XC_HYB_MGGA_X_M11 [omega = 0.2500]

   => Exact (HF) Exchange <=

    0.5720            HF,LR [omega = 0.2500]
    0.4280               HF 

   => Correlation Functionals <=

    1.0000    XC_MGGA_C_M11

   => Molecular Quadrature <=

    Radial Scheme          =       TREUTLER
    Pruning Scheme         =           FLAT
    Nuclear Scheme         =       TREUTLER

    BS radius alpha        =              1
    Pruning alpha          =              1
    Radial Points          =             75
    Spherical Points       =            302
    Total Points           =          67950
    Total Blocks           =            589
    Max Points             =            256
    Max Functions          =            191


  -Total Gradient:
     Atom            X                  Y                   Z
    ------   -----------------  -----------------  -----------------
       1       -0.000013692227     0.000000000000     0.000079650355
       2        0.000072207592     0.000000000000    -0.000108954696
       3       -0.000058408460     0.000000000000    -0.000088297855


*** tstop() called on bp1-compute00133.data.bp.acrc.priv at Fri Oct 29 08:40:51 2021
Module time:
	user time   =     108.64 seconds =       1.81 minutes
	system time =       5.10 seconds =       0.09 minutes
	total time  =          8 seconds =       0.13 minutes
Total time:
	user time   =    9303.61 seconds =     155.06 minutes
	system time =     375.75 seconds =       6.26 minutes
	total time  =        462 seconds =       7.70 minutes

         ----------------------------------------------------------
                                   FINDIF
                     R. A. King and Jonathon Misiewicz
         ---------------------------------------------------------

  Computing second-derivative from gradients using projected, 
  symmetry-adapted, cartesian coordinates.

  6 gradients passed in, including the reference geometry.
  Generating complete list of displacements from unique ones.

    Operation 2 takes plus displacements of irrep B1 to minus ones.

-------------------------------------------------------------


  ==> Harmonic Vibrational Analysis <==

  non-mass-weighted Hessian:       Symmetric? True   Hermitian? True   Lin Dep Dim?  6 (0)
  projection of translations (True) and rotations (True) removed 6 degrees of freedom (6)
  total projector:                 Symmetric? True   Hermitian? True   Lin Dep Dim?  6 (6)
  mass-weighted Hessian:           Symmetric? True   Hermitian? True   Lin Dep Dim?  6 (0)
  pre-proj  low-frequency mode:    0.0000i [cm^-1]
  pre-proj  low-frequency mode:    0.0000i [cm^-1]
  pre-proj  low-frequency mode:    0.0000  [cm^-1]
  pre-proj  low-frequency mode:    0.0000  [cm^-1]
  pre-proj  low-frequency mode:    0.0000  [cm^-1]
  pre-proj  low-frequency mode:    0.0000  [cm^-1]
  pre-proj  low-frequency mode:   92.0385  [cm^-1]
  pre-proj  all modes:['0.0000i' '0.0000i' '0.0000' '0.0000' '0.0000' '0.0000' '92.0385'
 '121.8020' '230.1137']
  projected mass-weighted Hessian: Symmetric? True   Hermitian? True   Lin Dep Dim?  6 (6)
  post-proj low-frequency mode:    0.0000i [cm^-1] (TR)
  post-proj low-frequency mode:    0.0000  [cm^-1] (TR)
  post-proj low-frequency mode:    0.0000  [cm^-1] (TR)
  post-proj low-frequency mode:    0.0000  [cm^-1] (TR)
  post-proj low-frequency mode:    0.0000  [cm^-1] (TR)
  post-proj low-frequency mode:    0.0000  [cm^-1] (TR)
  post-proj low-frequency mode:   92.0385  [cm^-1] (V)
  post-proj  all modes:['0.0000i' '0.0000' '0.0000' '0.0000' '0.0000' '0.0000' '92.0385'
 '121.8020' '230.1137']

  Vibration                       7                   8                   9           
  Freq [cm^-1]                 92.0385             121.8020            230.1137       
  Irrep                           A1                  B1                  A1          
  Reduced mass [u]             62.9296             62.9296             62.9296        
  Force const [mDyne/A]         0.3141              0.5501              1.9633        
  Turning point v=0 [a0]        0.1442              0.1253              0.0912        
  RMS dev v=0 [a0 u^1/2]        0.8087              0.7030              0.5115        
  Char temp [K]                132.4229            175.2459            331.0823       
  ----------------------------------------------------------------------------------
      1   CU              -0.00  0.00 -0.36    0.63  0.00 -0.00   -0.00  0.00  0.73   
      2   CU               0.63  0.00  0.18   -0.31  0.00  0.45    0.31  0.00 -0.37   
      3   CU              -0.63 -0.00  0.18   -0.31 -0.00 -0.45   -0.31 -0.00 -0.37   

  ==> Thermochemistry Components <==

  Entropy, S
    Electronic S            1.377 [cal/(mol K)]        5.763 [J/(mol K)]       0.00219507 [mEh/K] (multiplicity = 2)
    Translational S        41.612 [cal/(mol K)]      174.105 [J/(mol K)]       0.06631321 [mEh/K] (mol. weight = 188.7888 [u], P = 101325.00 [Pa])
    Rotational S           26.551 [cal/(mol K)]      111.090 [J/(mol K)]       0.04231184 [mEh/K] (symmetry no. = 2)
    Vibrational S           8.566 [cal/(mol K)]       35.840 [J/(mol K)]       0.01365063 [mEh/K]
  Total S                  78.107 [cal/(mol K)]      326.798 [J/(mol K)]       0.12447075 [mEh/K]
  Correction S              0.000 [cal/(mol K)]        0.000 [J/(mol K)]       0.00000000 [mEh/K]

  Constant volume heat capacity, Cv
    Electronic Cv           0.000 [cal/(mol K)]        0.000 [J/(mol K)]       0.00000000 [mEh/K]
    Translational Cv        2.981 [cal/(mol K)]       12.472 [J/(mol K)]       0.00475022 [mEh/K]
    Rotational Cv           2.981 [cal/(mol K)]       12.472 [J/(mol K)]       0.00475022 [mEh/K]
    Vibrational Cv          5.681 [cal/(mol K)]       23.769 [J/(mol K)]       0.00905297 [mEh/K]
  Total Cv                 11.642 [cal/(mol K)]       48.712 [J/(mol K)]       0.01855340 [mEh/K]
  Correction Cv             0.000 [cal/(mol K)]        0.000 [J/(mol K)]       0.00000000 [mEh/K]

  Constant pressure heat capacity, Cp
    Electronic Cp           0.000 [cal/(mol K)]        0.000 [J/(mol K)]       0.00000000 [mEh/K]
    Translational Cp        4.968 [cal/(mol K)]       20.786 [J/(mol K)]       0.00791703 [mEh/K]
    Rotational Cp           2.981 [cal/(mol K)]       12.472 [J/(mol K)]       0.00475022 [mEh/K]
    Vibrational Cp          5.681 [cal/(mol K)]       23.769 [J/(mol K)]       0.00905297 [mEh/K]
  Total Cp                 13.630 [cal/(mol K)]       57.026 [J/(mol K)]       0.02172021 [mEh/K]
  Correction Cp             0.000 [cal/(mol K)]        0.000 [J/(mol K)]       0.00000000 [mEh/K]

  ==> Thermochemistry Energy Analysis <==

  Raw electronic energy, E0
  Total E0, Electronic energy at well bottom at 0 [K]                -4920.99244824 [Eh]

  Zero-point energy, ZPE_vib = Sum_i nu_i / 2
    Electronic ZPE          0.000 [kcal/mol]        0.000 [kJ/mol]       0.00000000 [Eh]
    Translational ZPE       0.000 [kcal/mol]        0.000 [kJ/mol]       0.00000000 [Eh]
    Rotational ZPE          0.000 [kcal/mol]        0.000 [kJ/mol]       0.00000000 [Eh]
    Vibrational ZPE         0.635 [kcal/mol]        2.655 [kJ/mol]       0.00101140 [Eh]         221.977 [cm^-1]
  Correction ZPE            0.635 [kcal/mol]        2.655 [kJ/mol]       0.00101140 [Eh]         221.977 [cm^-1]
  Total ZPE, Electronic energy at 0 [K]                              -4920.99143684 [Eh]

  Thermal Energy, E (includes ZPE)
    Electronic E            0.000 [kcal/mol]        0.000 [kJ/mol]       0.00000000 [Eh]
    Translational E         0.889 [kcal/mol]        3.718 [kJ/mol]       0.00141628 [Eh]
    Rotational E            0.889 [kcal/mol]        3.718 [kJ/mol]       0.00141628 [Eh]
    Vibrational E           1.864 [kcal/mol]        7.798 [kJ/mol]       0.00297014 [Eh]
  Correction E              3.641 [kcal/mol]       15.235 [kJ/mol]       0.00580269 [Eh]
  Total E, Electronic energy at  298.15 [K]                          -4920.98664555 [Eh]

  Enthalpy, H_trans = E_trans + k_B * T
    Electronic H            0.000 [kcal/mol]        0.000 [kJ/mol]       0.00000000 [Eh]
    Translational H         1.481 [kcal/mol]        6.197 [kJ/mol]       0.00236046 [Eh]
    Rotational H            0.889 [kcal/mol]        3.718 [kJ/mol]       0.00141628 [Eh]
    Vibrational H           1.864 [kcal/mol]        7.798 [kJ/mol]       0.00297014 [Eh]
  Correction H              4.234 [kcal/mol]       17.714 [kJ/mol]       0.00674688 [Eh]
  Total H, Enthalpy at  298.15 [K]                                   -4920.98570137 [Eh]

  Gibbs free energy, G = H - T * S
    Electronic G           -0.411 [kcal/mol]       -1.718 [kJ/mol]      -0.00065446 [Eh]
    Translational G       -10.925 [kcal/mol]      -45.712 [kJ/mol]      -0.01741082 [Eh]
    Rotational G           -7.027 [kcal/mol]      -29.403 [kJ/mol]      -0.01119900 [Eh]
    Vibrational G          -0.690 [kcal/mol]       -2.888 [kJ/mol]      -0.00109980 [Eh]
  Correction G            -19.054 [kcal/mol]      -79.721 [kJ/mol]      -0.03036408 [Eh]
  Total G, Free enthalpy at  298.15 [K]                              -4921.02281232 [Eh]

    Psi4 stopped on: Friday, 29 October 2021 08:40AM
    Psi4 wall time for execution: 0:07:42.20

*** Psi4 exiting successfully. Buy a developer a beer!
