Optimizer: Optimization complete!
 6 displacements needed.
 1 2 3 4 5 6
Warning: thermodynamics relations excluded imaginary frequencies: ['35.4184i' '35.4184i']
Warning: used thermodynamics relations inappropriate for low-frequency modes: ['140.8999' '198.3403']
At level 1: Red. Int., RFO, no backsteps, dynamic trust
At level 1: Red. Int., RFO, no backsteps, dynamic trust
At level 1: Red. Int., RFO, no backsteps, dynamic trust
At level 1: Red. Int., RFO, no backsteps, dynamic trust
At level 1: Red. Int., RFO, no backsteps, dynamic trust
er III, K. Patkowski, R. A. King, E. F. Valeev,
    F. A. Evangelista, J. M. Turney, T. D. Crawford, and C. D. Sherrill,
    J. Chem. Theory Comput. 13(7) pp 3185--3197 (2017).
    (doi: 10.1021/acs.jctc.7b00174)


                         Additional Contributions by
    P. Kraus, H. Kruse, M. H. Lechner, M. C. Schieber, R. A. Shaw,
    A. Alenaizan, R. Galvelis, Z. L. Glick, S. Lehtola, and J. P. Misiewicz

    -----------------------------------------------------------------------


    Psi4 started on: Friday, 29 October 2021 08:32AM

    Process ID: 143869
    Host:       bp1-compute00137.data.bp.acrc.priv
    PSIDATADIR: /work/zw18965/.conda/envs/p4env/share/psi4
    Memory:     500.0 MiB
    Threads:    24
    
  ==> Input File <==

--------------------------------------------------------------------------
memory 144 GB

molecule {
0 2
Cu       0.000000    0.000000    0.000000 
Cu       0.000000    0.000000    2.291099 
Cu       0.000000    0.000000   -2.291099 
 }

set reference uks
set dynamic_level 1
set basis Def2-TZVPPD

optimize("M11-D3BJ")
frequencies("M11-D3BJ")
--------------------------------------------------------------------------

  Memory set to 134.110 GiB by Python driver.
gradient() will perform analytic gradient computation.

*** tstart() called on bp1-compute00137.data.bp.acrc.priv
*** at Fri Oct 29 08:32:10 2021

   => Loading Basis Set <=

    Name: DEF2-TZVPPD
    Role: ORBITAL
    Keyword: BASIS
    atoms 1-3 entry CU         line  1290 file /work/zw18965/.conda/envs/p4env/share/psi4/basis/def2-tzvppd.gbs 


         ---------------------------------------------------------
                                   SCF
               by Justin Turney, Rob Parrish, Andy Simmonett
                          and Daniel G. A. Smith
                              UKS Reference
                       24 Threads, 137329 MiB Core
         ---------------------------------------------------------

  ==> Geometry <==

    Molecular point group: d2h
    Full point group: D_inf_h

    Geometry (in Angstrom), charge = 0, multiplicity = 2:

       Center              X                  Y                   Z               Mass       
    ------------   -----------------  -----------------  -----------------  -----------------
         CU           0.000000000000     0.000000000000     0.000000000000    62.929597720000
         CU           0.000000000000     0.000000000000     2.291099000000    62.929597720000
         CU           0.000000000000     0.000000000000    -2.291099000000    62.929597720000

  Running in d2h symmetry.

  Rotational constants: A = ************  B =      0.02552  C =      0.02552 [cm^-1]
  Rotational constants: A = ************  B =    764.97023  C =    764.97023 [MHz]
  Nuclear repulsion =  485.616328859501607

  Charge       = 0
  Multiplicity = 2
  Electrons    = 87
  Nalpha       = 44
  Nbeta        = 43

  ==> Algorithm <==

  SCF Algorithm Type is DF.
  DIIS enabled.
  MOM disabled.
  Fractional occupation disabled.
  Guess Type is SAD.
  Energy threshold   = 1.00e-08
  Density threshold  = 1.00e-08
  Integral threshold = 0.00e+00

  ==> Primary Basis <==

  Basis Set: DEF2-TZVPPD
    Blend: DEF2-TZVPPD
    Number of shells: 57
    Number of basis function: 201
    Number of Cartesian functions: 249
    Spherical Harmonics?: true
    Max angular momentum: 4

  ==> DFT Potential <==

   => Composite Functional: M11-D3BJ <= 

    M11 Meta-GGA XC Functional

    R. Peverati and D. G. Truhlar, J. Phys. Chem. Lett., 2, 2810, 2011


    Deriv               =              1
    GGA                 =           TRUE
    Meta                =           TRUE

    Exchange Hybrid     =           TRUE
    MP2 Hybrid          =          FALSE

   => Exchange Functionals <=

    1.0000   XC_HYB_MGGA_X_M11 [omega = 0.2500]

   => Exact (HF) Exchange <=

    0.5720            HF,LR [omega = 0.2500]
    0.4280               HF 

   => Correlation Functionals <=

    1.0000    XC_MGGA_C_M11

   => Molecular Quadrature <=

    Radial Scheme          =       TREUTLER
    Pruning Scheme         =           FLAT
    Nuclear Scheme         =       TREUTLER

    BS radius alpha        =              1
    Pruning alpha          =              1
    Radial Points          =             75
    Spherical Points       =            302
    Total Points           =          67950
    Total Blocks           =            622
    Max Points             =            253
    Max Functions          =            170

   => M11-D3(BJ): Empirical Dispersion <=

    Grimme's -D3 (BJ-damping) Dispersion Correction
    Grimme S.; Ehrlich S.; Goerigk L. (2011), J. Comput. Chem., 32: 1456
    Parametrisation from:    L. Goerigk, J. Phys. Chem. Lett. 6, 3891-3896, 2015

        s6 =       1.000000
        s8 =       2.811200
        a1 =       0.000000
        a2 =      10.138900

   => Loading Basis Set <=

    Name: (DEF2-TZVPPD AUX)
    Role: JKFIT
    Keyword: DF_BASIS_SCF
    atoms 1-3 entry CU         line  2361 file /work/zw18965/.conda/envs/p4env/share/psi4/basis/def2-tzvpp-jkfit.gbs 

  ==> Pre-Iterations <==

   -------------------------------------------------------
    Irrep   Nso     Nmo     Nalpha   Nbeta   Ndocc  Nsocc
   -------------------------------------------------------
     Ag        44      44       0       0       0       0
     B1g       14      14       0       0       0       0
     B2g       22      22       0       0       0       0
     B3g       22      22       0       0       0       0
     Au        10      10       0       0       0       0
     B1u       37      37       0       0       0       0
     B2u       26      26       0       0       0       0
     B3u       26      26       0       0       0       0
   -------------------------------------------------------
    Total     201     201      44      43      43       1
   -------------------------------------------------------

  ==> Integral Setup <==

  ==> DiskDFJK: Density-Fitted J/K Matrices <==

    J tasked:                  Yes
    K tasked:                  Yes
    wK tasked:                 Yes
    Omega:               2.500E-01
    OpenMP threads:             24
    Integrals threads:          24
    Memory [MiB]:           102374
    Algorithm:                Core
    Integral Cache:           NONE
    Schwarz Cutoff:          1E-12
    Fitting Condition:       1E-10

   => Auxiliary Basis Set <=

  Basis Set: (DEF2-TZVPPD AUX)
    Blend: DEF2-TZVPP-JKFIT
    Number of shells: 174
    Number of basis function: 792
    Number of Cartesian functions: 1131
    Spherical Harmonics?: true
    Max angular momentum: 6

  Cached 100.0% of DFT collocation blocks in 0.608 [GiB].

  Minimum eigenvalue in the overlap matrix is 3.3211269377E-04.
  Using Symmetric Orthogonalization.

  SCF Guess: Superposition of Atomic Densities via on-the-fly atomic UHF.

  ==> Iterations <==

                           Total Energy        Delta E     RMS |[F,P]|

   @DF-UKS iter SAD: -4912.86432450966731   -4.91286e+03   0.00000e+00 
    Occupation by irrep:
             Ag   B1g   B2g   B3g    Au   B1u   B2u   B3u 
    DOCC [    13,    1,    3,    4,    0,   10,    6,    6 ]
    SOCC [     0,    0,    0,    0,    0,    1,    0,    0 ]

   @DF-UKS iter   1: -4913.09440682599779   -2.30082e-01   9.07704e-02 DIIS
    Occupation by irrep:
             Ag   B1g   B2g   B3g    Au   B1u   B2u   B3u 
    DOCC [    13,    2,    4,    4,    1,    9,    5,    5 ]
    SOCC [     0,    0,    0,    0,    0,    1,    0,    0 ]

   @DF-UKS iter   2: -4781.98725373319576    1.31107e+02   1.96272e-01 DIIS
    Occupation by irrep:
             Ag   B1g   B2g   B3g    Au   B1u   B2u   B3u 
    DOCC [    12,    1,    4,    3,    1,   10,    6,    6 ]
    SOCC [     0,    0,    0,    0,    0,    1,    0,    0 ]

   @DF-UKS iter   3: -4917.50349009835736   -1.35516e+02   5.29327e-02 DIIS
    Occupation by irrep:
             Ag   B1g   B2g   B3g    Au   B1u   B2u   B3u 
    DOCC [    13,    2,    4,    4,    1,    9,    5,    5 ]
    SOCC [     0,    0,    0,    0,    0,    1,    0,    0 ]

   @DF-UKS iter   4: -4881.81759202116973    3.56859e+01   8.50052e-02 DIIS
   @DF-UKS iter   5: -4918.95460265380552   -3.71370e+01   4.49907e-02 DIIS
   @DF-UKS iter   6: -4920.44312945034653   -1.48853e+00   2.10300e-02 DIIS
   @DF-UKS iter   7: -4920.94741313275972   -5.04284e-01   3.94956e-03 DIIS
   @DF-UKS iter   8: -4920.97617209421060   -2.87590e-02   1.09438e-03 DIIS
   @DF-UKS iter   9: -4920.97831071248766   -2.13862e-03   1.88433e-04 DIIS
   @DF-UKS iter  10: -4920.97884669093037   -5.35978e-04   1.48566e-04 DIIS
   @DF-UKS iter  11: -4920.97909797300417   -2.51282e-04   7.23322e-05 DIIS
   @DF-UKS iter  12: -4920.97916969309608   -7.17201e-05   3.13407e-05 DIIS
   @DF-UKS iter  13: -4920.97917851962666   -8.82653e-06   3.58268e-06 DIIS
   @DF-UKS iter  14: -4920.97917879292618   -2.73300e-07   1.36742e-06 DIIS
   @DF-UKS iter  15: -4920.97917883877381   -4.58476e-08   5.26286e-07 DIIS
   @DF-UKS iter  16: -4920.97917884517392   -6.40011e-09   2.20324e-07 DIIS
   @DF-UKS iter  17: -4920.97917884628077   -1.10686e-09   8.73309e-08 DIIS
   @DF-UKS iter  18: -4920.97917884648996   -2.09184e-10   3.54013e-08 DIIS
   @DF-UKS iter  19: -4920.97917884650633   -1.63709e-11   1.97776e-08 DIIS
   @DF-UKS iter  20: -4920.97917884650633    0.00000e+00   4.32875e-09 DIIS
  Energy and wave function converged.


  ==> Post-Iterations <==

   @Spin Contamination Metric:   4.904006112E-02
   @S^2 Expected:                7.500000000E-01
   @S^2 Observed:                7.990400611E-01
   @S   Expected:                5.000000000E-01
   @S   Observed:                5.000000000E-01

    Orbital Energies [Eh]
    ---------------------

    Alpha Occupied:                                                       

       1B1u -323.915877     1Ag  -323.915873     2Ag  -323.894060  
       2B1u  -39.041908     3Ag   -39.041872     4Ag   -39.024100  
       5Ag   -34.306863     3B1u  -34.306860     1B3g  -34.305946  
       1B2g  -34.305946     1B2u  -34.305942     1B3u  -34.305942  
       4B1u  -34.289179     2B3u  -34.288005     2B2u  -34.288005  
       5B1u   -4.398673     6Ag    -4.398622     7Ag    -4.377608  
       6B1u   -2.920664     8Ag    -2.920095     2B2g   -2.917028  
       2B3g   -2.917028     3B3u   -2.917027     3B2u   -2.917027  
       7B1u   -2.900290     4B3u   -2.895762     4B2u   -2.895762  
       9Ag    -0.428607     3B2g   -0.410178     3B3g   -0.410178  
       8B1u   -0.396649     5B3u   -0.396120     5B2u   -0.396120  
      10Ag    -0.393627     1B1g   -0.393612     9B1u   -0.392657  
       1Au    -0.392643    11Ag    -0.369044     2B1g   -0.369027  
       4B2g   -0.356160     4B3g   -0.356160    12Ag    -0.353618  
      13Ag    -0.290281    10B1u   -0.239841  

    Alpha Virtual:                                                        

      14Ag     0.005746    11B1u    0.023003     6B2u    0.024844  
       6B3u    0.024844     5B2g    0.052857     5B3g    0.052857  
      15Ag     0.073185     7B3u    0.091803     7B2u    0.091803  
      12B1u    0.102477    16Ag     0.124916     8B2u    0.147663  
       8B3u    0.147663    13B1u    0.155649     6B2g    0.176952  
       6B3g    0.176952    17Ag     0.203940    18Ag     0.221201  
       3B1g    0.221201     2Au     0.251922    14B1u    0.251922  
       9B2u    0.254860     9B3u    0.254860    19Ag     0.274429  
      15B1u    0.276317     7B2g    0.280709     7B3g    0.280709  
      20Ag     0.326696     4B1g    0.326697    16B1u    0.327903  
      10B3u    0.385034    10B2u    0.385034    21Ag     0.408320  
       8B2g    0.492680     8B3g    0.492680    22Ag     0.549196  
      17B1u    0.615898    18B1u    0.702370    11B3u    0.732725  
      11B2u    0.732725     9B2g    0.762768     9B3g    0.762768  
      12B2u    0.823342    12B3u    0.823342    23Ag     0.839363  
      24Ag     0.953135     5B1g    0.953161    10B2g    0.977277  
      10B3g    0.977277    19B1u    0.977823    20B1u    0.993582  
       3Au     0.993608    13B3u    1.055466    13B2u    1.055466  
      25Ag     1.065833    26Ag     1.070479     6B1g    1.070511  
      11B2g    1.280260    11B3g    1.280260    21B1u    1.315046  
      27Ag     1.601418    14B3u    3.063259    14B2u    3.063259  
      28Ag     3.086406    12B2g    3.157599    12B3g    3.157599  
      22B1u    3.181765    15B3u    3.187258    15B2u    3.187258  
      23B1u    3.242692    29Ag     3.304272    24B1u    3.464103  
      30Ag     3.515657    16B3u    3.555200    16B2u    3.555200  
      13B2g    3.559590    13B3g    3.559590    25B1u    3.568192  
       4Au     3.568283    31Ag     3.569210     7B1g    3.569299  
      17B3u    3.570906    17B2u    3.570906    14B2g    3.570908  
      14B3g    3.570908    26B1u    3.599295     5Au     3.599410  
      18B3u    3.602900    18B2u    3.602900    27B1u    3.612707  
      19B3u    3.614932    19B2u    3.614932    32Ag     3.711195  
       8B1g    3.785228    33Ag     3.785297     6Au     3.805422  
      28B1u    3.805475    15B2g    3.850256    15B3g    3.850256  
       9B1g    3.858115    34Ag     3.858200    29B1u    3.901746  
      20B3u    3.911051    20B2u    3.911051    16B2g    4.010575  
      16B3g    4.010575    35Ag     4.133820    30B1u    4.221502  
      36Ag     4.566474    21B2u   13.006996    21B3u   13.006996  
       7Au    13.007307    10B1g   13.007365    31B1u   13.007619  
      37Ag    13.007677    17B3g   13.007779    17B2g   13.007779  
      22B3u   13.008186    22B2u   13.008186    18B2g   13.008206  
      18B3g   13.008206    32B1u   13.008372    38Ag    13.008980  
      33B1u   13.009077    39Ag    13.009081     8Au    13.009208  
      11B1g   13.009208    19B2g   13.030148    19B3g   13.030148  
      12B1g   13.030299    40Ag    13.030823    20B2g   13.031755  
      20B3g   13.031755    41Ag    13.032550    13B1g   13.032727  
      42Ag    13.033775    23B3u   13.216602    23B2u   13.216602  
       9Au    13.216704    34B1u   13.216811    14B1g   13.217746  
      43Ag    13.217853    24B2u   13.217992    24B3u   13.217992  
      21B3g   13.217992    21B2g   13.217992    35B1u   13.224305  
      22B3g   13.232306    22B2g   13.232306    25B2u   13.236421  
      25B3u   13.236421    10Au    13.237109    36B1u   13.237260  
      26B3u   13.253910    26B2u   13.253910    44Ag    13.309324  
      37B1u   13.352524  

    Beta Occupied:                                                        

       1B1u -323.914919     1Ag  -323.914915     2Ag  -323.894137  
       2B1u  -39.041535     3Ag   -39.041499     4Ag   -39.024654  
       5Ag   -34.307076     3B1u  -34.307072     1B3g  -34.306234  
       1B2g  -34.306234     1B2u  -34.306231     1B3u  -34.306231  
       4B1u  -34.289089     2B2u  -34.288241     2B3u  -34.288241  
       5B1u   -4.395999     6Ag    -4.395945     7Ag    -4.378764  
       6B1u   -2.919742     8Ag    -2.919197     3B2u   -2.916523  
       3B3u   -2.916523     2B3g   -2.916506     2B2g   -2.916506  
       7B1u   -2.899918     4B2u   -2.896744     4B3u   -2.896744  
       9Ag    -0.427196     3B3g   -0.409080     3B2g   -0.409080  
       8B1u   -0.396494     5B3u   -0.394863     5B2u   -0.394863  
      10Ag    -0.392526     1B1g   -0.392514     9B1u   -0.391493  
       1Au    -0.391482    11Ag    -0.369825     2B1g   -0.369807  
       4B3g   -0.356903     4B2g   -0.356903    12Ag    -0.350782  
      13Ag    -0.256974  

    Beta Virtual:                                                         

      10B1u   -0.053590    14Ag    -0.023036    11B1u   -0.005407  
       6B3u    0.008626     6B2u    0.008626     5B2g    0.028077  
       5B3g    0.028077    15Ag     0.060133     7B3u    0.069728  
       7B2u    0.069728    12B1u    0.094304    16Ag     0.129170  
      13B1u    0.144777     8B3u    0.154828     8B2u    0.154828  
       6B2g    0.186037     6B3g    0.186037    17Ag     0.189663  
      18Ag     0.213937     3B1g    0.213939    14B1u    0.237587  
       2Au     0.237588     9B3u    0.248519     9B2u    0.248519  
      19Ag     0.256796     7B2g    0.258979     7B3g    0.258979  
      15B1u    0.266012    16B1u    0.306772    20Ag     0.316170  
       4B1g    0.316171    10B3u    0.370620    10B2u    0.370620  
      21Ag     0.407984     8B2g    0.487278     8B3g    0.487278  
      22Ag     0.541603    17B1u    0.612343    18B1u    0.700360  
      11B3u    0.734616    11B2u    0.734616     9B2g    0.760623  
       9B3g    0.760623    12B3u    0.823000    12B2u    0.823000  
      23Ag     0.837309    24Ag     0.958249     5B1g    0.958279  
      19B1u    0.973774    10B2g    0.982329    10B3g    0.982329  
      20B1u    1.002815     3Au     1.002861    13B3u    1.058793  
      13B2u    1.058793    25Ag     1.072278     6B1g    1.072310  
      26Ag     1.073845    11B2g    1.280479    11B3g    1.280479  
      21B1u    1.317003    27Ag     1.597777    14B3u    3.064378  
      14B2u    3.064378    28Ag     3.091915    12B2g    3.158067  
      12B3g    3.158067    22B1u    3.184277    15B2u    3.187772  
      15B3u    3.187772    23B1u    3.247038    29Ag     3.306663  
      24B1u    3.469328    30Ag     3.517603    16B3u    3.555712  
      16B2u    3.555712    13B2g    3.561868    13B3g    3.561868  
      25B1u    3.570725     4Au     3.570789    31Ag     3.571743  
       7B1g    3.571804    17B3u    3.572788    17B2u    3.572788  
      14B2g    3.572789    14B3g    3.572789    26B1u    3.599721  
       5Au     3.599832    18B2u    3.602400    18B3u    3.602400  
      27B1u    3.613450    19B2u    3.617011    19B3u    3.617011  
      32Ag     3.709240     8B1g    3.784520    33Ag     3.784611  
       6Au     3.803888    28B1u    3.803967    15B3g    3.851544  
      15B2g    3.851544     9B1g    3.857715    34Ag     3.857803  
      29B1u    3.902642    20B3u    3.911991    20B2u    3.911991  
      16B2g    4.011315    16B3g    4.011315    35Ag     4.137440  
      30B1u    4.223244    36Ag     4.567733    21B2u   13.006558  
      21B3u   13.006558     7Au    13.007248    10B1g   13.007306  
      17B3g   13.007351    17B2g   13.007351    31B1u   13.007560  
      37Ag    13.007618    32B1u   13.007762    38Ag    13.008360  
      22B3u   13.008503    22B2u   13.008503    18B2g   13.008507  
      18B3g   13.008507    33B1u   13.009417    39Ag    13.009418  
      11B1g   13.009544     8Au    13.009544    19B3g   13.029556  
      19B2g   13.029556    12B1g   13.029609    40Ag    13.030129  
      20B2g   13.031189    20B3g   13.031189    41Ag    13.032735  
      13B1g   13.032916    42Ag    13.033229     9Au    13.215246  
      23B2u   13.215248    23B3u   13.215248    21B3g   13.215352  
      21B2g   13.215352    24B3u   13.215352    24B2u   13.215352  
      34B1u   13.215361    14B1g   13.216280    43Ag    13.216395  
      35B1u   13.223274    22B3g   13.230724    22B2g   13.230724  
      25B2u   13.236413    25B3u   13.236413    10Au    13.236913  
      36B1u   13.237065    26B2u   13.254005    26B3u   13.254005  
      44Ag    13.307435    37B1u   13.352103  

    Final Occupation by Irrep:
             Ag   B1g   B2g   B3g    Au   B1u   B2u   B3u 
    DOCC [    13,    2,    4,    4,    1,    9,    5,    5 ]
    SOCC [     0,    0,    0,    0,    0,    1,    0,    0 ]

  @DF-UKS Final Energy: -4920.97917884650633

   => Energetics <=

    Nuclear Repulsion Energy =            485.6163288595016070
    One-Electron Energy =               -7833.9766979560654363
    Two-Electron Energy =                2537.3274874517869648
    DFT Exchange-Correlation Energy =    -109.9448402317305948
    Empirical Dispersion Energy =          -0.0014569700000000
    VV10 Nonlocal Energy =                  0.0000000000000000
    Total Energy =                      -4920.9791788465063291

  UHF NO Occupations:
  HONO-2 :    4B3g 1.9998803
  HONO-1 :   13 Ag 1.9758323
  HONO-0 :   10B1u 1.0000000
  LUNO+0 :   14 Ag 0.0241677
  LUNO+1 :    5B3g 0.0001197
  LUNO+2 :    5B2g 0.0001197
  LUNO+3 :   11B1u 0.0001092


Computation Completed


Properties will be evaluated at   0.000000,   0.000000,   0.000000 [a0]

Properties computed using the SCF density matrix

  Nuclear Dipole Moment: [e a0]
     X:     0.0000      Y:     0.0000      Z:     0.0000

  Electronic Dipole Moment: [e a0]
     X:     0.0000      Y:     0.0000      Z:     0.0000

  Dipole Moment: [e a0]
     X:     0.0000      Y:     0.0000      Z:     0.0000     Total:     0.0000

  Dipole Moment: [D]
     X:     0.0000      Y:     0.0000      Z:     0.0000     Total:     0.0000


*** tstop() called on bp1-compute00137.data.bp.acrc.priv at Fri Oct 29 08:32:36 2021
Module time:
	user time   =     556.90 seconds =       9.28 minutes
	system time =      26.40 seconds =       0.44 minutes
	total time  =         26 seconds =       0.43 minutes
Total time:
	user time   =     556.90 seconds =       9.28 minutes
	system time =      26.40 seconds =       0.44 minutes
	total time  =         26 seconds =       0.43 minutes

*** tstart() called on bp1-compute00137.data.bp.acrc.priv
*** at Fri Oct 29 08:32:36 2021


         ------------------------------------------------------------
                                   SCF GRAD                          
                          Rob Parrish, Justin Turney,                
                       Andy Simmonett, and Alex Sokolov              
         ------------------------------------------------------------

  ==> Geometry <==

    Molecular point group: d2h
    Full point group: D_inf_h

    Geometry (in Angstrom), charge = 0, multiplicity = 2:

       Center              X                  Y                   Z               Mass       
    ------------   -----------------  -----------------  -----------------  -----------------
         CU           0.000000000000     0.000000000000     0.000000000000    62.929597720000
         CU           0.000000000000     0.000000000000     2.291099000000    62.929597720000
         CU           0.000000000000     0.000000000000    -2.291099000000    62.929597720000

  Nuclear repulsion =  485.616328859501607

  ==> Basis Set <==

  Basis Set: DEF2-TZVPPD
    Blend: DEF2-TZVPPD
    Number of shells: 57
    Number of basis function: 201
    Number of Cartesian functions: 249
    Spherical Harmonics?: true
    Max angular momentum: 4

  ==> DFJKGrad: Density-Fitted SCF Gradients <==

    Gradient:                    1
    J tasked:                  Yes
    K tasked:                  Yes
    wK tasked:                 Yes
    Omega:               2.500E-01
    OpenMP threads:             24
    Integrals threads:          24
    Memory [MiB]:           102996
    Schwarz Cutoff:          0E+00
    Fitting Condition:       1E-10

   => Auxiliary Basis Set <=

  Basis Set: (DEF2-TZVPPD AUX)
    Blend: DEF2-TZVPP-JKFIT
    Number of shells: 174
    Number of basis function: 792
    Number of Cartesian functions: 1131
    Spherical Harmonics?: true
    Max angular momentum: 6

  ==> DFT Potential <==

   => Composite Functional: M11-D3BJ <= 

    M11 Meta-GGA XC Functional

    R. Peverati and D. G. Truhlar, J. Phys. Chem. Lett., 2, 2810, 2011


    Deriv               =              1
    GGA                 =           TRUE
    Meta                =           TRUE

    Exchange Hybrid     =           TRUE
    MP2 Hybrid          =          FALSE

   => Exchange Functionals <=

    1.0000   XC_HYB_MGGA_X_M11 [omega = 0.2500]

   => Exact (HF) Exchange <=

    0.5720            HF,LR [omega = 0.2500]
    0.4280               HF 

   => Correlation Functionals <=

    1.0000    XC_MGGA_C_M11

   => Molecular Quadrature <=

    Radial Scheme          =       TREUTLER
    Pruning Scheme         =           FLAT
    Nuclear Scheme         =       TREUTLER

    BS radius alpha        =              1
    Pruning alpha          =              1
    Radial Points          =             75
    Spherical Points       =            302
    Total Points           =          67950
    Total Blocks           =            622
    Max Points             =            253
    Max Functions          =            170


  -Total Gradient:
     Atom            X                  Y                   Z
    ------   -----------------  -----------------  -----------------
       1       -0.000000000000     0.000000000000     0.000000000000
       2        0.000000000000    -0.000000000000    -0.009545861290
       3        0.000000000000     0.000000000000     0.009545861290


*** tstop() called on bp1-compute00137.data.bp.acrc.priv at Fri Oct 29 08:32:44 2021
Module time:
	user time   =     105.24 seconds =       1.75 minutes
	system time =      10.81 seconds =       0.18 minutes
	total time  =          8 seconds =       0.13 minutes
Total time:
	user time   =     663.36 seconds =      11.06 minutes
	system time =      37.28 seconds =       0.62 minutes
	total time  =         34 seconds =       0.57 minutes

			-----------------------------------------
			 OPTKING 2.0: for geometry optimizations 
			  - R.A. King,  Bethel University        
			-----------------------------------------
	At level 1: Red. Int., RFO, no backsteps, dynamic trust

	Internal coordinates to be generated automatically.
	Detected frag 1 with atoms:  1 2 3
	---Fragment 1 Bond Connectivity---
	 1 : 2 3
	 2 : 1
	 3 : 1

	---Fragment 1 Geometry and Gradient---
	 CU          0.0000000000        0.0000000000        0.0000000000
	 CU          0.0000000000        0.0000000000        4.3295496363
	 CU          0.0000000000        0.0000000000       -4.3295496363
	            -0.0000000000        0.0000000000        0.0000000000
	             0.0000000000       -0.0000000000       -0.0095458613
	             0.0000000000        0.0000000000        0.0095458613

	Previous optimization step data not found.  Starting new optimization.

	---Fragment 1 Intrafragment Coordinates---
	 - Coordinate -           - BOHR/RAD -       - ANG/DEG -
	 R(1,2)           =         4.329550	       2.291099
	 R(1,3)           =         4.329550	       2.291099
	 L(2,1,3)         =         3.141593	     180.000000
	 l(2,1,3)         =         3.141593	     180.000000

	Current energy   :     -4920.9791788465

	Generating empirical Hessian (Schlegel '84) for each fragment.
	Taking RFO optimization step.
	Going to follow RFO solution 1.
	Using RFO vector 1.
	Norm of target step-size    0.08933
	Projected energy change by RFO approximation:         0.0027622810

	Back-transformation to cartesian coordinates...
	Successfully converged to displaced geometry.

	--- Internal Coordinate Step in ANG or DEG, aJ/ANG or AJ/DEG ---
	 ---------------------------------------------------------------------------
	   Coordinate                Previous        Force       Change         New 
	   ----------                --------       ------       ------       ------
	    1 R(1,2)          =      2.291099     0.078646     0.033428     2.324527
	    2 R(1,3)          =      2.291099     0.078646     0.033428     2.324527
	    3 L(2,1,3)        =    180.000000     0.000000     0.000000   180.000000
	    4 l(2,1,3)        =    180.000000    -0.000000     0.000000   180.000000
	 ---------------------------------------------------------------------------
	Successfully symmetrized geometry.

  ==> Convergence Check <==

  Measures of convergence in internal coordinates in au.
  Criteria marked as inactive (o), active & met (*), and active & unmet ( ).
  --------------------------------------------------------------------------------------------- ~
   Step     Total Energy     Delta E     MAX Force     RMS Force      MAX Disp      RMS Disp    ~
  --------------------------------------------------------------------------------------------- ~
    Convergence Criteria    1.00e-06 *    3.00e-04 *             o    1.20e-03 *             o  ~
  --------------------------------------------------------------------------------------------- ~
      1   -4920.97917885   -4.92e+03      9.55e-03      6.75e-03 o    6.32e-02      4.47e-02 o  ~
  ---------------------------------------------------------------------------------------------

	Writing optimization data to binary file.
	Structure for next step:
	Cartesian Geometry (in Angstrom)
	   CU     0.0000000000   0.0000000000   0.0000000000
	   CU     0.0000000000  -0.0000000000   2.3245266272
	   CU     0.0000000000  -0.0000000000  -2.3245266272
			--------------------------
			 OPTKING Finished Execution 
			--------------------------

    Structure for next step:
    Molecular point group: d2h
    Full point group: D_inf_h

    Geometry (in Angstrom), charge = 0, multiplicity = 2:

    CU           0.000000000000     0.000000000000     0.000000000000
    CU          -0.000000000000     0.000000000000     2.324526636289
    CU          -0.000000000000     0.000000000000    -2.324526636289

gradient() will perform analytic gradient computation.

*** tstart() called on bp1-compute00137.data.bp.acrc.priv
*** at Fri Oct 29 08:32:44 2021

   => Loading Basis Set <=

    Name: DEF2-TZVPPD
    Role: ORBITAL
    Keyword: BASIS
    atoms 1-3 entry CU         line  1290 file /work/zw18965/.conda/envs/p4env/share/psi4/basis/def2-tzvppd.gbs 


         ---------------------------------------------------------
                                   SCF
               by Justin Turney, Rob Parrish, Andy Simmonett
                          and Daniel G. A. Smith
                              UKS Reference
                       24 Threads, 137329 MiB Core
         ---------------------------------------------------------

  ==> Geometry <==

    Molecular point group: d2h
    Full point group: D_inf_h

    Geometry (in Angstrom), charge = 0, multiplicity = 2:

       Center              X                  Y                   Z               Mass       
    ------------   -----------------  -----------------  -----------------  -----------------
         CU           0.000000000000    -0.000000000000     0.000000000000    62.929597720000
         CU           0.000000000000     0.000000000000     2.324526636289    62.929597720000
         CU           0.000000000000     0.000000000000    -2.324526636289    62.929597720000

  Running in d2h symmetry.

  Rotational constants: A = ************  B =      0.02479  C =      0.02479 [cm^-1]
  Rotational constants: A = ************  B =    743.12726  C =    743.12726 [MHz]
  Nuclear repulsion =  478.632968994367218

  Charge       = 0
  Multiplicity = 2
  Electrons    = 87
  Nalpha       = 44
  Nbeta        = 43

  ==> Algorithm <==

  SCF Algorithm Type is DF.
  DIIS enabled.
  MOM disabled.
  Fractional occupation disabled.
  Guess Type is READ.
  Energy threshold   = 1.00e-08
  Density threshold  = 1.00e-08
  Integral threshold = 0.00e+00

  ==> Primary Basis <==

  Basis Set: DEF2-TZVPPD
    Blend: DEF2-TZVPPD
    Number of shells: 57
    Number of basis function: 201
    Number of Cartesian functions: 249
    Spherical Harmonics?: true
    Max angular momentum: 4

  ==> DFT Potential <==

   => Composite Functional: M11-D3BJ <= 

    M11 Meta-GGA XC Functional

    R. Peverati and D. G. Truhlar, J. Phys. Chem. Lett., 2, 2810, 2011


    Deriv               =              1
    GGA                 =           TRUE
    Meta                =           TRUE

    Exchange Hybrid     =           TRUE
    MP2 Hybrid          =          FALSE

   => Exchange Functionals <=

    1.0000   XC_HYB_MGGA_X_M11 [omega = 0.2500]

   => Exact (HF) Exchange <=

    0.5720            HF,LR [omega = 0.2500]
    0.4280               HF 

   => Correlation Functionals <=

    1.0000    XC_MGGA_C_M11

   => Molecular Quadrature <=

    Radial Scheme          =       TREUTLER
    Pruning Scheme         =           FLAT
    Nuclear Scheme         =       TREUTLER

    BS radius alpha        =              1
    Pruning alpha          =              1
    Radial Points          =             75
    Spherical Points       =            302
    Total Points           =          67950
    Total Blocks           =            623
    Max Points             =            255
    Max Functions          =            170

   => M11-D3(BJ): Empirical Dispersion <=

    Grimme's -D3 (BJ-damping) Dispersion Correction
    Grimme S.; Ehrlich S.; Goerigk L. (2011), J. Comput. Chem., 32: 1456
    Parametrisation from:    L. Goerigk, J. Phys. Chem. Lett. 6, 3891-3896, 2015

        s6 =       1.000000
        s8 =       2.811200
        a1 =       0.000000
        a2 =      10.138900

   => Loading Basis Set <=

    Name: (DEF2-TZVPPD AUX)
    Role: JKFIT
    Keyword: DF_BASIS_SCF
    atoms 1-3 entry CU         line  2361 file /work/zw18965/.conda/envs/p4env/share/psi4/basis/def2-tzvpp-jkfit.gbs 

   => Loading Basis Set <=

    Name: DEF2-TZVPPD
    Role: ORBITAL
    Keyword: BASIS
    atoms 1-3 entry CU         line  1290 file /work/zw18965/.conda/envs/p4env/share/psi4/basis/def2-tzvppd.gbs 

  Reading orbitals from file 180, no projection.

  ==> Pre-Iterations <==

   -------------------------------------------------------
    Irrep   Nso     Nmo     Nalpha   Nbeta   Ndocc  Nsocc
   -------------------------------------------------------
     Ag        44      44       0       0       0       0
     B1g       14      14       0       0       0       0
     B2g       22      22       0       0       0       0
     B3g       22      22       0       0       0       0
     Au        10      10       0       0       0       0
     B1u       37      37       0       0       0       0
     B2u       26      26       0       0       0       0
     B3u       26      26       0       0       0       0
   -------------------------------------------------------
    Total     201     201      44      43      43       1
   -------------------------------------------------------

  ==> Integral Setup <==

  ==> DiskDFJK: Density-Fitted J/K Matrices <==

    J tasked:                  Yes
    K tasked:                  Yes
    wK tasked:                 Yes
    Omega:               2.500E-01
    OpenMP threads:             24
    Integrals threads:          24
    Memory [MiB]:           102376
    Algorithm:                Core
    Integral Cache:           NONE
    Schwarz Cutoff:          1E-12
    Fitting Condition:       1E-10

   => Auxiliary Basis Set <=

  Basis Set: (DEF2-TZVPPD AUX)
    Blend: DEF2-TZVPP-JKFIT
    Number of shells: 174
    Number of basis function: 792
    Number of Cartesian functions: 1131
    Spherical Harmonics?: true
    Max angular momentum: 6

  Cached 100.0% of DFT collocation blocks in 0.605 [GiB].

  Minimum eigenvalue in the overlap matrix is 3.4856998762E-04.
  Using Symmetric Orthogonalization.

  SCF Guess: Orbitals guess was supplied from a previous computation.

  ==> Iterations <==

                           Total Energy        Delta E     RMS |[F,P]|

   @DF-UKS iter   0: -4921.00889184972766   -4.92101e+03   1.54554e-03 
   @DF-UKS iter   1: -4920.98011770814446    2.87741e-02   1.21645e-04 DIIS
   @DF-UKS iter   2: -4920.98007845586835    3.92523e-05   2.57539e-04 DIIS
   @DF-UKS iter   3: -4920.98013280061878   -5.43448e-05   1.05246e-05 DIIS
   @DF-UKS iter   4: -4920.98013299053673   -1.89918e-07   9.60102e-06 DIIS
   @DF-UKS iter   5: -4920.98013313375759   -1.43221e-07   2.19661e-06 DIIS
   @DF-UKS iter   6: -4920.98013317987170   -4.61141e-08   6.72825e-07 DIIS
   @DF-UKS iter   7: -4920.98013319080019   -1.09285e-08   2.61165e-07 DIIS
   @DF-UKS iter   8: -4920.98013319245092   -1.65073e-09   1.05392e-07 DIIS
   @DF-UKS iter   9: -4920.98013319279198   -3.41061e-10   4.92661e-08 DIIS
   @DF-UKS iter  10: -4920.98013319286474   -7.27596e-11   2.20593e-08 DIIS
   @DF-UKS iter  11: -4920.98013319287293   -8.18545e-12   5.23824e-09 DIIS
  Energy and wave function converged.


  ==> Post-Iterations <==

   @Spin Contamination Metric:   5.157403951E-02
   @S^2 Expected:                7.500000000E-01
   @S^2 Observed:                8.015740395E-01
   @S   Expected:                5.000000000E-01
   @S   Observed:                5.000000000E-01

    Orbital Energies [Eh]
    ---------------------

    Alpha Occupied:                                                       

       1B1u -323.915568     1Ag  -323.915565     2Ag  -323.893040  
       2B1u  -39.041448     3Ag   -39.041414     4Ag   -39.022799  
       5Ag   -34.306398     3B1u  -34.306395     1B2g  -34.305533  
       1B3g  -34.305533     1B3u  -34.305530     1B2u  -34.305530  
       4B1u  -34.287863     2B3u  -34.286788     2B2u  -34.286788  
       5B1u   -4.398189     6Ag    -4.398137     7Ag    -4.376250  
       6B1u   -2.919855     8Ag    -2.919438     2B2g   -2.916666  
       2B3g   -2.916666     3B3u   -2.916664     3B2u   -2.916664  
       7B1u   -2.898747     4B2u   -2.894649     4B3u   -2.894649  
       9Ag    -0.425360     3B2g   -0.407960     3B3g   -0.407960  
       8B1u   -0.395912     5B2u   -0.395429     5B3u   -0.395429  
      10Ag    -0.393179     1B1g   -0.393166     9B1u   -0.392372  
       1Au    -0.392358    11Ag    -0.368217     2B1g   -0.368200  
       4B2g   -0.356425     4B3g   -0.356425    12Ag    -0.354083  
      13Ag    -0.288703    10B1u   -0.239979  

    Alpha Virtual:                                                        

      14Ag     0.005186    11B1u    0.022925     6B2u    0.025142  
       6B3u    0.025142     5B2g    0.052467     5B3g    0.052467  
      15Ag     0.072867     7B3u    0.091611     7B2u    0.091611  
      12B1u    0.101901    16Ag     0.126418     8B2u    0.148219  
       8B3u    0.148219    13B1u    0.156217     6B2g    0.176699  
       6B3g    0.176699    17Ag     0.202623     3B1g    0.221079  
      18Ag     0.221080     2Au     0.251189    14B1u    0.251191  
       9B3u    0.253540     9B2u    0.253540    19Ag     0.271873  
      15B1u    0.276700     7B2g    0.279302     7B3g    0.279302  
      20Ag     0.325186     4B1g    0.325187    16B1u    0.325604  
      10B3u    0.382030    10B2u    0.382030    21Ag     0.409370  
       8B2g    0.489303     8B3g    0.489303    22Ag     0.543707  
      17B1u    0.610879    18B1u    0.700648    11B3u    0.736163  
      11B2u    0.736163     9B2g    0.763260     9B3g    0.763260  
      12B3u    0.820915    12B2u    0.820915    23Ag     0.835923  
      24Ag     0.955967     5B1g    0.956006    10B2g    0.972066  
      10B3g    0.972066    19B1u    0.974173    20B1u    0.993446  
       3Au     0.993484    13B3u    1.052674    13B2u    1.052674  
      25Ag     1.056313    26Ag     1.067792     6B1g    1.067837  
      11B2g    1.271742    11B3g    1.271742    21B1u    1.300605  
      27Ag     1.588870    14B3u    3.063498    14B2u    3.063498  
      28Ag     3.078287    12B2g    3.153012    12B3g    3.153012  
      15B3u    3.187097    15B2u    3.187097    22B1u    3.193926  
      23B1u    3.219989    29Ag     3.300513    24B1u    3.454881  
      30Ag     3.514449    16B3u    3.559110    16B2u    3.559110  
      13B2g    3.561081    13B3g    3.561081    25B1u    3.568801  
       4Au     3.568901    31Ag     3.569690     7B1g    3.569788  
      17B2u    3.570934    17B3u    3.570934    14B3g    3.570935  
      14B2g    3.570935    26B1u    3.600380     5Au     3.600514  
      18B3u    3.603329    18B2u    3.603329    19B3u    3.608587  
      19B2u    3.608587    27B1u    3.618944    32Ag     3.697722  
       8B1g    3.785526    33Ag     3.785568     6Au     3.804634  
      28B1u    3.804664    15B2g    3.842978    15B3g    3.842978  
       9B1g    3.857159    34Ag     3.857213    29B1u    3.876325  
      20B3u    3.904727    20B2u    3.904727    16B2g    4.005350  
      16B3g    4.005350    35Ag     4.118310    30B1u    4.201743  
      36Ag     4.544222    21B2u   13.007434    21B3u   13.007434  
       7Au    13.007688    10B1g   13.007734    31B1u   13.008020  
      37Ag    13.008067    17B3g   13.008109    17B2g   13.008109  
      22B3u   13.008472    22B2u   13.008472    18B2g   13.008495  
      18B3g   13.008495    32B1u   13.008821    38Ag    13.009243  
      33B1u   13.009246     8Au    13.009358    11B1g   13.009358  
      39Ag    13.009376    19B2g   13.031335    19B3g   13.031335  
      12B1g   13.031461    40Ag    13.032017    20B2g   13.032759  
      20B3g   13.032759    41Ag    13.033351    13B1g   13.033503  
      42Ag    13.034851     9Au    13.217137    34B1u   13.217233  
      23B3u   13.217711    23B2u   13.217711    14B1g   13.218030  
      43Ag    13.218126    24B3u   13.218281    24B2u   13.218281  
      21B2g   13.218281    21B3g   13.218281    35B1u   13.227972  
      22B2g   13.230688    22B3g   13.230688    25B2u   13.237387  
      25B3u   13.237387    10Au    13.238144    36B1u   13.238276  
      26B2u   13.252090    26B3u   13.252090    44Ag    13.298959  
      37B1u   13.338151  

    Beta Occupied:                                                        

       1B1u -323.914612     1Ag  -323.914609     2Ag  -323.893134  
       2B1u  -39.041095     3Ag   -39.041062     4Ag   -39.023342  
       5Ag   -34.306622     3B1u  -34.306618     1B2g  -34.305836  
       1B3g  -34.305836     1B3u  -34.305833     1B2u  -34.305833  
       4B1u  -34.287773     2B3u  -34.287011     2B2u  -34.287011  
       5B1u   -4.395553     6Ag    -4.395499     7Ag    -4.377416  
       6B1u   -2.918955     8Ag    -2.918563     3B3u   -2.916204  
       3B2u   -2.916204     2B2g   -2.916188     2B3g   -2.916188  
       7B1u   -2.898397     4B2u   -2.895608     4B3u   -2.895608  
       9Ag    -0.424008     3B2g   -0.406822     3B3g   -0.406822  
       8B1u   -0.395791     5B2u   -0.394182     5B3u   -0.394182  
      10Ag    -0.392093     1B1g   -0.392082     9B1u   -0.391235  
       1Au    -0.391225    11Ag    -0.368998     2B1g   -0.368981  
       4B2g   -0.357205     4B3g   -0.357205    12Ag    -0.351206  
      13Ag    -0.255220  

    Beta Virtual:                                                         

      10B1u   -0.053659    14Ag    -0.022966    11B1u   -0.005512  
       6B2u    0.008974     6B3u    0.008974     5B3g    0.027984  
       5B2g    0.027984    15Ag     0.059825     7B3u    0.069994  
       7B2u    0.069994    12B1u    0.094821    16Ag     0.130780  
      13B1u    0.145492     8B2u    0.155540     8B3u    0.155540  
       6B2g    0.186041     6B3g    0.186041    17Ag     0.188500  
      18Ag     0.213878     3B1g    0.213879    14B1u    0.236847  
       2Au     0.236848     9B3u    0.247471     9B2u    0.247471  
      19Ag     0.254820     7B2g    0.257911     7B3g    0.257911  
      15B1u    0.266336    16B1u    0.304339    20Ag     0.314899  
       4B1g    0.314899    10B3u    0.367641    10B2u    0.367641  
      21Ag     0.408592     8B2g    0.483812     8B3g    0.483812  
      22Ag     0.536385    17B1u    0.607268    18B1u    0.699105  
      11B3u    0.738130    11B2u    0.738130     9B2g    0.761295  
       9B3g    0.761295    12B2u    0.820536    12B3u    0.820536  
      23Ag     0.833995    24Ag     0.961259     5B1g    0.961302  
      19B1u    0.969604    10B2g    0.977245    10B3g    0.977245  
      20B1u    1.002948     3Au     1.003003    13B3u    1.056111  
      13B2u    1.056111    25Ag     1.064398    26Ag     1.069509  
       6B1g    1.069555    11B2g    1.271807    11B3g    1.271807  
      21B1u    1.302456    27Ag     1.584745    14B3u    3.064572  
      14B2u    3.064572    28Ag     3.083707    12B2g    3.153439  
      12B3g    3.153439    15B3u    3.187539    15B2u    3.187539  
      22B1u    3.196768    23B1u    3.224416    29Ag     3.302963  
      24B1u    3.460119    30Ag     3.516463    16B3u    3.559632  
      16B2u    3.559632    13B2g    3.563342    13B3g    3.563342  
      25B1u    3.571322     4Au     3.571401    31Ag     3.572164  
       7B1g    3.572240    17B2u    3.572691    17B3u    3.572691  
      14B3g    3.572692    14B2g    3.572692    26B1u    3.600704  
       5Au     3.600836    18B3u    3.602838    18B2u    3.602838  
      19B3u    3.610710    19B2u    3.610710    27B1u    3.619587  
      32Ag     3.695819     8B1g    3.784682    33Ag     3.784741  
       6Au     3.802967    28B1u    3.803015    15B2g    3.844364  
      15B3g    3.844364     9B1g    3.856776    34Ag     3.856834  
      29B1u    3.877114    20B3u    3.905651    20B2u    3.905651  
      16B2g    4.005952    16B3g    4.005952    35Ag     4.122137  
      30B1u    4.203362    36Ag     4.545142    21B2u   13.006979  
      21B3u   13.006979     7Au    13.007611    10B1g   13.007657  
      17B3g   13.007667    17B2g   13.007667    31B1u   13.007945  
      37Ag    13.007992    32B1u   13.008197    38Ag    13.008737  
      22B3u   13.008774    22B2u   13.008774    18B2g   13.008778  
      18B3g   13.008778    33B1u   13.009574    39Ag    13.009575  
      11B1g   13.009683     8Au    13.009683    19B2g   13.030759  
      19B3g   13.030759    12B1g   13.030792    40Ag    13.031344  
      20B2g   13.032217    20B3g   13.032217    41Ag    13.033549  
      13B1g   13.033703    42Ag    13.034321    23B3u   13.215587  
      23B2u   13.215587    21B2g   13.215587    21B3g   13.215587  
       9Au    13.215646    34B1u   13.215747    24B3u   13.216305  
      24B2u   13.216305    14B1g   13.216534    43Ag    13.216635  
      35B1u   13.226884    22B2g   13.229105    22B3g   13.229105  
      25B2u   13.237417    25B3u   13.237417    10Au    13.237992  
      36B1u   13.238125    26B2u   13.252290    26B3u   13.252290  
      44Ag    13.297060    37B1u   13.337838  

    Final Occupation by Irrep:
             Ag   B1g   B2g   B3g    Au   B1u   B2u   B3u 
    DOCC [    13,    2,    4,    4,    1,    9,    5,    5 ]
    SOCC [     0,    0,    0,    0,    0,    1,    0,    0 ]

  @DF-UKS Final Energy: -4920.98013319287293

   => Energetics <=

    Nuclear Repulsion Energy =            478.6329689943672179
    One-Electron Energy =               -7820.0783294443717750
    Two-Electron Energy =                2530.4081440245777230
    DFT Exchange-Correlation Energy =    -109.9414682074453395
    Empirical Dispersion Energy =          -0.0014485600000000
    VV10 Nonlocal Energy =                  0.0000000000000000
    Total Energy =                      -4920.9801331928738364

  UHF NO Occupations:
  HONO-2 :    9B1u 1.9998835
  HONO-1 :   13 Ag 1.9745303
  HONO-0 :   10B1u 1.0000000
  LUNO+0 :   14 Ag 0.0254697
  LUNO+1 :   11B1u 0.0001165
  LUNO+2 :    5B3g 0.0001119
  LUNO+3 :    5B2g 0.0001119


Computation Completed


Properties will be evaluated at   0.000000,   0.000000,   0.000000 [a0]

Properties computed using the SCF density matrix

  Nuclear Dipole Moment: [e a0]
     X:     0.0000      Y:     0.0000      Z:     0.0000

  Electronic Dipole Moment: [e a0]
     X:     0.0000      Y:     0.0000      Z:     0.0000

  Dipole Moment: [e a0]
     X:     0.0000      Y:     0.0000      Z:     0.0000     Total:     0.0000

  Dipole Moment: [D]
     X:     0.0000      Y:     0.0000      Z:     0.0000     Total:     0.0000


*** tstop() called on bp1-compute00137.data.bp.acrc.priv at Fri Oct 29 08:32:59 2021
Module time:
	user time   =     335.35 seconds =       5.59 minutes
	system time =      14.15 seconds =       0.24 minutes
	total time  =         15 seconds =       0.25 minutes
Total time:
	user time   =     999.43 seconds =      16.66 minutes
	system time =      51.46 seconds =       0.86 minutes
	total time  =         49 seconds =       0.82 minutes

*** tstart() called on bp1-compute00137.data.bp.acrc.priv
*** at Fri Oct 29 08:33:00 2021


         ------------------------------------------------------------
                                   SCF GRAD                          
                          Rob Parrish, Justin Turney,                
                       Andy Simmonett, and Alex Sokolov              
         ------------------------------------------------------------

  ==> Geometry <==

    Molecular point group: d2h
    Full point group: D_inf_h

    Geometry (in Angstrom), charge = 0, multiplicity = 2:

       Center              X                  Y                   Z               Mass       
    ------------   -----------------  -----------------  -----------------  -----------------
         CU          -0.000000000000     0.000000000000     0.000000000000    62.929597720000
         CU           0.000000000000     0.000000000000     2.324526636289    62.929597720000
         CU           0.000000000000     0.000000000000    -2.324526636289    62.929597720000

  Nuclear repulsion =  478.632968994367218

  ==> Basis Set <==

  Basis Set: DEF2-TZVPPD
    Blend: DEF2-TZVPPD
    Number of shells: 57
    Number of basis function: 201
    Number of Cartesian functions: 249
    Spherical Harmonics?: true
    Max angular momentum: 4

  ==> DFJKGrad: Density-Fitted SCF Gradients <==

    Gradient:                    1
    J tasked:                  Yes
    K tasked:                  Yes
    wK tasked:                 Yes
    Omega:               2.500E-01
    OpenMP threads:             24
    Integrals threads:          24
    Memory [MiB]:           102996
    Schwarz Cutoff:          0E+00
    Fitting Condition:       1E-10

   => Auxiliary Basis Set <=

  Basis Set: (DEF2-TZVPPD AUX)
    Blend: DEF2-TZVPP-JKFIT
    Number of shells: 174
    Number of basis function: 792
    Number of Cartesian functions: 1131
    Spherical Harmonics?: true
    Max angular momentum: 6

  ==> DFT Potential <==

   => Composite Functional: M11-D3BJ <= 

    M11 Meta-GGA XC Functional

    R. Peverati and D. G. Truhlar, J. Phys. Chem. Lett., 2, 2810, 2011


    Deriv               =              1
    GGA                 =           TRUE
    Meta                =           TRUE

    Exchange Hybrid     =           TRUE
    MP2 Hybrid          =          FALSE

   => Exchange Functionals <=

    1.0000   XC_HYB_MGGA_X_M11 [omega = 0.2500]

   => Exact (HF) Exchange <=

    0.5720            HF,LR [omega = 0.2500]
    0.4280               HF 

   => Correlation Functionals <=

    1.0000    XC_MGGA_C_M11

   => Molecular Quadrature <=

    Radial Scheme          =       TREUTLER
    Pruning Scheme         =           FLAT
    Nuclear Scheme         =       TREUTLER

    BS radius alpha        =              1
    Pruning alpha          =              1
    Radial Points          =             75
    Spherical Points       =            302
    Total Points           =          67950
    Total Blocks           =            623
    Max Points             =            255
    Max Functions          =            170


  -Total Gradient:
     Atom            X                  Y                   Z
    ------   -----------------  -----------------  -----------------
       1        0.000000000000    -0.000000000000     0.000000000000
       2        0.000000000000    -0.000000000000    -0.005476338139
       3       -0.000000000000     0.000000000000     0.005476338139


*** tstop() called on bp1-compute00137.data.bp.acrc.priv at Fri Oct 29 08:33:08 2021
Module time:
	user time   =     108.49 seconds =       1.81 minutes
	system time =       4.75 seconds =       0.08 minutes
	total time  =          8 seconds =       0.13 minutes
Total time:
	user time   =    1109.21 seconds =      18.49 minutes
	system time =      56.29 seconds =       0.94 minutes
	total time  =         58 seconds =       0.97 minutes

			-----------------------------------------
			 OPTKING 2.0: for geometry optimizations 
			  - R.A. King,  Bethel University        
			-----------------------------------------
	At level 1: Red. Int., RFO, no backsteps, dynamic trust

	Previous internal coordinate definitions found.
	---Fragment 1 Geometry and Gradient---
	 CU         -0.0000000000        0.0000000000        0.0000000000
	 CU          0.0000000000        0.0000000000        4.3927187139
	 CU          0.0000000000        0.0000000000       -4.3927187139
	             0.0000000000       -0.0000000000        0.0000000000
	             0.0000000000       -0.0000000000       -0.0054763381
	            -0.0000000000        0.0000000000        0.0054763381

	---Fragment 1 Intrafragment Coordinates---
	 - Coordinate -           - BOHR/RAD -       - ANG/DEG -
	 R(1,2)           =         4.392719	       2.324527
	 R(1,3)           =         4.392719	       2.324527
	 L(2,1,3)         =         3.141593	     180.000000
	 l(2,1,3)         =         3.141593	     180.000000

	Current energy   :     -4920.9801331929

	Energy change for the previous step:
		Projected    :         0.0027622810
		Actual       :        -0.0009543464

	Performing BFGS update.
	Previous computed or guess Hessian on step 1.
	Steps to be used in Hessian update: 1
	Taking RFO optimization step.
	Going to follow RFO solution 1.
	Using RFO vector 1.
	Norm of target step-size    0.11853
	Projected energy change by RFO approximation:        -0.0058034808

	Back-transformation to cartesian coordinates...
	Successfully converged to displaced geometry.

	--- Internal Coordinate Step in ANG or DEG, aJ/ANG or AJ/DEG ---
	 ---------------------------------------------------------------------------
	   Coordinate                Previous        Force       Change         New 
	   ----------                --------       ------       ------       ------
	    1 R(1,2)          =      2.324527     0.045118     0.044351     2.368878
	    2 R(1,3)          =      2.324527     0.045118     0.044351     2.368878
	    3 L(2,1,3)        =    180.000000    -0.000000     0.000000   180.000000
	    4 l(2,1,3)        =    180.000000     0.000000     0.000000   180.000000
	 ---------------------------------------------------------------------------
	Successfully symmetrized geometry.

  ==> Convergence Check <==

  Measures of convergence in internal coordinates in au.
  Criteria marked as inactive (o), active & met (*), and active & unmet ( ).
  ---------------------------------------------------------------------------------------------
   Step     Total Energy     Delta E     MAX Force     RMS Force      MAX Disp      RMS Disp   
  ---------------------------------------------------------------------------------------------
    Convergence Criteria    1.00e-06 *    3.00e-04 *             o    1.20e-03 *             o
  ---------------------------------------------------------------------------------------------
      2   -4920.98013319   -9.54e-04      5.48e-03      3.87e-03 o    8.38e-02      5.93e-02 o  ~
  ---------------------------------------------------------------------------------------------

	Writing optimization data to binary file.
	Structure for next step:
	Cartesian Geometry (in Angstrom)
	   CU    -0.0000000000  -0.0000000000   0.0000000000
	   CU     0.0000000000   0.0000000000   2.3688780709
	   CU     0.0000000000   0.0000000000  -2.3688780709
			--------------------------
			 OPTKING Finished Execution 
			--------------------------

    Structure for next step:
    Molecular point group: d2h
    Full point group: D_inf_h

    Geometry (in Angstrom), charge = 0, multiplicity = 2:

    CU           0.000000000000     0.000000000000     0.000000000000
    CU           0.000000000000     0.000000000000     2.368878080188
    CU           0.000000000000     0.000000000000    -2.368878080188

gradient() will perform analytic gradient computation.

*** tstart() called on bp1-compute00137.data.bp.acrc.priv
*** at Fri Oct 29 08:33:08 2021

   => Loading Basis Set <=

    Name: DEF2-TZVPPD
    Role: ORBITAL
    Keyword: BASIS
    atoms 1-3 entry CU         line  1290 file /work/zw18965/.conda/envs/p4env/share/psi4/basis/def2-tzvppd.gbs 


         ---------------------------------------------------------
                                   SCF
               by Justin Turney, Rob Parrish, Andy Simmonett
                          and Daniel G. A. Smith
                              UKS Reference
                       24 Threads, 137329 MiB Core
         ---------------------------------------------------------

  ==> Geometry <==

    Molecular point group: d2h
    Full point group: D_inf_h

    Geometry (in Angstrom), charge = 0, multiplicity = 2:

       Center              X                  Y                   Z               Mass       
    ------------   -----------------  -----------------  -----------------  -----------------
         CU           0.000000000000     0.000000000000     0.000000000000    62.929597720000
         CU           0.000000000000     0.000000000000     2.368878080188    62.929597720000
         CU           0.000000000000     0.000000000000    -2.368878080188    62.929597720000

  Running in d2h symmetry.

  Rotational constants: A = ************  B =      0.02387  C =      0.02387 [cm^-1]
  Rotational constants: A = ************  B =    715.56128  C =    715.56128 [MHz]
  Nuclear repulsion =  469.671738169609512

  Charge       = 0
  Multiplicity = 2
  Electrons    = 87
  Nalpha       = 44
  Nbeta        = 43

  ==> Algorithm <==

  SCF Algorithm Type is DF.
  DIIS enabled.
  MOM disabled.
  Fractional occupation disabled.
  Guess Type is READ.
  Energy threshold   = 1.00e-08
  Density threshold  = 1.00e-08
  Integral threshold = 0.00e+00

  ==> Primary Basis <==

  Basis Set: DEF2-TZVPPD
    Blend: DEF2-TZVPPD
    Number of shells: 57
    Number of basis function: 201
    Number of Cartesian functions: 249
    Spherical Harmonics?: true
    Max angular momentum: 4

  ==> DFT Potential <==

   => Composite Functional: M11-D3BJ <= 

    M11 Meta-GGA XC Functional

    R. Peverati and D. G. Truhlar, J. Phys. Chem. Lett., 2, 2810, 2011


    Deriv               =              1
    GGA                 =           TRUE
    Meta                =           TRUE

    Exchange Hybrid     =           TRUE
    MP2 Hybrid          =          FALSE

   => Exchange Functionals <=

    1.0000   XC_HYB_MGGA_X_M11 [omega = 0.2500]

   => Exact (HF) Exchange <=

    0.5720            HF,LR [omega = 0.2500]
    0.4280               HF 

   => Correlation Functionals <=

    1.0000    XC_MGGA_C_M11

   => Molecular Quadrature <=

    Radial Scheme          =       TREUTLER
    Pruning Scheme         =           FLAT
    Nuclear Scheme         =       TREUTLER

    BS radius alpha        =              1
    Pruning alpha          =              1
    Radial Points          =             75
    Spherical Points       =            302
    Total Points           =          67950
    Total Blocks           =            622
    Max Points             =            252
    Max Functions          =            170

   => M11-D3(BJ): Empirical Dispersion <=

    Grimme's -D3 (BJ-damping) Dispersion Correction
    Grimme S.; Ehrlich S.; Goerigk L. (2011), J. Comput. Chem., 32: 1456
    Parametrisation from:    L. Goerigk, J. Phys. Chem. Lett. 6, 3891-3896, 2015

        s6 =       1.000000
        s8 =       2.811200
        a1 =       0.000000
        a2 =      10.138900

   => Loading Basis Set <=

    Name: (DEF2-TZVPPD AUX)
    Role: JKFIT
    Keyword: DF_BASIS_SCF
    atoms 1-3 entry CU         line  2361 file /work/zw18965/.conda/envs/p4env/share/psi4/basis/def2-tzvpp-jkfit.gbs 

   => Loading Basis Set <=

    Name: DEF2-TZVPPD
    Role: ORBITAL
    Keyword: BASIS
    atoms 1-3 entry CU         line  1290 file /work/zw18965/.conda/envs/p4env/share/psi4/basis/def2-tzvppd.gbs 

  Reading orbitals from file 180, no projection.

  ==> Pre-Iterations <==

   -------------------------------------------------------
    Irrep   Nso     Nmo     Nalpha   Nbeta   Ndocc  Nsocc
   -------------------------------------------------------
     Ag        44      44       0       0       0       0
     B1g       14      14       0       0       0       0
     B2g       22      22       0       0       0       0
     B3g       22      22       0       0       0       0
     Au        10      10       0       0       0       0
     B1u       37      37       0       0       0       0
     B2u       26      26       0       0       0       0
     B3u       26      26       0       0       0       0
   -------------------------------------------------------
    Total     201     201      44      43      43       1
   -------------------------------------------------------

  ==> Integral Setup <==

  ==> DiskDFJK: Density-Fitted J/K Matrices <==

    J tasked:                  Yes
    K tasked:                  Yes
    wK tasked:                 Yes
    Omega:               2.500E-01
    OpenMP threads:             24
    Integrals threads:          24
    Memory [MiB]:           102379
    Algorithm:                Core
    Integral Cache:           NONE
    Schwarz Cutoff:          1E-12
    Fitting Condition:       1E-10

   => Auxiliary Basis Set <=

  Basis Set: (DEF2-TZVPPD AUX)
    Blend: DEF2-TZVPP-JKFIT
    Number of shells: 174
    Number of basis function: 792
    Number of Cartesian functions: 1131
    Spherical Harmonics?: true
    Max angular momentum: 6

  Cached 100.0% of DFT collocation blocks in 0.603 [GiB].

  Minimum eigenvalue in the overlap matrix is 3.7254336046E-04.
  Using Symmetric Orthogonalization.

  SCF Guess: Orbitals guess was supplied from a previous computation.

  ==> Iterations <==

                           Total Energy        Delta E     RMS |[F,P]|

   @DF-UKS iter   0: -4921.01548233660742   -4.92102e+03   1.92293e-03 
   @DF-UKS iter   1: -4920.98065097848666    3.48314e-02   1.33477e-04 DIIS
   @DF-UKS iter   2: -4920.98060636000901    4.46185e-05   2.79485e-04 DIIS
   @DF-UKS iter   3: -4920.98067002541120   -6.36654e-05   1.09664e-05 DIIS
   @DF-UKS iter   4: -4920.98067037783403   -3.52423e-07   1.18329e-05 DIIS
   @DF-UKS iter   5: -4920.98067061469919   -2.36865e-07   2.93767e-06 DIIS
   @DF-UKS iter   6: -4920.98067070676007   -9.20609e-08   9.32875e-07 DIIS
   @DF-UKS iter   7: -4920.98067073295260   -2.61925e-08   3.71699e-07 DIIS
   @DF-UKS iter   8: -4920.98067073651782   -3.56522e-09   1.63084e-07 DIIS
   @DF-UKS iter   9: -4920.98067073743186   -9.14042e-10   8.09361e-08 DIIS
   @DF-UKS iter  10: -4920.98067073759921   -1.67347e-10   3.51498e-08 DIIS
   @DF-UKS iter  11: -4920.98067073761558   -1.63709e-11   7.76712e-09 DIIS
  Energy and wave function converged.


  ==> Post-Iterations <==

   @Spin Contamination Metric:   5.533133249E-02
   @S^2 Expected:                7.500000000E-01
   @S^2 Observed:                8.053313325E-01
   @S   Expected:                5.000000000E-01
   @S   Observed:                5.000000000E-01

    Orbital Energies [Eh]
    ---------------------

    Alpha Occupied:                                                       

       1B1u -323.915212     1Ag  -323.915210     2Ag  -323.891850  
       2B1u  -39.040896     3Ag   -39.040866     4Ag   -39.021244  
       5Ag   -34.305838     3B1u  -34.305835     1B2g  -34.305043  
       1B3g  -34.305043     1B3u  -34.305040     1B2u  -34.305040  
       4B1u  -34.286286     2B2u  -34.285341     2B3u  -34.285341  
       5B1u   -4.397625     6Ag    -4.397576     7Ag    -4.374663  
       6B1u   -2.918950     8Ag    -2.918669     2B3g   -2.916254  
       2B2g   -2.916254     3B2u   -2.916252     3B3u   -2.916252  
       7B1u   -2.896906     4B2u   -2.893370     4B3u   -2.893370  
       9Ag    -0.421415     3B2g   -0.405371     3B3g   -0.405371  
       8B1u   -0.395037     5B3u   -0.394630     5B2u   -0.394630  
      10Ag    -0.392696     1B1g   -0.392684     9B1u   -0.392060  
       1Au    -0.392048    11Ag    -0.367267     2B1g   -0.367253  
       4B2g   -0.356764     4B3g   -0.356764    12Ag    -0.354673  
      13Ag    -0.286681    10B1u   -0.240104  

    Alpha Virtual:                                                        

      14Ag     0.004439    11B1u    0.022883     6B2u    0.025512  
       6B3u    0.025512     5B3g    0.051960     5B2g    0.051960  
      15Ag     0.072456     7B3u    0.091335     7B2u    0.091335  
      12B1u    0.101130    16Ag     0.128262     8B3u    0.148942  
       8B2u    0.148942    13B1u    0.156995     6B3g    0.176348  
       6B2g    0.176348    17Ag     0.200938     3B1g    0.220891  
      18Ag     0.220893     2Au     0.250249    14B1u    0.250252  
       9B3u    0.251793     9B2u    0.251793    19Ag     0.268360  
      15B1u    0.277249     7B2g    0.277461     7B3g    0.277461  
      16B1u    0.322619    20Ag     0.323167     4B1g    0.323167  
      10B3u    0.378084    10B2u    0.378084    21Ag     0.410551  
       8B2g    0.484747     8B3g    0.484747    22Ag     0.536790  
      17B1u    0.603524    18B1u    0.699547    11B3u    0.740390  
      11B2u    0.740390     9B2g    0.764279     9B3g    0.764279  
      12B3u    0.817959    12B2u    0.817959    23Ag     0.831253  
      24Ag     0.959555     5B1g    0.959604    10B2g    0.965846  
      10B3g    0.965846    19B1u    0.969715    20B1u    0.993185  
       3Au     0.993235    25Ag     1.043906    13B3u    1.049490  
      13B2u    1.049490    26Ag     1.064313     6B1g    1.064371  
      11B2g    1.260439    11B3g    1.260439    21B1u    1.281876  
      27Ag     1.570575    14B3u    3.064289    14B2u    3.064289  
      28Ag     3.068560    12B2g    3.147339    12B3g    3.147339  
      15B3u    3.186200    15B2u    3.186200    22B1u    3.188112  
      23B1u    3.215419    29Ag     3.293600    24B1u    3.442204  
      30Ag     3.514287    13B2g    3.563400    13B3g    3.563400  
      16B3u    3.563481    16B2u    3.563481    25B1u    3.569324  
       4Au     3.569432    31Ag     3.570169     7B1g    3.570276  
      17B3u    3.570914    17B2u    3.570914    14B2g    3.570914  
      14B3g    3.570914    26B1u    3.601630     5Au     3.601783  
      18B3u    3.602227    18B2u    3.602227    19B2u    3.603712  
      19B3u    3.603712    27B1u    3.624732    32Ag     3.681429  
       8B1g    3.786067    33Ag     3.786073    28B1u    3.803717  
       6Au     3.803718    15B2g    3.833114    15B3g    3.833114  
      29B1u    3.843031     9B1g    3.855762    34Ag     3.855778  
      20B3u    3.896075    20B2u    3.896075    16B2g    3.998742  
      16B3g    3.998742    35Ag     4.094531    30B1u    4.175443  
      36Ag     4.513570    21B3u   13.007933    21B2u   13.007933  
       7Au    13.008112    10B1g   13.008145    31B1u   13.008457  
      17B2g   13.008476    17B3g   13.008476    37Ag    13.008491  
      22B2u   13.008780    22B3u   13.008780    18B3g   13.008805  
      18B2g   13.008805    32B1u   13.009255    38Ag    13.009413  
      33B1u   13.009414     8Au    13.009506    11B1g   13.009506  
      39Ag    13.009743    19B2g   13.032689    19B3g   13.032689  
      12B1g   13.032776    40Ag    13.033349    20B3g   13.033875  
      20B2g   13.033875    41Ag    13.034230    13B1g   13.034353  
      42Ag    13.035908     9Au    13.217621    34B1u   13.217704  
      14B1g   13.218369    43Ag    13.218452    23B3u   13.218606  
      23B2u   13.218606    21B2g   13.218606    21B3g   13.218606  
      24B2u   13.218675    24B3u   13.218675    22B3g   13.228886  
      22B2g   13.228886    35B1u   13.231099    25B2u   13.238497  
      25B3u   13.238497    10Au    13.239370    36B1u   13.239483  
      26B2u   13.250329    26B3u   13.250329    44Ag    13.286532  
      37B1u   13.321701  

    Beta Occupied:                                                        

       1B1u -323.914259     1Ag  -323.914256     2Ag  -323.891967  
       2B1u  -39.040570     3Ag   -39.040541     4Ag   -39.021771  
       5Ag   -34.306079     3B1u  -34.306075     1B2g  -34.305366  
       1B3g  -34.305366     1B3u  -34.305363     1B2u  -34.305363  
       4B1u  -34.286194     2B2u  -34.285546     2B3u  -34.285546  
       5B1u   -4.395039     6Ag    -4.394987     7Ag    -4.375844  
       6B1u   -2.918085     8Ag    -2.917828     3B2u   -2.915847  
       3B3u   -2.915847     2B3g   -2.915834     2B2g   -2.915834  
       7B1u   -2.896582     4B2u   -2.894298     4B3u   -2.894298  
       9Ag    -0.420154     3B2g   -0.404189     3B3g   -0.404189  
       8B1u   -0.394958     5B3u   -0.393398     5B2u   -0.393398  
      10Ag    -0.391632     1B1g   -0.391623     9B1u   -0.390958  
       1Au    -0.390949    11Ag    -0.368045     2B1g   -0.368030  
       4B2g   -0.357581     4B3g   -0.357581    12Ag    -0.351761  
      13Ag    -0.253006  

    Beta Virtual:                                                         

      10B1u   -0.053719    14Ag    -0.022900    11B1u   -0.005630  
       6B3u    0.009400     6B2u    0.009400     5B3g    0.027834  
       5B2g    0.027834    15Ag     0.059380     7B3u    0.070283  
       7B2u    0.070283    12B1u    0.095404    16Ag     0.132776  
      13B1u    0.146480     8B2u    0.156459     8B3u    0.156459  
       6B3g    0.186008     6B2g    0.186008    17Ag     0.187015  
       3B1g    0.213765    18Ag     0.213766     2Au     0.235883  
      14B1u    0.235883     9B3u    0.246049     9B2u    0.246049  
      19Ag     0.252089     7B2g    0.256522     7B3g    0.256522  
      15B1u    0.266830    16B1u    0.301199     4B1g    0.313183  
      20Ag     0.313184    10B3u    0.363728    10B2u    0.363728  
      21Ag     0.409113     8B2g    0.479132     8B3g    0.479132  
      22Ag     0.529870    17B1u    0.599884    18B1u    0.698520  
      11B3u    0.742455    11B2u    0.742455     9B2g    0.762536  
       9B3g    0.762536    12B3u    0.817527    12B2u    0.817527  
      23Ag     0.829510    19B1u    0.964535    24Ag     0.965083  
       5B1g    0.965137    10B2g    0.971192    10B3g    0.971192  
      20B1u    1.003035     3Au     1.003098    25Ag     1.052064  
      13B3u    1.053104    13B2u    1.053104    26Ag     1.065909  
       6B1g    1.065967    11B2g    1.260328    11B3g    1.260328  
      21B1u    1.283620    27Ag     1.565890    14B3u    3.065301  
      14B2u    3.065301    28Ag     3.073838    12B2g    3.147712  
      12B3g    3.147712    15B3u    3.186541    15B2u    3.186541  
      22B1u    3.192824    23B1u    3.218495    29Ag     3.296114  
      24B1u    3.447367    30Ag     3.516358    16B3u    3.564051  
      16B2u    3.564051    13B2g    3.565621    13B3g    3.565621  
      25B1u    3.571791     4Au     3.571888    17B3u    3.572512  
      17B2u    3.572512    14B2g    3.572513    14B3g    3.572513  
      31Ag     3.572558     7B1g    3.572653    26B1u    3.601838  
       5Au     3.601991    18B2u    3.603231    18B3u    3.603231  
      19B3u    3.604361    19B2u    3.604361    27B1u    3.625285  
      32Ag     3.679643     8B1g    3.785048    33Ag     3.785063  
       6Au     3.801877    28B1u    3.801885    15B2g    3.834577  
      15B3g    3.834577    29B1u    3.843670     9B1g    3.855407  
      34Ag     3.855424    20B3u    3.896934    20B2u    3.896934  
      16B2g    3.999177    16B3g    3.999177    35Ag     4.098556  
      30B1u    4.176878    36Ag     4.514057    21B3u   13.007460  
      21B2u   13.007460     7Au    13.008013    17B2g   13.008021  
      17B3g   13.008021    10B1g   13.008047    31B1u   13.008361  
      37Ag    13.008395    32B1u   13.008615    22B2u   13.009058  
      22B3u   13.009058    18B3g   13.009062    18B2g   13.009062  
      38Ag    13.009090    33B1u   13.009724    39Ag    13.009724  
      11B1g   13.009812     8Au    13.009812    19B2g   13.032135  
      19B3g   13.032135    12B1g   13.032136    40Ag    13.032705  
      20B3g   13.033364    20B2g   13.033364    41Ag    13.034446  
      13B1g   13.034570    42Ag    13.035401    23B3u   13.215846  
      23B2u   13.215846    21B2g   13.215846    21B3g   13.215846  
       9Au    13.216082    34B1u   13.216169    14B1g   13.216827  
      43Ag    13.216914    24B2u   13.217207    24B3u   13.217207  
      22B3g   13.227296    22B2g   13.227296    35B1u   13.229916  
      25B2u   13.238581    25B3u   13.238581    10Au    13.239275  
      36B1u   13.239388    26B2u   13.250650    26B3u   13.250650  
      44Ag    13.284622    37B1u   13.321551  

    Final Occupation by Irrep:
             Ag   B1g   B2g   B3g    Au   B1u   B2u   B3u 
    DOCC [    13,    2,    4,    4,    1,    9,    5,    5 ]
    SOCC [     0,    0,    0,    0,    0,    1,    0,    0 ]

  @DF-UKS Final Energy: -4920.98067073761558

   => Energetics <=

    Nuclear Repulsion Energy =            469.6717381696095117
    One-Electron Energy =               -7802.2346270612870285
    Two-Electron Energy =                2521.5211206584590400
    DFT Exchange-Correlation Energy =    -109.9374643843969324
    Empirical Dispersion Energy =          -0.0014381200000000
    VV10 Nonlocal Energy =                  0.0000000000000000
    Total Energy =                      -4920.9806707376146733

  UHF NO Occupations:
  HONO-2 :    9B1u 1.9998750
  HONO-1 :   13 Ag 1.9725979
  HONO-0 :   10B1u 1.0000000
  LUNO+0 :   14 Ag 0.0274021
  LUNO+1 :   11B1u 0.0001250
  LUNO+2 :    5B2g 0.0001020
  LUNO+3 :    5B3g 0.0001020


Computation Completed


Properties will be evaluated at   0.000000,   0.000000,   0.000000 [a0]

Properties computed using the SCF density matrix

  Nuclear Dipole Moment: [e a0]
     X:     0.0000      Y:     0.0000      Z:     0.0000

  Electronic Dipole Moment: [e a0]
     X:     0.0000      Y:     0.0000      Z:     0.0000

  Dipole Moment: [e a0]
     X:     0.0000      Y:     0.0000      Z:     0.0000     Total:     0.0000

  Dipole Moment: [D]
     X:     0.0000      Y:     0.0000      Z:     0.0000     Total:     0.0000


*** tstop() called on bp1-compute00137.data.bp.acrc.priv at Fri Oct 29 08:33:23 2021
Module time:
	user time   =     337.78 seconds =       5.63 minutes
	system time =      14.60 seconds =       0.24 minutes
	total time  =         15 seconds =       0.25 minutes
Total time:
	user time   =    1447.91 seconds =      24.13 minutes
	system time =      70.94 seconds =       1.18 minutes
	total time  =         73 seconds =       1.22 minutes

*** tstart() called on bp1-compute00137.data.bp.acrc.priv
*** at Fri Oct 29 08:33:23 2021


         ------------------------------------------------------------
                                   SCF GRAD                          
                          Rob Parrish, Justin Turney,                
                       Andy Simmonett, and Alex Sokolov              
         ------------------------------------------------------------

  ==> Geometry <==

    Molecular point group: d2h
    Full point group: D_inf_h

    Geometry (in Angstrom), charge = 0, multiplicity = 2:

       Center              X                  Y                   Z               Mass       
    ------------   -----------------  -----------------  -----------------  -----------------
         CU           0.000000000000     0.000000000000     0.000000000000    62.929597720000
         CU           0.000000000000     0.000000000000     2.368878080188    62.929597720000
         CU           0.000000000000     0.000000000000    -2.368878080188    62.929597720000

  Nuclear repulsion =  469.671738169609512

  ==> Basis Set <==

  Basis Set: DEF2-TZVPPD
    Blend: DEF2-TZVPPD
    Number of shells: 57
    Number of basis function: 201
    Number of Cartesian functions: 249
    Spherical Harmonics?: true
    Max angular momentum: 4

  ==> DFJKGrad: Density-Fitted SCF Gradients <==

    Gradient:                    1
    J tasked:                  Yes
    K tasked:                  Yes
    wK tasked:                 Yes
    Omega:               2.500E-01
    OpenMP threads:             24
    Integrals threads:          24
    Memory [MiB]:           102996
    Schwarz Cutoff:          0E+00
    Fitting Condition:       1E-10

   => Auxiliary Basis Set <=

  Basis Set: (DEF2-TZVPPD AUX)
    Blend: DEF2-TZVPP-JKFIT
    Number of shells: 174
    Number of basis function: 792
    Number of Cartesian functions: 1131
    Spherical Harmonics?: true
    Max angular momentum: 6

  ==> DFT Potential <==

   => Composite Functional: M11-D3BJ <= 

    M11 Meta-GGA XC Functional

    R. Peverati and D. G. Truhlar, J. Phys. Chem. Lett., 2, 2810, 2011


    Deriv               =              1
    GGA                 =           TRUE
    Meta                =           TRUE

    Exchange Hybrid     =           TRUE
    MP2 Hybrid          =          FALSE

   => Exchange Functionals <=

    1.0000   XC_HYB_MGGA_X_M11 [omega = 0.2500]

   => Exact (HF) Exchange <=

    0.5720            HF,LR [omega = 0.2500]
    0.4280               HF 

   => Correlation Functionals <=

    1.0000    XC_MGGA_C_M11

   => Molecular Quadrature <=

    Radial Scheme          =       TREUTLER
    Pruning Scheme         =           FLAT
    Nuclear Scheme         =       TREUTLER

    BS radius alpha        =              1
    Pruning alpha          =              1
    Radial Points          =             75
    Spherical Points       =            302
    Total Points           =          67950
    Total Blocks           =            622
    Max Points             =            252
    Max Functions          =            170


  -Total Gradient:
     Atom            X                  Y                   Z
    ------   -----------------  -----------------  -----------------
       1        0.000000000000     0.000000000000     0.000000000000
       2        0.000000000000    -0.000000000000    -0.000905131423
       3       -0.000000000000     0.000000000000     0.000905131423


*** tstop() called on bp1-compute00137.data.bp.acrc.priv at Fri Oct 29 08:33:31 2021
Module time:
	user time   =     106.66 seconds =       1.78 minutes
	system time =       4.83 seconds =       0.08 minutes
	total time  =          8 seconds =       0.13 minutes
Total time:
	user time   =    1555.97 seconds =      25.93 minutes
	system time =      75.85 seconds =       1.26 minutes
	total time  =         81 seconds =       1.35 minutes

			-----------------------------------------
			 OPTKING 2.0: for geometry optimizations 
			  - R.A. King,  Bethel University        
			-----------------------------------------
	At level 1: Red. Int., RFO, no backsteps, dynamic trust

	Previous internal coordinate definitions found.
	---Fragment 1 Geometry and Gradient---
	 CU          0.0000000000        0.0000000000        0.0000000000
	 CU          0.0000000000        0.0000000000        4.4765307962
	 CU          0.0000000000        0.0000000000       -4.4765307962
	             0.0000000000        0.0000000000        0.0000000000
	             0.0000000000       -0.0000000000       -0.0009051314
	            -0.0000000000        0.0000000000        0.0009051314

	---Fragment 1 Intrafragment Coordinates---
	 - Coordinate -           - BOHR/RAD -       - ANG/DEG -
	 R(1,2)           =         4.476531	       2.368878
	 R(1,3)           =         4.476531	       2.368878
	 L(2,1,3)         =         3.141593	     180.000000
	 l(2,1,3)         =         3.141593	     180.000000

	Current energy   :     -4920.9806707376

	Energy change for the previous step:
		Projected    :        -0.0058034808
		Actual       :        -0.0005375447
	Energy ratio indicates iffy step: Trust radius decreased to 1.250e-01.


	Performing BFGS update.
	Previous computed or guess Hessian on step 1.
	Steps to be used in Hessian update: 2 1
	Taking RFO optimization step.
	Going to follow RFO solution 1.
	Using RFO vector 1.
	Norm of target step-size    0.02176
[...]
      24A2    13.008547    48B2    13.008547    58A1    13.008572  
      59A1    13.008837    32B1    13.008837    49B2    13.008863  
      25A2    13.008863    50B2    13.009329    60A1    13.009442  
      51B2    13.009443    26A2    13.009531    33B1    13.009531  
      61A1    13.009803    27A2    13.032954    52B2    13.032954  
      34B1    13.033028    62A1    13.033604    28A2    13.034088  
      53B2    13.034088    63A1    13.034396    35B1    13.034513  
      64A1    13.036089    29A2    13.217716    54B2    13.217795  
      36B1    13.218438    65A1    13.218517    37B1    13.218669  
      66A1    13.218669    30A2    13.218669    55B2    13.218669  
      38B1    13.218830    67A1    13.218830    56B2    13.228540  
      31A2    13.228540    57B2    13.231553    39B1    13.238713  
      68A1    13.238713    32A2    13.239616    58B2    13.239724  
      69A1    13.250020    40B1    13.250020    70A1    13.284014  
      59B2    13.318471  

    Beta Occupied:                                                        

       1B2  -323.914189     1A1  -323.914187     2A1  -323.891737  
       2B2   -39.040464     3A1   -39.040435     4A1   -39.021452  
       5A1   -34.305968     3B2   -34.305965     1A2   -34.305271  
       4B2   -34.305271     1B1   -34.305268     6A1   -34.305268  
       5B2   -34.285874     2B1   -34.285250     7A1   -34.285250  
       6B2    -4.394938     8A1    -4.394886     9A1    -4.375532  
       7B2    -2.917917    10A1    -2.917682     3B1    -2.915779  
      11A1    -2.915779     2A2    -2.915766     8B2    -2.915766  
       9B2    -2.896216    12A1    -2.894041     4B1    -2.894041  
      13A1    -0.419365    10B2    -0.403664     3A2    -0.403664  
      11B2    -0.394789    14A1    -0.393242     5B1    -0.393242  
      15A1    -0.391547     6B1    -0.391537    12B2    -0.390906  
       4A2    -0.390897    16A1    -0.367859     7B1    -0.367844  
       5A2    -0.357662    13B2    -0.357662    17A1    -0.351882  
      18A1    -0.252537  

    Beta Virtual:                                                         

      14B2    -0.053728    19A1    -0.022890    15B2    -0.005654  
       8B1     0.009488    20A1     0.009488    16B2     0.027798  
       6A2     0.027798    21A1     0.059277    22A1     0.070336  
       9B1     0.070336    17B2     0.095517    23A1     0.133192  
      18B2     0.146699    10B1     0.156656    24A1     0.156656  
       7A2     0.185995    19B2     0.185995    25A1     0.186700  
      11B1     0.213735    26A1     0.213736     8A2     0.235674  
      20B2     0.235675    27A1     0.245733    12B1     0.245733  
      28A1     0.251476    21B2     0.256221     9A2     0.256221  
      22B2     0.266944    23B2     0.300527    13B1     0.312803  
      29A1     0.312804    30A1     0.362876    14B1     0.362876  
      31A1     0.409180    24B2     0.478097    10A2     0.478097  
      32A1     0.528508    25B2     0.598175    26B2     0.698563  
      33A1     0.743343    15B1     0.743343    11A2     0.762853  
      27B2     0.762853    34A1     0.816905    16B1     0.816905  
      35A1     0.828521    28B2     0.963485    36A1     0.965893  
      17B1     0.965948    12A2     0.969976    29B2     0.969976  
      30B2     1.003042    13A2     1.003105    37A1     1.049394  
      18B1     1.052527    38A1     1.052527    39A1     1.065132  
      19B1     1.065192    31B2     1.257818    14A2     1.257818  
      32B2     1.279557    40A1     1.561571    20B1     3.065526  
      41A1     3.065526    42A1     3.071833    33B2     3.146524  
      15A2     3.146524    21B1     3.186217    43A1     3.186217  
      34B2     3.186809    35B2     3.222750    44A1     3.294320  
      36B2     3.444650    45A1     3.516512    22B1     3.564904  
      46A1     3.564904    37B2     3.566142    16A2     3.566142  
      38B2     3.571857    17A2     3.571958    47A1     3.572466  
      23B1     3.572466    39B2     3.572467    18A2     3.572467  
      48A1     3.572621    24B1     3.572719    40B2     3.602052  
      19A2     3.602208    49A1     3.603235    25B1     3.603235  
      50A1     3.603306    26B1     3.603306    41B2     3.626165  
      51A1     3.676312    27B1     3.785149    52A1     3.785155  
      42B2     3.801657    20A2     3.801657    43B2     3.832416  
      21A2     3.832417    44B2     3.836419    28B1     3.855088  
      53A1     3.855098    54A1     3.895010    29B1     3.895010  
      22A2     3.997747    45B2     3.997747    55A1     4.092988  
      46B2     4.171078    56A1     4.507147    30B1    13.007555  
      57A1    13.007555    23A2    13.008088    47B2    13.008089  
      24A2    13.008089    31B1    13.008120    48B2    13.008439  
      58A1    13.008471    49B2    13.008685    59A1    13.009110  
      32B1    13.009110    50B2    13.009114    25A2    13.009114  
      60A1    13.009147    51B2    13.009748    61A1    13.009748  
      33B1    13.009832    26A2    13.009832    34B1    13.032394  
      27A2    13.032406    52B2    13.032406    62A1    13.032967  
      28A2    13.033584    53B2    13.033584    63A1    13.034615  
      35B1    13.034734    64A1    13.035587    36B1    13.215895  
      65A1    13.215895    29A2    13.215895    54B2    13.215895  
      30A2    13.216167    55B2    13.216249    37B1    13.216886  
      66A1    13.216968    38B1    13.217350    67A1    13.217350  
      31A2    13.226947    56B2    13.226947    57B2    13.230346  
      39B1    13.238810    68A1    13.238810    32A2    13.239533  
      58B2    13.239642    69A1    13.250365    40B1    13.250365  
      70A1    13.282102    59B2    13.318361  

    Final Occupation by Irrep:
             A1    A2    B1    B2 
    DOCC [    18,    5,    7,   13 ]
    SOCC [     0,    0,    0,    1 ]

  @DF-UKS Final Energy: -4920.98069093522736

   => Energetics <=

    Nuclear Repulsion Energy =            467.7528860398905408
    One-Electron Energy =               -7798.4124359410043326
    Two-Electron Energy =                2519.6169480244316219
    DFT Exchange-Correlation Energy =    -109.9366530385453871
    Empirical Dispersion Energy =          -0.0014360200000000
    VV10 Nonlocal Energy =                  0.0000000000000000
    Total Energy =                      -4920.9806909352273578

  UHF NO Occupations:
  HONO-2 :   13 B2 1.9998733
  HONO-1 :   18 A1 1.9721399
  HONO-0 :   14 B2 1.0000000
  LUNO+0 :   19 A1 0.0278601
  LUNO+1 :   15 B2 0.0001267
  LUNO+2 :    6 A2 0.0000999
  LUNO+3 :   16 B2 0.0000999


Computation Completed


Properties will be evaluated at   0.000000,   0.000000,   0.000000 [a0]

Properties computed using the SCF density matrix

  Nuclear Dipole Moment: [e a0]
     X:     0.0000      Y:     0.0000      Z:     0.0000

  Electronic Dipole Moment: [e a0]
     X:     0.0001      Y:     0.0000      Z:     0.0000

  Dipole Moment: [e a0]
     X:     0.0001      Y:     0.0000      Z:     0.0000     Total:     0.0001

  Dipole Moment: [D]
     X:     0.0004      Y:     0.0000      Z:     0.0000     Total:     0.0004


*** tstop() called on bp1-compute00137.data.bp.acrc.priv at Fri Oct 29 08:38:08 2021
Module time:
	user time   =     546.95 seconds =       9.12 minutes
	system time =      20.14 seconds =       0.34 minutes
	total time  =         24 seconds =       0.40 minutes
Total time:
	user time   =    7170.15 seconds =     119.50 minutes
	system time =     309.11 seconds =       5.15 minutes
	total time  =        358 seconds =       5.97 minutes

*** tstart() called on bp1-compute00137.data.bp.acrc.priv
*** at Fri Oct 29 08:38:08 2021


         ------------------------------------------------------------
                                   SCF GRAD                          
                          Rob Parrish, Justin Turney,                
                       Andy Simmonett, and Alex Sokolov              
         ------------------------------------------------------------

  ==> Geometry <==

    Molecular point group: c2v
    Full point group: C2v

    Geometry (in Angstrom), charge = 0, multiplicity = 2:

       Center              X                  Y                   Z               Mass       
    ------------   -----------------  -----------------  -----------------  -----------------
         CU          -0.000272331595     0.000000000000     0.000000000000    62.929597720000
         CU           0.000136165798     0.000000000000     2.378595847323    62.929597720000
         CU           0.000136165798     0.000000000000    -2.378595847323    62.929597720000

  Nuclear repulsion =  467.752886039890541

  ==> Basis Set <==

  Basis Set: DEF2-TZVPPD
    Blend: DEF2-TZVPPD
    Number of shells: 57
    Number of basis function: 201
    Number of Cartesian functions: 249
    Spherical Harmonics?: true
    Max angular momentum: 4

  ==> DFJKGrad: Density-Fitted SCF Gradients <==

    Gradient:                    1
    J tasked:                  Yes
    K tasked:                  Yes
    wK tasked:                 Yes
    Omega:               2.500E-01
    OpenMP threads:             24
    Integrals threads:          24
    Memory [MiB]:           102996
    Schwarz Cutoff:          0E+00
    Fitting Condition:       1E-10

   => Auxiliary Basis Set <=

  Basis Set: (DEF2-TZVPPD AUX)
    Blend: DEF2-TZVPP-JKFIT
    Number of shells: 174
    Number of basis function: 792
    Number of Cartesian functions: 1131
    Spherical Harmonics?: true
    Max angular momentum: 6

  ==> DFT Potential <==

   => Composite Functional: M11-D3BJ <= 

    M11 Meta-GGA XC Functional

    R. Peverati and D. G. Truhlar, J. Phys. Chem. Lett., 2, 2810, 2011


    Deriv               =              1
    GGA                 =           TRUE
    Meta                =           TRUE

    Exchange Hybrid     =           TRUE
    MP2 Hybrid          =          FALSE

   => Exchange Functionals <=

    1.0000   XC_HYB_MGGA_X_M11 [omega = 0.2500]

   => Exact (HF) Exchange <=

    0.5720            HF,LR [omega = 0.2500]
    0.4280               HF 

   => Correlation Functionals <=

    1.0000    XC_MGGA_C_M11

   => Molecular Quadrature <=

    Radial Scheme          =       TREUTLER
    Pruning Scheme         =           FLAT
    Nuclear Scheme         =       TREUTLER

    BS radius alpha        =              1
    Pruning alpha          =              1
    Radial Points          =             75
    Spherical Points       =            302
    Total Points           =          67950
    Total Blocks           =            619
    Max Points             =            255
    Max Functions          =            170


  -Total Gradient:
     Atom            X                  Y                   Z
    ------   -----------------  -----------------  -----------------
       1        0.000001502295     0.000000000000     0.000000000000
       2       -0.000000803883     0.000000000000    -0.000018349419
       3       -0.000000803883     0.000000000000     0.000018349419


*** tstop() called on bp1-compute00137.data.bp.acrc.priv at Fri Oct 29 08:38:16 2021
Module time:
	user time   =     106.08 seconds =       1.77 minutes
	system time =       4.91 seconds =       0.08 minutes
	total time  =          8 seconds =       0.13 minutes
Total time:
	user time   =    7277.80 seconds =     121.30 minutes
	system time =     314.11 seconds =       5.24 minutes
	total time  =        366 seconds =       6.10 minutes

         ----------------------------------------------------------
                                   FINDIF
                     R. A. King and Jonathon Misiewicz
         ---------------------------------------------------------

  Computing second-derivative from gradients using projected, 
  symmetry-adapted, cartesian coordinates.

  6 gradients passed in, including the reference geometry.
  Generating complete list of displacements from unique ones.

    Operation 3 takes plus displacements of irrep B1u to minus ones.
    Operation 2 takes plus displacements of irrep B2u to minus ones.
    Operation 2 takes plus displacements of irrep B3u to minus ones.

-------------------------------------------------------------


  ==> Harmonic Vibrational Analysis <==

  non-mass-weighted Hessian:       Symmetric? True   Hermitian? True   Lin Dep Dim?  5 (0)
  projection of translations (True) and rotations (True) removed 5 degrees of freedom (5)
  total projector:                 Symmetric? True   Hermitian? True   Lin Dep Dim?  5 (5)
  mass-weighted Hessian:           Symmetric? True   Hermitian? True   Lin Dep Dim?  5 (0)
  pre-proj  low-frequency mode:    0.0000i [cm^-1]
  pre-proj  low-frequency mode:    0.0000i [cm^-1]
  pre-proj  low-frequency mode:    0.0000i [cm^-1]
  pre-proj  low-frequency mode:    0.0000  [cm^-1]
  pre-proj  low-frequency mode:    0.0000  [cm^-1]
  pre-proj  low-frequency mode:    0.0000  [cm^-1]
  pre-proj  low-frequency mode:    0.0000  [cm^-1]
  pre-proj  all modes:['35.4184i' '35.4184i' '0.0000i' '0.0000' '0.0000' '0.0000' '0.0000'
 '140.8999' '198.3403']
  projected mass-weighted Hessian: Symmetric? True   Hermitian? True   Lin Dep Dim?  5 (5)
  post-proj low-frequency mode:   35.4184i [cm^-1] (V)
  post-proj low-frequency mode:   35.4184i [cm^-1] (V)
  post-proj low-frequency mode:    0.0000i [cm^-1] (TR)
  post-proj low-frequency mode:    0.0000i [cm^-1] (TR)
  post-proj low-frequency mode:    0.0000  [cm^-1] (TR)
  post-proj low-frequency mode:    0.0000  [cm^-1] (TR)
  post-proj low-frequency mode:    0.0000  [cm^-1] (TR)
  post-proj  all modes:['35.4184i' '35.4184i' '0.0000i' '0.0000i' '0.0000' '0.0000' '0.0000'
 '140.8999' '198.3403']

  Vibration                       1                   2                   8           
  Freq [cm^-1]                 35.4184i            35.4184i            140.8999       
  Irrep                          B2u                 B3u                  Ag          
  Reduced mass [u]             62.9296             62.9296             62.9296        
  Force const [mDyne/A]        -0.0465             -0.0465              0.7361        
  Turning point v=0 [a0]        0.0000              0.0000              0.1165        
  RMS dev v=0 [a0 u^1/2]        0.0000              0.0000              0.6536        
  Char temp [K]                 0.0000              0.0000             202.7235       
  ----------------------------------------------------------------------------------
      1   CU              -0.00  0.82  0.00    0.82  0.00  0.00    0.00  0.00  0.00   
      2   CU              -0.00 -0.41 -0.00   -0.41 -0.00 -0.00    0.00 -0.00  0.71   
      3   CU               0.00 -0.41  0.00   -0.41  0.00 -0.00    0.00  0.00 -0.71   

  Vibration                       9           
  Freq [cm^-1]                 198.3403       
  Irrep                          B1u          
  Reduced mass [u]             62.9296        
  Force const [mDyne/A]         1.4586        
  Turning point v=0 [a0]        0.0982        
  RMS dev v=0 [a0 u^1/2]        0.5509        
  Char temp [K]                285.3675       
  ----------------------------------------------------------------------------------
      1   CU              -0.00 -0.00  0.82   
      2   CU              -0.00  0.00 -0.41   
      3   CU               0.00  0.00 -0.41   

  ==> Thermochemistry Components <==

  Entropy, S
    Electronic S            1.377 [cal/(mol K)]        5.763 [J/(mol K)]       0.00219507 [mEh/K] (multiplicity = 2)
    Translational S        41.612 [cal/(mol K)]      174.105 [J/(mol K)]       0.06631321 [mEh/K] (mol. weight = 188.7888 [u], P = 101325.00 [Pa])
    Rotational S           18.648 [cal/(mol K)]       78.023 [J/(mol K)]       0.02971747 [mEh/K] (symmetry no. = 2)
    Vibrational S           4.940 [cal/(mol K)]       20.669 [J/(mol K)]       0.00787248 [mEh/K]
  Total S                  66.578 [cal/(mol K)]      278.561 [J/(mol K)]       0.10609822 [mEh/K]
  Correction S              0.000 [cal/(mol K)]        0.000 [J/(mol K)]       0.00000000 [mEh/K]

  Constant volume heat capacity, Cv
    Electronic Cv           0.000 [cal/(mol K)]        0.000 [J/(mol K)]       0.00000000 [mEh/K]
    Translational Cv        2.981 [cal/(mol K)]       12.472 [J/(mol K)]       0.00475022 [mEh/K]
    Rotational Cv           1.987 [cal/(mol K)]        8.314 [J/(mol K)]       0.00316681 [mEh/K]
    Vibrational Cv          3.755 [cal/(mol K)]       15.709 [J/(mol K)]       0.00598331 [mEh/K]
  Total Cv                  8.723 [cal/(mol K)]       36.495 [J/(mol K)]       0.01390034 [mEh/K]
  Correction Cv             0.000 [cal/(mol K)]        0.000 [J/(mol K)]       0.00000000 [mEh/K]

  Constant pressure heat capacity, Cp
    Electronic Cp           0.000 [cal/(mol K)]        0.000 [J/(mol K)]       0.00000000 [mEh/K]
    Translational Cp        4.968 [cal/(mol K)]       20.786 [J/(mol K)]       0.00791703 [mEh/K]
    Rotational Cp           1.987 [cal/(mol K)]        8.314 [J/(mol K)]       0.00316681 [mEh/K]
    Vibrational Cp          3.755 [cal/(mol K)]       15.709 [J/(mol K)]       0.00598331 [mEh/K]
  Total Cp                 10.710 [cal/(mol K)]       44.810 [J/(mol K)]       0.01706715 [mEh/K]
  Correction Cp             0.000 [cal/(mol K)]        0.000 [J/(mol K)]       0.00000000 [mEh/K]

  ==> Thermochemistry Energy Analysis <==

  Raw electronic energy, E0
  Total E0, Electronic energy at well bottom at 0 [K]                -4920.98069086 [Eh]

  Zero-point energy, ZPE_vib = Sum_i nu_i / 2
    Electronic ZPE          0.000 [kcal/mol]        0.000 [kJ/mol]       0.00000000 [Eh]
    Translational ZPE       0.000 [kcal/mol]        0.000 [kJ/mol]       0.00000000 [Eh]
    Rotational ZPE          0.000 [kcal/mol]        0.000 [kJ/mol]       0.00000000 [Eh]
    Vibrational ZPE         0.485 [kcal/mol]        2.029 [kJ/mol]       0.00077285 [Eh]         169.620 [cm^-1]
  Correction ZPE            0.485 [kcal/mol]        2.029 [kJ/mol]       0.00077285 [Eh]         169.620 [cm^-1]
  Total ZPE, Electronic energy at 0 [K]                              -4920.97991802 [Eh]

  Thermal Energy, E (includes ZPE)
    Electronic E            0.000 [kcal/mol]        0.000 [kJ/mol]       0.00000000 [Eh]
    Translational E         0.889 [kcal/mol]        3.718 [kJ/mol]       0.00141628 [Eh]
    Rotational E            0.592 [kcal/mol]        2.479 [kJ/mol]       0.00094418 [Eh]
    Vibrational E           1.252 [kcal/mol]        5.239 [kJ/mol]       0.00199547 [Eh]
  Correction E              2.733 [kcal/mol]       11.436 [kJ/mol]       0.00435593 [Eh]
  Total E, Electronic energy at  298.15 [K]                          -4920.97633493 [Eh]

  Enthalpy, H_trans = E_trans + k_B * T
    Electronic H            0.000 [kcal/mol]        0.000 [kJ/mol]       0.00000000 [Eh]
    Translational H         1.481 [kcal/mol]        6.197 [kJ/mol]       0.00236046 [Eh]
    Rotational H            0.592 [kcal/mol]        2.479 [kJ/mol]       0.00094418 [Eh]
    Vibrational H           1.252 [kcal/mol]        5.239 [kJ/mol]       0.00199547 [Eh]
  Correction H              3.326 [kcal/mol]       13.915 [kJ/mol]       0.00530012 [Eh]
  Total H, Enthalpy at  298.15 [K]                                   -4920.97539075 [Eh]

  Gibbs free energy, G = H - T * S
    Electronic G           -0.411 [kcal/mol]       -1.718 [kJ/mol]      -0.00065446 [Eh]
    Translational G       -10.925 [kcal/mol]      -45.712 [kJ/mol]      -0.01741082 [Eh]
    Rotational G           -4.967 [kcal/mol]      -20.784 [kJ/mol]      -0.00791608 [Eh]
    Vibrational G          -0.221 [kcal/mol]       -0.923 [kJ/mol]      -0.00035171 [Eh]
  Correction G            -16.524 [kcal/mol]      -69.137 [kJ/mol]      -0.02633307 [Eh]
  Total G, Free enthalpy at  298.15 [K]                              -4921.00702393 [Eh]

    Psi4 stopped on: Friday, 29 October 2021 08:38AM
    Psi4 wall time for execution: 0:06:05.32

*** Psi4 exiting successfully. Buy a developer a beer!
