Optimizer: Optimization complete!
 6 displacements needed.
 1 2 3 4 5 6
Warning: thermodynamics relations excluded imaginary frequencies: ['83.0570i' '83.0570i']
Warning: used thermodynamics relations inappropriate for low-frequency modes: ['133.6136' '224.0350']
At level 1: Red. Int., RFO, no backsteps, dynamic trust
At level 1: Red. Int., RFO, no backsteps, dynamic trust
At level 1: Red. Int., RFO, no backsteps, dynamic trust
At level 1: Red. Int., RFO, no backsteps, dynamic trust
ow, X. Wang, B. P. Pritchard,
    P. Verma, H. F. Schaefer III, K. Patkowski, R. A. King, E. F. Valeev,
    F. A. Evangelista, J. M. Turney, T. D. Crawford, and C. D. Sherrill,
    J. Chem. Theory Comput. 13(7) pp 3185--3197 (2017).
    (doi: 10.1021/acs.jctc.7b00174)


                         Additional Contributions by
    P. Kraus, H. Kruse, M. H. Lechner, M. C. Schieber, R. A. Shaw,
    A. Alenaizan, R. Galvelis, Z. L. Glick, S. Lehtola, and J. P. Misiewicz

    -----------------------------------------------------------------------


    Psi4 started on: Friday, 29 October 2021 08:35AM

    Process ID: 210658
    Host:       bp1-compute00072.data.bp.acrc.priv
    PSIDATADIR: /work/zw18965/.conda/envs/p4env/share/psi4
    Memory:     500.0 MiB
    Threads:    24
    
  ==> Input File <==

--------------------------------------------------------------------------
memory 144 GB

molecule {
1 1
Cu       0.000000    0.000000    0.000000 
Cu       0.000000    0.000000    2.337165 
Cu       0.000000    0.000000   -2.337165 
 }

set dynamic_level 1
set basis Def2-TZVPPD

optimize("M11-D3BJ")
frequencies("M11-D3BJ")
--------------------------------------------------------------------------

  Memory set to 134.110 GiB by Python driver.
gradient() will perform analytic gradient computation.

*** tstart() called on bp1-compute00072.data.bp.acrc.priv
*** at Fri Oct 29 08:35:36 2021

   => Loading Basis Set <=

    Name: DEF2-TZVPPD
    Role: ORBITAL
    Keyword: BASIS
    atoms 1-3 entry CU         line  1290 file /work/zw18965/.conda/envs/p4env/share/psi4/basis/def2-tzvppd.gbs 


         ---------------------------------------------------------
                                   SCF
               by Justin Turney, Rob Parrish, Andy Simmonett
                          and Daniel G. A. Smith
                              RKS Reference
                       24 Threads, 137329 MiB Core
         ---------------------------------------------------------

  ==> Geometry <==

    Molecular point group: d2h
    Full point group: D_inf_h

    Geometry (in Angstrom), charge = 1, multiplicity = 1:

       Center              X                  Y                   Z               Mass       
    ------------   -----------------  -----------------  -----------------  -----------------
         CU           0.000000000000     0.000000000000     0.000000000000    62.929597720000
         CU           0.000000000000     0.000000000000     2.337165000000    62.929597720000
         CU           0.000000000000     0.000000000000    -2.337165000000    62.929597720000

  Running in d2h symmetry.

  Rotational constants: A = ************  B =      0.02452  C =      0.02452 [cm^-1]
  Rotational constants: A = ************  B =    735.11198  C =    735.11198 [MHz]
  Nuclear repulsion =  476.044731729969840

  Charge       = 1
  Multiplicity = 1
  Electrons    = 86
  Nalpha       = 43
  Nbeta        = 43

  ==> Algorithm <==

  SCF Algorithm Type is DF.
  DIIS enabled.
  MOM disabled.
  Fractional occupation disabled.
  Guess Type is SAD.
  Energy threshold   = 1.00e-08
  Density threshold  = 1.00e-08
  Integral threshold = 0.00e+00

  ==> Primary Basis <==

  Basis Set: DEF2-TZVPPD
    Blend: DEF2-TZVPPD
    Number of shells: 57
    Number of basis function: 201
    Number of Cartesian functions: 249
    Spherical Harmonics?: true
    Max angular momentum: 4

  ==> DFT Potential <==

   => Composite Functional: M11-D3BJ <= 

    M11 Meta-GGA XC Functional

    R. Peverati and D. G. Truhlar, J. Phys. Chem. Lett., 2, 2810, 2011


    Deriv               =              1
    GGA                 =           TRUE
    Meta                =           TRUE

    Exchange Hybrid     =           TRUE
    MP2 Hybrid          =          FALSE

   => Exchange Functionals <=

    1.0000   XC_HYB_MGGA_X_M11 [omega = 0.2500]

   => Exact (HF) Exchange <=

    0.5720            HF,LR [omega = 0.2500]
    0.4280               HF 

   => Correlation Functionals <=

    1.0000    XC_MGGA_C_M11

   => Molecular Quadrature <=

    Radial Scheme          =       TREUTLER
    Pruning Scheme         =           FLAT
    Nuclear Scheme         =       TREUTLER

    BS radius alpha        =              1
    Pruning alpha          =              1
    Radial Points          =             75
    Spherical Points       =            302
    Total Points           =          67950
    Total Blocks           =            621
    Max Points             =            254
    Max Functions          =            170

   => M11-D3(BJ): Empirical Dispersion <=

    Grimme's -D3 (BJ-damping) Dispersion Correction
    Grimme S.; Ehrlich S.; Goerigk L. (2011), J. Comput. Chem., 32: 1456
    Parametrisation from:    L. Goerigk, J. Phys. Chem. Lett. 6, 3891-3896, 2015

        s6 =       1.000000
        s8 =       2.811200
        a1 =       0.000000
        a2 =      10.138900

   => Loading Basis Set <=

    Name: (DEF2-TZVPPD AUX)
    Role: JKFIT
    Keyword: DF_BASIS_SCF
    atoms 1-3 entry CU         line  2361 file /work/zw18965/.conda/envs/p4env/share/psi4/basis/def2-tzvpp-jkfit.gbs 

  ==> Pre-Iterations <==

   -------------------------------------------------------
    Irrep   Nso     Nmo     Nalpha   Nbeta   Ndocc  Nsocc
   -------------------------------------------------------
     Ag        44      44       0       0       0       0
     B1g       14      14       0       0       0       0
     B2g       22      22       0       0       0       0
     B3g       22      22       0       0       0       0
     Au        10      10       0       0       0       0
     B1u       37      37       0       0       0       0
     B2u       26      26       0       0       0       0
     B3u       26      26       0       0       0       0
   -------------------------------------------------------
    Total     201     201      43      43      43       0
   -------------------------------------------------------

  ==> Integral Setup <==

  ==> DiskDFJK: Density-Fitted J/K Matrices <==

    J tasked:                  Yes
    K tasked:                  Yes
    wK tasked:                 Yes
    Omega:               2.500E-01
    OpenMP threads:             24
    Integrals threads:          24
    Memory [MiB]:           102377
    Algorithm:                Core
    Integral Cache:           NONE
    Schwarz Cutoff:          1E-12
    Fitting Condition:       1E-10

   => Auxiliary Basis Set <=

  Basis Set: (DEF2-TZVPPD AUX)
    Blend: DEF2-TZVPP-JKFIT
    Number of shells: 174
    Number of basis function: 792
    Number of Cartesian functions: 1131
    Spherical Harmonics?: true
    Max angular momentum: 6

  Cached 100.0% of DFT collocation blocks in 0.605 [GiB].

  Minimum eigenvalue in the overlap matrix is 3.5514189840E-04.
  Using Symmetric Orthogonalization.

  SCF Guess: Superposition of Atomic Densities via on-the-fly atomic UHF.

  ==> Iterations <==

                           Total Energy        Delta E     RMS |[F,P]|

   @DF-RKS iter SAD: -4912.75366079043124   -4.91275e+03   0.00000e+00 
    Occupation by irrep:
             Ag   B1g   B2g   B3g    Au   B1u   B2u   B3u 
    DOCC [    13,    1,    3,    3,    1,   10,    6,    6 ]

   @DF-RKS iter   1: -4913.26388575169858   -5.10225e-01   8.97102e-02 DIIS
    Occupation by irrep:
             Ag   B1g   B2g   B3g    Au   B1u   B2u   B3u 
    DOCC [    13,    2,    4,    4,    1,    9,    5,    5 ]

   @DF-RKS iter   2: -4789.52120614783144    1.23743e+02   1.96717e-01 DIIS
    Occupation by irrep:
             Ag   B1g   B2g   B3g    Au   B1u   B2u   B3u 
    DOCC [    13,    1,    4,    4,    1,   10,    5,    5 ]

   @DF-RKS iter   3: -4917.81289468362411   -1.28292e+02   4.99697e-02 DIIS
    Occupation by irrep:
             Ag   B1g   B2g   B3g    Au   B1u   B2u   B3u 
    DOCC [    13,    2,    4,    4,    1,    9,    5,    5 ]

   @DF-RKS iter   4: -4910.36959910765745    7.44330e+00   7.62274e-02 DIIS
   @DF-RKS iter   5: -4920.16490202977820   -9.79530e+00   2.48802e-02 DIIS
   @DF-RKS iter   6: -4920.71065077306048   -5.45749e-01   5.35037e-03 DIIS
   @DF-RKS iter   7: -4920.73530304837004   -2.46523e-02   2.59105e-03 DIIS
   @DF-RKS iter   8: -4920.74226334760169   -6.96030e-03   9.91349e-04 DIIS
   @DF-RKS iter   9: -4920.74350108022099   -1.23773e-03   6.54025e-05 DIIS
   @DF-RKS iter  10: -4920.74352352394180   -2.24437e-05   2.63514e-05 DIIS
   @DF-RKS iter  11: -4920.74353105217233   -7.52823e-06   1.18678e-05 DIIS
   @DF-RKS iter  12: -4920.74353260692078   -1.55475e-06   3.68977e-06 DIIS
   @DF-RKS iter  13: -4920.74353272088047   -1.13960e-07   9.52999e-07 DIIS
   @DF-RKS iter  14: -4920.74353274375426   -2.28738e-08   2.70488e-07 DIIS
   @DF-RKS iter  15: -4920.74353274493023   -1.17598e-09   5.18395e-08 DIIS
   @DF-RKS iter  16: -4920.74353274497298   -4.27463e-11   1.55661e-08 DIIS
   @DF-RKS iter  17: -4920.74353274497480   -1.81899e-12   2.86019e-09 DIIS
  Energy and wave function converged.


  ==> Post-Iterations <==

    Orbital Energies [Eh]
    ---------------------

    Doubly Occupied:                                                      

       1B1u -324.133661     1Ag  -324.133658     2Ag  -324.082842  
       2B1u  -39.254642     3Ag   -39.254610     4Ag   -39.212565  
       5Ag   -34.520513     3B1u  -34.520509     1B2g  -34.520091  
       1B3g  -34.520091     1B3u  -34.520088     1B2u  -34.520088  
       4B1u  -34.477729     2B3u  -34.476034     2B2u  -34.476034  
       5B1u   -4.613283     6Ag    -4.613227     7Ag    -4.566523  
       6B1u   -3.136727     8Ag    -3.136586     3B3u   -3.134734  
       3B2u   -3.134734     2B2g   -3.134719     2B3g   -3.134719  
       7B1u   -3.090378     4B3u   -3.083475     4B2u   -3.083475  
       9Ag    -0.634190     3B3g   -0.619792     3B2g   -0.619792  
       8B1u   -0.614487     5B2u   -0.613334     5B3u   -0.613334  
      10Ag    -0.611341     1B1g   -0.611329     9B1u   -0.611036  
       1Au    -0.611024    11Ag    -0.556931     2B1g   -0.556914  
       4B2g   -0.554957     4B3g   -0.554957    12Ag    -0.552642  
      13Ag    -0.445656  

    Virtual:                                                              

      10B1u   -0.237516    14Ag    -0.158358     6B2u   -0.131966  
       6B3u   -0.131966    11B1u   -0.116588     5B3g   -0.102534  
       5B2g   -0.102534     7B3u   -0.051829     7B2u   -0.051829  
      15Ag    -0.048544    12B1u   -0.036677    16Ag    -0.026043  
       8B2u   -0.001280     8B3u   -0.001280    13B1u    0.009625  
       6B3g    0.030690     6B2g    0.030690     3B1g    0.053510  
      17Ag     0.053511    18Ag     0.053810    14B1u    0.076963  
       2Au     0.076965     9B3u    0.095218     9B2u    0.095218  
       7B3g    0.101004     7B2g    0.101004    19Ag     0.104045  
      15B1u    0.127893    16B1u    0.157256     4B1g    0.159969  
      20Ag     0.159971    10B2u    0.206727    10B3u    0.206727  
      21Ag     0.249582     8B2g    0.319795     8B3g    0.319795  
      22Ag     0.374643    17B1u    0.432730    18B1u    0.508628  
      11B2u    0.553335    11B3u    0.553335     9B2g    0.575501  
       9B3g    0.575501    12B2u    0.639636    12B3u    0.639636  
      23Ag     0.645470    24Ag     0.762910     5B1g    0.762922  
      10B2g    0.779614    10B3g    0.779614    19B1u    0.781862  
       3Au     0.793300    20B1u    0.793302    13B2u    0.853524  
      13B3u    0.853524    25Ag     0.857735    26Ag     0.875434  
       6B1g    0.875503    11B2g    1.062824    11B3g    1.062824  
      21B1u    1.089514    27Ag     1.371659    14B2u    2.856605  
      14B3u    2.856605    28Ag     2.869155    12B2g    2.935779  
      12B3g    2.935779    22B1u    2.989089    15B2u    2.992056  
      15B3u    2.992056    23B1u    3.003557    29Ag     3.086554  
      24B1u    3.240989    30Ag     3.296397    13B2g    3.338562  
      13B3g    3.338562    25B1u    3.343726     4Au     3.343827  
      31Ag     3.344616     7B1g    3.344716    16B2u    3.345430  
      16B3u    3.345430    14B3g    3.345431    14B2g    3.345431  
      17B3u    3.346662    17B2u    3.346662    18B3u    3.396150  
      18B2u    3.396150    26B1u    3.409881    27B1u    3.410051  
       5Au     3.410187    19B3u    3.418418    19B2u    3.418418  
      32Ag     3.487591     8B1g    3.571851    33Ag     3.571889  
       6Au     3.584119    28B1u    3.584152    15B2g    3.623227  
      15B3g    3.623227    29B1u    3.649015     9B1g    3.664636  
      34Ag     3.664671    20B3u    3.687972    20B2u    3.687972  
      16B3g    3.804645    16B2g    3.804645    35Ag     3.901186  
      30B1u    3.983279    36Ag     4.324087    21B2u   12.784916  
      21B3u   12.784916     7Au    12.785218    10B1g   12.785259  
      17B3g   12.785538    17B2g   12.785538    31B1u   12.785554  
      37Ag    12.785595    22B2u   12.785955    22B3u   12.785955  
      18B3g   12.785972    18B2g   12.785972    32B1u   12.786217  
      38Ag    12.786428    33B1u   12.786430    11B1g   12.786533  
       8Au    12.786533    39Ag    12.786781    19B2g   12.840280  
      19B3g   12.840280    12B1g   12.841311    40Ag    12.841870  
      41Ag    12.843243    20B2g   12.844200    20B3g   12.844200  
      42Ag    12.847309    13B1g   12.847452     9Au    12.998239  
      34B1u   12.998332    23B3u   12.998524    23B2u   12.998524  
      21B2g   12.998525    21B3g   12.998525    14B1g   12.999064  
      43Ag    12.999157    24B2u   12.999909    24B3u   12.999909  
      22B3g   13.011145    22B2g   13.011145    35B1u   13.015543  
      10Au    13.048943    36B1u   13.049072    25B2u   13.050521  
      25B3u   13.050521    26B2u   13.059890    26B3u   13.059890  
      44Ag    13.076164    37B1u   13.136199  

    Final Occupation by Irrep:
             Ag   B1g   B2g   B3g    Au   B1u   B2u   B3u 
    DOCC [    13,    2,    4,    4,    1,    9,    5,    5 ]

  @DF-RKS Final Energy: -4920.74353274497480

   => Energetics <=

    Nuclear Repulsion Energy =            476.0447317299698398
    One-Electron Energy =               -7796.8423413605914902
    Two-Electron Energy =                2509.9631686710299618
    DFT Exchange-Correlation Energy =    -109.9076463053827837
    Empirical Dispersion Energy =          -0.0014454800000000
    VV10 Nonlocal Energy =                  0.0000000000000000
    Total Energy =                      -4920.7435327449748002

Computation Completed


Properties will be evaluated at   0.000000,   0.000000,   0.000000 [a0]

Properties computed using the SCF density matrix

  Nuclear Dipole Moment: [e a0]
     X:     0.0000      Y:     0.0000      Z:    -0.0000

  Electronic Dipole Moment: [e a0]
     X:     0.0000      Y:     0.0000      Z:     0.0000

  Dipole Moment: [e a0]
     X:     0.0000      Y:     0.0000      Z:    -0.0000     Total:     0.0000

  Dipole Moment: [D]
     X:     0.0000      Y:     0.0000      Z:    -0.0000     Total:     0.0000


*** tstop() called on bp1-compute00072.data.bp.acrc.priv at Fri Oct 29 08:35:43 2021
Module time:
	user time   =     111.83 seconds =       1.86 minutes
	system time =       5.27 seconds =       0.09 minutes
	total time  =          7 seconds =       0.12 minutes
Total time:
	user time   =     111.83 seconds =       1.86 minutes
	system time =       5.27 seconds =       0.09 minutes
	total time  =          7 seconds =       0.12 minutes

*** tstart() called on bp1-compute00072.data.bp.acrc.priv
*** at Fri Oct 29 08:35:43 2021


         ------------------------------------------------------------
                                   SCF GRAD                          
                          Rob Parrish, Justin Turney,                
                       Andy Simmonett, and Alex Sokolov              
         ------------------------------------------------------------

  ==> Geometry <==

    Molecular point group: d2h
    Full point group: D_inf_h

    Geometry (in Angstrom), charge = 1, multiplicity = 1:

       Center              X                  Y                   Z               Mass       
    ------------   -----------------  -----------------  -----------------  -----------------
         CU           0.000000000000     0.000000000000     0.000000000000    62.929597720000
         CU           0.000000000000     0.000000000000     2.337165000000    62.929597720000
         CU           0.000000000000     0.000000000000    -2.337165000000    62.929597720000

  Nuclear repulsion =  476.044731729969840

  ==> Basis Set <==

  Basis Set: DEF2-TZVPPD
    Blend: DEF2-TZVPPD
    Number of shells: 57
    Number of basis function: 201
    Number of Cartesian functions: 249
    Spherical Harmonics?: true
    Max angular momentum: 4

  ==> DFJKGrad: Density-Fitted SCF Gradients <==

    Gradient:                    1
    J tasked:                  Yes
    K tasked:                  Yes
    wK tasked:                 Yes
    Omega:               2.500E-01
    OpenMP threads:             24
    Integrals threads:          24
    Memory [MiB]:           102996
    Schwarz Cutoff:          0E+00
    Fitting Condition:       1E-10

   => Auxiliary Basis Set <=

  Basis Set: (DEF2-TZVPPD AUX)
    Blend: DEF2-TZVPP-JKFIT
    Number of shells: 174
    Number of basis function: 792
    Number of Cartesian functions: 1131
    Spherical Harmonics?: true
    Max angular momentum: 6

  ==> DFT Potential <==

   => Composite Functional: M11-D3BJ <= 

    M11 Meta-GGA XC Functional

    R. Peverati and D. G. Truhlar, J. Phys. Chem. Lett., 2, 2810, 2011


    Deriv               =              1
    GGA                 =           TRUE
    Meta                =           TRUE

    Exchange Hybrid     =           TRUE
    MP2 Hybrid          =          FALSE

   => Exchange Functionals <=

    1.0000   XC_HYB_MGGA_X_M11 [omega = 0.2500]

   => Exact (HF) Exchange <=

    0.5720            HF,LR [omega = 0.2500]
    0.4280               HF 

   => Correlation Functionals <=

    1.0000    XC_MGGA_C_M11

   => Molecular Quadrature <=

    Radial Scheme          =       TREUTLER
    Pruning Scheme         =           FLAT
    Nuclear Scheme         =       TREUTLER

    BS radius alpha        =              1
    Pruning alpha          =              1
    Radial Points          =             75
    Spherical Points       =            302
    Total Points           =          67950
    Total Blocks           =            621
    Max Points             =            254
    Max Functions          =            170


  -Total Gradient:
     Atom            X                  Y                   Z
    ------   -----------------  -----------------  -----------------
       1       -0.000000000000    -0.000000000000     0.000000000000
       2        0.000000000000    -0.000000000000    -0.004463732697
       3        0.000000000000     0.000000000000     0.004463732697


*** tstop() called on bp1-compute00072.data.bp.acrc.priv at Fri Oct 29 08:35:49 2021
Module time:
	user time   =      67.98 seconds =       1.13 minutes
	system time =      10.37 seconds =       0.17 minutes
	total time  =          6 seconds =       0.10 minutes
Total time:
	user time   =     181.31 seconds =       3.02 minutes
	system time =      15.75 seconds =       0.26 minutes
	total time  =         13 seconds =       0.22 minutes

			-----------------------------------------
			 OPTKING 2.0: for geometry optimizations 
			  - R.A. King,  Bethel University        
			-----------------------------------------
	At level 1: Red. Int., RFO, no backsteps, dynamic trust

	Internal coordinates to be generated automatically.
	Detected frag 1 with atoms:  1 2 3
	---Fragment 1 Bond Connectivity---
	 1 : 2 3
	 2 : 1
	 3 : 1

	---Fragment 1 Geometry and Gradient---
	 CU          0.0000000000        0.0000000000        0.0000000000
	 CU          0.0000000000        0.0000000000        4.4166017600
	 CU          0.0000000000        0.0000000000       -4.4166017600
	            -0.0000000000       -0.0000000000        0.0000000000
	             0.0000000000       -0.0000000000       -0.0044637327
	             0.0000000000        0.0000000000        0.0044637327

	Previous optimization step data not found.  Starting new optimization.

	---Fragment 1 Intrafragment Coordinates---
	 - Coordinate -           - BOHR/RAD -       - ANG/DEG -
	 R(1,2)           =         4.416602	       2.337165
	 R(1,3)           =         4.416602	       2.337165
	 L(2,1,3)         =         3.141593	     180.000000
	 l(2,1,3)         =         3.141593	     180.000000

	Current energy   :     -4920.7435327450

	Generating empirical Hessian (Schlegel '84) for each fragment.
	Taking RFO optimization step.
	Going to follow RFO solution 1.
	Using RFO vector 1.
	Norm of target step-size    0.04706
	Projected energy change by RFO approximation:         0.0008083583

	Back-transformation to cartesian coordinates...
	Successfully converged to displaced geometry.

	--- Internal Coordinate Step in ANG or DEG, aJ/ANG or AJ/DEG ---
	 ---------------------------------------------------------------------------
	   Coordinate                Previous        Force       Change         New 
	   ----------                --------       ------       ------       ------
	    1 R(1,2)          =      2.337165     0.036775     0.017608     2.354773
	    2 R(1,3)          =      2.337165     0.036775     0.017608     2.354773
	    3 L(2,1,3)        =    180.000000     0.000000     0.000000   180.000000
	    4 l(2,1,3)        =    180.000000     0.000000     0.000000   180.000000
	 ---------------------------------------------------------------------------
	Successfully symmetrized geometry.

  ==> Convergence Check <==

  Measures of convergence in internal coordinates in au.
  Criteria marked as inactive (o), active & met (*), and active & unmet ( ).
  --------------------------------------------------------------------------------------------- ~
   Step     Total Energy     Delta E     MAX Force     RMS Force      MAX Disp      RMS Disp    ~
  --------------------------------------------------------------------------------------------- ~
    Convergence Criteria    1.00e-06 *    3.00e-04 *             o    1.20e-03 *             o  ~
  --------------------------------------------------------------------------------------------- ~
      1   -4920.74353274   -4.92e+03      4.46e-03      3.16e-03 o    3.33e-02      2.35e-02 o  ~
  ---------------------------------------------------------------------------------------------

	Writing optimization data to binary file.
	Structure for next step:
	Cartesian Geometry (in Angstrom)
	   CU    -0.0000000000   0.0000000000   0.0000000000
	   CU     0.0000000000   0.0000000000   2.3547732162
	   CU     0.0000000000   0.0000000000  -2.3547732162
			--------------------------
			 OPTKING Finished Execution 
			--------------------------

    Structure for next step:
    Molecular point group: d2h
    Full point group: D_inf_h

    Geometry (in Angstrom), charge = 1, multiplicity = 1:

    CU           0.000000000000     0.000000000000     0.000000000000
    CU           0.000000000000    -0.000000000000     2.354773225483
    CU           0.000000000000    -0.000000000000    -2.354773225483

gradient() will perform analytic gradient computation.

*** tstart() called on bp1-compute00072.data.bp.acrc.priv
*** at Fri Oct 29 08:35:49 2021

   => Loading Basis Set <=

    Name: DEF2-TZVPPD
    Role: ORBITAL
    Keyword: BASIS
    atoms 1-3 entry CU         line  1290 file /work/zw18965/.conda/envs/p4env/share/psi4/basis/def2-tzvppd.gbs 


         ---------------------------------------------------------
                                   SCF
               by Justin Turney, Rob Parrish, Andy Simmonett
                          and Daniel G. A. Smith
                              RKS Reference
                       24 Threads, 137329 MiB Core
         ---------------------------------------------------------

  ==> Geometry <==

    Molecular point group: d2h
    Full point group: D_inf_h

    Geometry (in Angstrom), charge = 1, multiplicity = 1:

       Center              X                  Y                   Z               Mass       
    ------------   -----------------  -----------------  -----------------  -----------------
         CU           0.000000000000     0.000000000000     0.000000000000    62.929597720000
         CU          -0.000000000000     0.000000000000     2.354773225483    62.929597720000
         CU          -0.000000000000     0.000000000000    -2.354773225483    62.929597720000

  Running in d2h symmetry.

  Rotational constants: A = ************  B =      0.02416  C =      0.02416 [cm^-1]
  Rotational constants: A = ************  B =    724.15923  C =    724.15923 [MHz]
  Nuclear repulsion =  472.485024627082339

  Charge       = 1
  Multiplicity = 1
  Electrons    = 86
  Nalpha       = 43
  Nbeta        = 43

  ==> Algorithm <==

  SCF Algorithm Type is DF.
  DIIS enabled.
  MOM disabled.
  Fractional occupation disabled.
  Guess Type is READ.
  Energy threshold   = 1.00e-08
  Density threshold  = 1.00e-08
  Integral threshold = 0.00e+00

  ==> Primary Basis <==

  Basis Set: DEF2-TZVPPD
    Blend: DEF2-TZVPPD
    Number of shells: 57
    Number of basis function: 201
    Number of Cartesian functions: 249
    Spherical Harmonics?: true
    Max angular momentum: 4

  ==> DFT Potential <==

   => Composite Functional: M11-D3BJ <= 

    M11 Meta-GGA XC Functional

    R. Peverati and D. G. Truhlar, J. Phys. Chem. Lett., 2, 2810, 2011


    Deriv               =              1
    GGA                 =           TRUE
    Meta                =           TRUE

    Exchange Hybrid     =           TRUE
    MP2 Hybrid          =          FALSE

   => Exchange Functionals <=

    1.0000   XC_HYB_MGGA_X_M11 [omega = 0.2500]

   => Exact (HF) Exchange <=

    0.5720            HF,LR [omega = 0.2500]
    0.4280               HF 

   => Correlation Functionals <=

    1.0000    XC_MGGA_C_M11

   => Molecular Quadrature <=

    Radial Scheme          =       TREUTLER
    Pruning Scheme         =           FLAT
    Nuclear Scheme         =       TREUTLER

    BS radius alpha        =              1
    Pruning alpha          =              1
    Radial Points          =             75
    Spherical Points       =            302
    Total Points           =          67950
    Total Blocks           =            620
    Max Points             =            256
    Max Functions          =            170

   => M11-D3(BJ): Empirical Dispersion <=

    Grimme's -D3 (BJ-damping) Dispersion Correction
    Grimme S.; Ehrlich S.; Goerigk L. (2011), J. Comput. Chem., 32: 1456
    Parametrisation from:    L. Goerigk, J. Phys. Chem. Lett. 6, 3891-3896, 2015

        s6 =       1.000000
        s8 =       2.811200
        a1 =       0.000000
        a2 =      10.138900

   => Loading Basis Set <=

    Name: (DEF2-TZVPPD AUX)
    Role: JKFIT
    Keyword: DF_BASIS_SCF
    atoms 1-3 entry CU         line  2361 file /work/zw18965/.conda/envs/p4env/share/psi4/basis/def2-tzvpp-jkfit.gbs 

   => Loading Basis Set <=

    Name: DEF2-TZVPPD
    Role: ORBITAL
    Keyword: BASIS
    atoms 1-3 entry CU         line  1290 file /work/zw18965/.conda/envs/p4env/share/psi4/basis/def2-tzvppd.gbs 

  Reading orbitals from file 180, no projection.

  ==> Pre-Iterations <==

   -------------------------------------------------------
    Irrep   Nso     Nmo     Nalpha   Nbeta   Ndocc  Nsocc
   -------------------------------------------------------
     Ag        44      44       0       0       0       0
     B1g       14      14       0       0       0       0
     B2g       22      22       0       0       0       0
     B3g       22      22       0       0       0       0
     Au        10      10       0       0       0       0
     B1u       37      37       0       0       0       0
     B2u       26      26       0       0       0       0
     B3u       26      26       0       0       0       0
   -------------------------------------------------------
    Total     201     201      43      43      43       0
   -------------------------------------------------------

  ==> Integral Setup <==

  ==> DiskDFJK: Density-Fitted J/K Matrices <==

    J tasked:                  Yes
    K tasked:                  Yes
    wK tasked:                 Yes
    Omega:               2.500E-01
    OpenMP threads:             24
    Integrals threads:          24
    Memory [MiB]:           102377
    Algorithm:                Core
    Integral Cache:           NONE
    Schwarz Cutoff:          1E-12
    Fitting Condition:       1E-10

   => Auxiliary Basis Set <=

  Basis Set: (DEF2-TZVPPD AUX)
    Blend: DEF2-TZVPP-JKFIT
    Number of shells: 174
    Number of basis function: 792
    Number of Cartesian functions: 1131
    Spherical Harmonics?: true
    Max angular momentum: 6

  Cached 100.0% of DFT collocation blocks in 0.604 [GiB].

  Minimum eigenvalue in the overlap matrix is 3.6463837062E-04.
  Using Symmetric Orthogonalization.

  SCF Guess: Orbitals guess was supplied from a previous computation.

  ==> Iterations <==

                           Total Energy        Delta E     RMS |[F,P]|

   @DF-RKS iter   0: -4920.75621495353789   -4.92076e+03   7.76439e-04 
   @DF-RKS iter   1: -4920.74377450133215    1.24405e-02   5.09290e-05 DIIS
   @DF-RKS iter   2: -4920.74376902650693    5.47483e-06   1.00222e-04 DIIS
   @DF-RKS iter   3: -4920.74377704203289   -8.01553e-06   3.73466e-06 DIIS
   @DF-RKS iter   4: -4920.74377706441101   -2.23781e-08   4.38968e-06 DIIS
   @DF-RKS iter   5: -4920.74377708795691   -2.35459e-08   9.42748e-07 DIIS
   @DF-RKS iter   6: -4920.74377709364035   -5.68343e-09   2.70881e-07 DIIS
   @DF-RKS iter   7: -4920.74377709517648   -1.53614e-09   1.07654e-07 DIIS
   @DF-RKS iter   8: -4920.74377709544842   -2.71939e-10   4.03948e-08 DIIS
   @DF-RKS iter   9: -4920.74377709548480   -3.63798e-11   1.12479e-08 DIIS
   @DF-RKS iter  10: -4920.74377709548844   -3.63798e-12   3.20928e-09 DIIS
  Energy and wave function converged.


  ==> Post-Iterations <==

    Orbital Energies [Eh]
    ---------------------

    Doubly Occupied:                                                      

       1B1u -324.133138     1Ag  -324.133135     2Ag  -324.081569  
       2B1u  -39.254061     3Ag   -39.254031     4Ag   -39.211179  
       5Ag   -34.519925     3B1u  -34.519921     1B2g  -34.519529  
       1B3g  -34.519529     1B3u  -34.519526     1B2u  -34.519526  
       4B1u  -34.476333     2B2u  -34.474686     2B3u  -34.474686  
       5B1u   -4.612696     6Ag    -4.612642     7Ag    -4.565116  
       6B1u   -3.136038     8Ag    -3.135919     3B3u   -3.134201  
       3B2u   -3.134201     2B2g   -3.134186     2B3g   -3.134186  
       7B1u   -3.088832     4B2u   -3.082181     4B3u   -3.082181  
       9Ag    -0.632375     3B2g   -0.618599     3B3g   -0.618599  
       8B1u   -0.613777     5B3u   -0.612658     5B2u   -0.612658  
      10Ag    -0.610810     1B1g   -0.610799     9B1u   -0.610533  
       1Au    -0.610522    11Ag    -0.555725     2B1g   -0.555709  
       4B2g   -0.554074     4B3g   -0.554074    12Ag    -0.551993  
      13Ag    -0.444111  

    Virtual:                                                              

      10B1u   -0.237341    14Ag    -0.158411     6B3u   -0.131361  
       6B2u   -0.131361    11B1u   -0.116683     5B2g   -0.102445  
       5B3g   -0.102445     7B2u   -0.051777     7B3u   -0.051777  
      15Ag    -0.048745    12B1u   -0.036413    16Ag    -0.025181  
       8B3u   -0.000748     8B2u   -0.000748    13B1u    0.009829  
       6B2g    0.030756     6B3g    0.030756    17Ag     0.053445  
       3B1g    0.053859    18Ag     0.053860    14B1u    0.076939  
       2Au     0.076940     9B3u    0.094864     9B2u    0.094864  
       7B2g    0.100669     7B3g    0.100669    19Ag     0.103024  
      15B1u    0.128115    16B1u    0.156211     4B1g    0.159664  
      20Ag     0.159666    10B3u    0.205548    10B2u    0.205548  
      21Ag     0.249777     8B3g    0.318137     8B2g    0.318137  
      22Ag     0.372792    17B1u    0.429753    18B1u    0.508516  
      11B3u    0.555139    11B2u    0.555139     9B2g    0.576205  
       9B3g    0.576205    12B3u    0.639260    12B2u    0.639260  
      23Ag     0.643856    24Ag     0.764717     5B1g    0.764731  
      10B3g    0.777536    10B2g    0.777536    19B1u    0.780778  
       3Au     0.793601    20B1u    0.793602    13B2u    0.852510  
      13B3u    0.852510    25Ag     0.853279    26Ag     0.874782  
       6B1g    0.874853    11B3g    1.058848    11B2g    1.058848  
      21B1u    1.082492    27Ag     1.364382    14B2u    2.857391  
      14B3u    2.857391    28Ag     2.865950    12B2g    2.933919  
      12B3g    2.933919    22B1u    2.992110    15B3u    2.992422  
      15B2u    2.992422    23B1u    2.997499    29Ag     3.084352  
      24B1u    3.236426    30Ag     3.296329    13B3g    3.339806  
      13B2g    3.339806    25B1u    3.344284     4Au     3.344391  
      31Ag     3.345184     7B1g    3.345290    16B2u    3.345822  
      16B3u    3.345822    14B3g    3.345823    14B2g    3.345823  
      17B3u    3.348141    17B2u    3.348141    18B3u    3.395267  
      18B2u    3.395267    26B1u    3.411497     5Au     3.411641  
      27B1u    3.413012    19B2u    3.419379    19B3u    3.419379  
      32Ag     3.481924     8B1g    3.572472    33Ag     3.572498  
       6Au     3.584092    28B1u    3.584115    15B3g    3.619932  
      15B2g    3.619932    29B1u    3.636046     9B1g    3.664873  
      34Ag     3.664892    20B2u    3.684782    20B3u    3.684782  
      16B2g    3.802656    16B3g    3.802656    35Ag     3.892221  
      30B1u    3.973248    36Ag     4.312270    21B2u   12.785495  
      21B3u   12.785495     7Au    12.785771    10B1g   12.785807  
      17B3g   12.786067    17B2g   12.786067    31B1u   12.786111  
      37Ag    12.786148    22B3u   12.786466    22B2u   12.786466  
      18B2g   12.786483    18B3g   12.786483    32B1u   12.786771  
      38Ag    12.786892    33B1u   12.786894    11B1g   12.786989  
       8Au    12.786989    39Ag    12.787299    19B3g   12.841636  
      19B2g   12.841636    12B1g   12.842646    40Ag    12.843212  
      41Ag    12.844506    20B2g   12.845445    20B3g   12.845445  
      42Ag    12.848441    13B1g   12.848573     9Au    12.998801  
      34B1u   12.998889    23B2u   12.999028    23B3u   12.999028  
      21B3g   12.999028    21B2g   12.999028    14B1g   12.999575  
      43Ag    12.999662    24B3u   13.000511    24B2u   13.000511  
      22B2g   13.010803    22B3g   13.010803    35B1u   13.016757  
      10Au    13.050229    36B1u   13.050351    25B2u   13.051736  
      25B3u   13.051736    26B2u   13.060149    26B3u   13.060149  
      44Ag    13.071579    37B1u   13.130863  

    Final Occupation by Irrep:
             Ag   B1g   B2g   B3g    Au   B1u   B2u   B3u 
    DOCC [    13,    2,    4,    4,    1,    9,    5,    5 ]

  @DF-RKS Final Energy: -4920.74377709548844

   => Energetics <=

    Nuclear Repulsion Energy =            472.4850246270823391
    One-Electron Energy =               -7789.7987527473887894
    Two-Electron Energy =                2506.4774222366427239
    DFT Exchange-Correlation Energy =    -109.9060299018249083
    Empirical Dispersion Energy =          -0.0014413100000000
    VV10 Nonlocal Energy =                  0.0000000000000000
    Total Energy =                      -4920.7437770954884400

Computation Completed


Properties will be evaluated at   0.000000,   0.000000,   0.000000 [a0]

Properties computed using the SCF density matrix

  Nuclear Dipole Moment: [e a0]
     X:     0.0000      Y:     0.0000      Z:    -0.0000

  Electronic Dipole Moment: [e a0]
     X:     0.0000      Y:     0.0000      Z:     0.0000

  Dipole Moment: [e a0]
     X:     0.0000      Y:     0.0000      Z:    -0.0000     Total:     0.0000

  Dipole Moment: [D]
     X:     0.0000      Y:     0.0000      Z:    -0.0000     Total:     0.0000


*** tstop() called on bp1-compute00072.data.bp.acrc.priv at Fri Oct 29 08:35:54 2021
Module time:
	user time   =      83.68 seconds =       1.39 minutes
	system time =       3.64 seconds =       0.06 minutes
	total time  =          5 seconds =       0.08 minutes
Total time:
	user time   =     265.98 seconds =       4.43 minutes
	system time =      19.44 seconds =       0.32 minutes
	total time  =         18 seconds =       0.30 minutes

*** tstart() called on bp1-compute00072.data.bp.acrc.priv
*** at Fri Oct 29 08:35:54 2021


         ------------------------------------------------------------
                                   SCF GRAD                          
                          Rob Parrish, Justin Turney,                
                       Andy Simmonett, and Alex Sokolov              
         ------------------------------------------------------------

  ==> Geometry <==

    Molecular point group: d2h
    Full point group: D_inf_h

    Geometry (in Angstrom), charge = 1, multiplicity = 1:

       Center              X                  Y                   Z               Mass       
    ------------   -----------------  -----------------  -----------------  -----------------
         CU           0.000000000000    -0.000000000000     0.000000000000    62.929597720000
         CU           0.000000000000     0.000000000000     2.354773225483    62.929597720000
         CU           0.000000000000     0.000000000000    -2.354773225483    62.929597720000

  Nuclear repulsion =  472.485024627082339

  ==> Basis Set <==

  Basis Set: DEF2-TZVPPD
    Blend: DEF2-TZVPPD
    Number of shells: 57
    Number of basis function: 201
    Number of Cartesian functions: 249
    Spherical Harmonics?: true
    Max angular momentum: 4

  ==> DFJKGrad: Density-Fitted SCF Gradients <==

    Gradient:                    1
    J tasked:                  Yes
    K tasked:                  Yes
    wK tasked:                 Yes
    Omega:               2.500E-01
    OpenMP threads:             24
    Integrals threads:          24
    Memory [MiB]:           102996
    Schwarz Cutoff:          0E+00
    Fitting Condition:       1E-10

   => Auxiliary Basis Set <=

  Basis Set: (DEF2-TZVPPD AUX)
    Blend: DEF2-TZVPP-JKFIT
    Number of shells: 174
    Number of basis function: 792
    Number of Cartesian functions: 1131
    Spherical Harmonics?: true
    Max angular momentum: 6

  ==> DFT Potential <==

   => Composite Functional: M11-D3BJ <= 

    M11 Meta-GGA XC Functional

    R. Peverati and D. G. Truhlar, J. Phys. Chem. Lett., 2, 2810, 2011


    Deriv               =              1
    GGA                 =           TRUE
    Meta                =           TRUE

    Exchange Hybrid     =           TRUE
    MP2 Hybrid          =          FALSE

   => Exchange Functionals <=

    1.0000   XC_HYB_MGGA_X_M11 [omega = 0.2500]

   => Exact (HF) Exchange <=

    0.5720            HF,LR [omega = 0.2500]
    0.4280               HF 

   => Correlation Functionals <=

    1.0000    XC_MGGA_C_M11

   => Molecular Quadrature <=

    Radial Scheme          =       TREUTLER
    Pruning Scheme         =           FLAT
    Nuclear Scheme         =       TREUTLER

    BS radius alpha        =              1
    Pruning alpha          =              1
    Radial Points          =             75
    Spherical Points       =            302
    Total Points           =          67950
    Total Blocks           =            620
    Max Points             =            256
    Max Functions          =            170


  -Total Gradient:
     Atom            X                  Y                   Z
    ------   -----------------  -----------------  -----------------
       1        0.000000000000     0.000000000000     0.000000000000
       2       -0.000000000000     0.000000000000    -0.002770240855
       3        0.000000000000    -0.000000000000     0.002770240855


*** tstop() called on bp1-compute00072.data.bp.acrc.priv at Fri Oct 29 08:36:00 2021
Module time:
	user time   =      66.82 seconds =       1.11 minutes
	system time =       2.87 seconds =       0.05 minutes
	total time  =          6 seconds =       0.10 minutes
Total time:
	user time   =     334.10 seconds =       5.57 minutes
	system time =      22.40 seconds =       0.37 minutes
	total time  =         24 seconds =       0.40 minutes

			-----------------------------------------
			 OPTKING 2.0: for geometry optimizations 
			  - R.A. King,  Bethel University        
			-----------------------------------------
	At level 1: Red. Int., RFO, no backsteps, dynamic trust

	Previous internal coordinate definitions found.
	---Fragment 1 Geometry and Gradient---
	 CU          0.0000000000       -0.0000000000        0.0000000000
	 CU          0.0000000000        0.0000000000        4.4498764837
	 CU          0.0000000000        0.0000000000       -4.4498764837
	             0.0000000000        0.0000000000        0.0000000000
	            -0.0000000000        0.0000000000       -0.0027702409
	             0.0000000000       -0.0000000000        0.0027702409

	---Fragment 1 Intrafragment Coordinates---
	 - Coordinate -           - BOHR/RAD -       - ANG/DEG -
	 R(1,2)           =         4.449876	       2.354773
	 R(1,3)           =         4.449876	       2.354773
	 L(2,1,3)         =         3.141593	     180.000000
	 l(2,1,3)         =         3.141593	     180.000000

	Current energy   :     -4920.7437770955

	Energy change for the previous step:
		Projected    :         0.0008083583
		Actual       :        -0.0002443505

	Performing BFGS update.
	Previous computed or guess Hessian on step 1.
	Steps to be used in Hessian update: 1
	Taking RFO optimization step.
	Going to follow RFO solution 1.
	Using RFO vector 1.
	Norm of target step-size    0.07653
	Projected energy change by RFO approximation:         0.0017604086

	Back-transformation to cartesian coordinates...
	Successfully converged to displaced geometry.

	--- Internal Coordinate Step in ANG or DEG, aJ/ANG or AJ/DEG ---
	 ---------------------------------------------------------------------------
	   Coordinate                Previous        Force       Change         New 
	   ----------                --------       ------       ------       ------
	    1 R(1,2)          =      2.354773     0.022823     0.028635     2.383408
	    2 R(1,3)          =      2.354773     0.022823     0.028635     2.383408
	    3 L(2,1,3)        =    180.000000     0.000000     0.000000   180.000000
	    4 l(2,1,3)        =    180.000000    -0.000000     0.000000   180.000000
	 ---------------------------------------------------------------------------
	Successfully symmetrized geometry.

  ==> Convergence Check <==

  Measures of convergence in internal coordinates in au.
  Criteria marked as inactive (o), active & met (*), and active & unmet ( ).
  ---------------------------------------------------------------------------------------------
   Step     Total Energy     Delta E     MAX Force     RMS Force      MAX Disp      RMS Disp   
  ---------------------------------------------------------------------------------------------
    Convergence Criteria    1.00e-06 *    3.00e-04 *             o    1.20e-03 *             o
  ---------------------------------------------------------------------------------------------
      2   -4920.74377710   -2.44e-04      2.77e-03      1.96e-03 o    5.41e-02      3.83e-02 o  ~
  ---------------------------------------------------------------------------------------------

	Writing optimization data to binary file.
	Structure for next step:
	Cartesian Geometry (in Angstrom)
	   CU     0.0000000000  -0.0000000000   0.0000000000
	   CU     0.0000000000   0.0000000000   2.3834083462
	   CU     0.0000000000   0.0000000000  -2.3834083462
			--------------------------
			 OPTKING Finished Execution 
			--------------------------

    Structure for next step:
    Molecular point group: d2h
    Full point group: D_inf_h

    Geometry (in Angstrom), charge = 1, multiplicity = 1:

    CU          -0.000000000000     0.000000000000     0.000000000000
    CU           0.000000000000     0.000000000000     2.383408355579
    CU           0.000000000000     0.000000000000    -2.383408355579

gradient() will perform analytic gradient computation.

*** tstart() called on bp1-compute00072.data.bp.acrc.priv
*** at Fri Oct 29 08:36:00 2021

   => Loading Basis Set <=

    Name: DEF2-TZVPPD
    Role: ORBITAL
    Keyword: BASIS
    atoms 1-3 entry CU         line  1290 file /work/zw18965/.conda/envs/p4env/share/psi4/basis/def2-tzvppd.gbs 


         ---------------------------------------------------------
                                   SCF
               by Justin Turney, Rob Parrish, Andy Simmonett
                          and Daniel G. A. Smith
                              RKS Reference
                       24 Threads, 137329 MiB Core
         ---------------------------------------------------------

  ==> Geometry <==

    Molecular point group: d2h
    Full point group: D_inf_h

    Geometry (in Angstrom), charge = 1, multiplicity = 1:

       Center              X                  Y                   Z               Mass       
    ------------   -----------------  -----------------  -----------------  -----------------
         CU           0.000000000000     0.000000000000     0.000000000000    62.929597720000
         CU           0.000000000000    -0.000000000000     2.383408355579    62.929597720000
         CU           0.000000000000    -0.000000000000    -2.383408355579    62.929597720000

  Running in d2h symmetry.

  Rotational constants: A = ************  B =      0.02358  C =      0.02358 [cm^-1]
  Rotational constants: A = ************  B =    706.86314  C =    706.86314 [MHz]
  Nuclear repulsion =  466.808418636837132

  Charge       = 1
  Multiplicity = 1
  Electrons    = 86
  Nalpha       = 43
  Nbeta        = 43

  ==> Algorithm <==

  SCF Algorithm Type is DF.
  DIIS enabled.
  MOM disabled.
  Fractional occupation disabled.
  Guess Type is READ.
  Energy threshold   = 1.00e-08
  Density threshold  = 1.00e-08
  Integral threshold = 0.00e+00

  ==> Primary Basis <==

  Basis Set: DEF2-TZVPPD
    Blend: DEF2-TZVPPD
    Number of shells: 57
    Number of basis function: 201
    Number of Cartesian functions: 249
    Spherical Harmonics?: true
    Max angular momentum: 4

  ==> DFT Potential <==

   => Composite Functional: M11-D3BJ <= 

    M11 Meta-GGA XC Functional

    R. Peverati and D. G. Truhlar, J. Phys. Chem. Lett., 2, 2810, 2011


    Deriv               =              1
    GGA                 =           TRUE
    Meta                =           TRUE

    Exchange Hybrid     =           TRUE
    MP2 Hybrid          =          FALSE

   => Exchange Functionals <=

    1.0000   XC_HYB_MGGA_X_M11 [omega = 0.2500]

   => Exact (HF) Exchange <=

    0.5720            HF,LR [omega = 0.2500]
    0.4280               HF 

   => Correlation Functionals <=

    1.0000    XC_MGGA_C_M11

   => Molecular Quadrature <=

    Radial Scheme          =       TREUTLER
    Pruning Scheme         =           FLAT
    Nuclear Scheme         =       TREUTLER

    BS radius alpha        =              1
    Pruning alpha          =              1
    Radial Points          =             75
    Spherical Points       =            302
    Total Points           =          67950
    Total Blocks           =            620
    Max Points             =            255
    Max Functions          =            170

   => M11-D3(BJ): Empirical Dispersion <=

    Grimme's -D3 (BJ-damping) Dispersion Correction
    Grimme S.; Ehrlich S.; Goerigk L. (2011), J. Comput. Chem., 32: 1456
    Parametrisation from:    L. Goerigk, J. Phys. Chem. Lett. 6, 3891-3896, 2015

        s6 =       1.000000
        s8 =       2.811200
        a1 =       0.000000
        a2 =      10.138900

   => Loading Basis Set <=

    Name: (DEF2-TZVPPD AUX)
    Role: JKFIT
    Keyword: DF_BASIS_SCF
    atoms 1-3 entry CU         line  2361 file /work/zw18965/.conda/envs/p4env/share/psi4/basis/def2-tzvpp-jkfit.gbs 

   => Loading Basis Set <=

    Name: DEF2-TZVPPD
    Role: ORBITAL
    Keyword: BASIS
    atoms 1-3 entry CU         line  1290 file /work/zw18965/.conda/envs/p4env/share/psi4/basis/def2-tzvppd.gbs 

  Reading orbitals from file 180, no projection.

  ==> Pre-Iterations <==

   -------------------------------------------------------
    Irrep   Nso     Nmo     Nalpha   Nbeta   Ndocc  Nsocc
   -------------------------------------------------------
     Ag        44      44       0       0       0       0
     B1g       14      14       0       0       0       0
     B2g       22      22       0       0       0       0
     B3g       22      22       0       0       0       0
     Au        10      10       0       0       0       0
     B1u       37      37       0       0       0       0
     B2u       26      26       0       0       0       0
     B3u       26      26       0       0       0       0
   -------------------------------------------------------
    Total     201     201      43      43      43       0
   -------------------------------------------------------

  ==> Integral Setup <==

  ==> DiskDFJK: Density-Fitted J/K Matrices <==

    J tasked:                  Yes
    K tasked:                  Yes
    wK tasked:                 Yes
    Omega:               2.500E-01
    OpenMP threads:             24
    Integrals threads:          24
    Memory [MiB]:           102379
    Algorithm:                Core
    Integral Cache:           NONE
    Schwarz Cutoff:          1E-12
    Fitting Condition:       1E-10

   => Auxiliary Basis Set <=

  Basis Set: (DEF2-TZVPPD AUX)
    Blend: DEF2-TZVPP-JKFIT
    Number of shells: 174
    Number of basis function: 792
    Number of Cartesian functions: 1131
    Spherical Harmonics?: true
    Max angular momentum: 6

  Cached 100.0% of DFT collocation blocks in 0.603 [GiB].

  Minimum eigenvalue in the overlap matrix is 3.8097596407E-04.
  Using Symmetric Orthogonalization.

  SCF Guess: Orbitals guess was supplied from a previous computation.

  ==> Iterations <==

                           Total Energy        Delta E     RMS |[F,P]|

   @DF-RKS iter   0: -4920.76312579019213   -4.92076e+03   1.21659e-03 
   @DF-RKS iter   1: -4920.74394084056712    1.91849e-02   7.47457e-05 DIIS
   @DF-RKS iter   2: -4920.74392973335398    1.11072e-05   1.45170e-04 DIIS
   @DF-RKS iter   3: -4920.74394649593978   -1.67626e-05   5.72911e-06 DIIS
   @DF-RKS iter   4: -4920.74394655740161   -6.14618e-08   6.81602e-06 DIIS
   @DF-RKS iter   5: -4920.74394661265706   -5.52554e-08   1.63773e-06 DIIS
   @DF-RKS iter   6: -4920.74394662783743   -1.51804e-08   4.28661e-07 DIIS
   @DF-RKS iter   7: -4920.74394663163275   -3.79532e-09   1.87587e-07 DIIS
   @DF-RKS iter   8: -4920.74394663243402   -8.01265e-10   6.57691e-08 DIIS
   @DF-RKS iter   9: -4920.74394663253861   -1.04592e-10   1.83267e-08 DIIS
   @DF-RKS iter  10: -4920.74394663254952   -1.09139e-11   5.27190e-09 DIIS
  Energy and wave function converged.


  ==> Post-Iterations <==

    Orbital Energies [Eh]
    ---------------------

    Doubly Occupied:                                                      

       1B1u -324.132309     1Ag  -324.132307     2Ag  -324.079539  
       2B1u  -39.253142     3Ag   -39.253114     4Ag   -39.208967  
       5Ag   -34.518993     3B1u  -34.518990     1B2g  -34.518641  
       1B3g  -34.518641     1B3u  -34.518638     1B2u  -34.518638  
       4B1u  -34.474105     2B3u  -34.472536     2B2u  -34.472536  
       5B1u   -4.611774     6Ag    -4.611722     7Ag    -4.562885  
       6B1u   -3.134965     8Ag    -3.134876     3B3u   -3.133361  
       3B2u   -3.133361     2B2g   -3.133347     2B3g   -3.133347  
       7B1u   -3.086385     4B3u   -3.080128     4B2u   -3.080128  
       9Ag    -0.629575     3B2g   -0.616783     3B3g   -0.616783  
       8B1u   -0.612661     5B3u   -0.611601     5B2u   -0.611601  
      10Ag    -0.609980     1B1g   -0.609970     9B1u   -0.609742  
       1Au    -0.609732    11Ag    -0.553808     2B1g   -0.553794  
       4B3g   -0.552614     4B2g   -0.552614    12Ag    -0.550898  
      13Ag    -0.441615  

    Virtual:                                                              

      10B1u   -0.237040    14Ag    -0.158494     6B3u   -0.130389  
       6B2u   -0.130389    11B1u   -0.116812     5B3g   -0.102292  
       5B2g   -0.102292     7B2u   -0.051694     7B3u   -0.051694  
      15Ag    -0.049089    12B1u   -0.035992    16Ag    -0.023794  
       8B3u    0.000122     8B2u    0.000122    13B1u    0.010175  
       6B3g    0.030860     6B2g    0.030860    17Ag     0.052885  
       3B1g    0.054421    18Ag     0.054424    14B1u    0.076915  
       2Au     0.076915     9B3u    0.094292     9B2u    0.094292  
       7B3g    0.100134     7B2g    0.100134    19Ag     0.101339  
      15B1u    0.128475    16B1u    0.154533     4B1g    0.159169  
      20Ag     0.159170    10B2u    0.203647    10B3u    0.203647  
      21Ag     0.249988     8B2g    0.315444     8B3g    0.315444  
      22Ag     0.369971    17B1u    0.424661    18B1u    0.508859  
      11B3u    0.557904    11B2u    0.557904     9B2g    0.577469  
       9B3g    0.577469    12B3u    0.638786    12B2u    0.638786  
      23Ag     0.641189    24Ag     0.767577     5B1g    0.767594  
      10B2g    0.774428    10B3g    0.774428    19B1u    0.779101  
      20B1u    0.794061     3Au     0.794061    25Ag     0.846128  
      13B3u    0.851054    13B2u    0.851054    26Ag     0.873782  
       6B1g    0.873854    11B2g    1.052431    11B3g    1.052431  
      21B1u    1.071236    27Ag     1.352131    14B3u    2.858811  
      14B2u    2.858811    28Ag     2.861127    12B2g    2.931056  
      12B3g    2.931056    22B1u    2.974252    15B3u    2.992785  
      15B2u    2.992785    23B1u    3.011430    29Ag     3.079968  
      24B1u    3.229289    30Ag     3.296814    13B3g    3.341882  
      13B2g    3.341882    25B1u    3.345136     4Au     3.345250  
      31Ag     3.346056     7B1g    3.346168    16B2u    3.346438  
      16B3u    3.346438    14B3g    3.346438    14B2g    3.346438  
      17B2u    3.349957    17B3u    3.349957    18B3u    3.394901  
      18B2u    3.394901    26B1u    3.413747     5Au     3.413901  
      27B1u    3.417190    19B3u    3.420894    19B2u    3.420894  
      32Ag     3.473191     8B1g    3.573509    33Ag     3.573518  
       6Au     3.584098    28B1u    3.584106    15B2g    3.614592  
      15B3g    3.614592    29B1u    3.615182    34Ag     3.665241  
       9B1g    3.665246    20B3u    3.679557    20B2u    3.679557  
      16B3g    3.799554    16B2g    3.799554    35Ag     3.876705  
      30B1u    3.956932    36Ag     4.292851    21B3u   12.786409  
      21B2u   12.786409     7Au    12.786634    10B1g   12.786664  
      17B2g   12.786904    17B3g   12.786904    31B1u   12.786983  
      37Ag    12.787013    22B2u   12.787269    22B3u   12.787269  
      18B3g   12.787287    18B2g   12.787287    32B1u   12.787609  
      38Ag    12.787623    33B1u   12.787630    11B1g   12.787707  
       8Au    12.787707    39Ag    12.788091    19B2g   12.843790  
      19B3g   12.843790    12B1g   12.844752    40Ag    12.845328  
      41Ag    12.846453    20B3g   12.847414    20B2g   12.847414  
      42Ag    12.850237    13B1g   12.850351     9Au    12.999686  
      34B1u   12.999764    23B2u   12.999823    23B3u   12.999823  
      21B3g   12.999823    21B2g   12.999823    14B1g   13.000387  
      43Ag    13.000465    24B3u   13.001403    24B2u   13.001403  
      22B2g   13.010366    22B3g   13.010366    35B1u   13.018135  
      10Au    13.052284    36B1u   13.052391    25B3u   13.053669  
      25B2u   13.053669    26B2u   13.060732    26B3u   13.060732  
      44Ag    13.064642    37B1u   13.123172  

    Final Occupation by Irrep:
             Ag   B1g   B2g   B3g    Au   B1u   B2u   B3u 
    DOCC [    13,    2,    4,    4,    1,    9,    5,    5 ]

  @DF-RKS Final Energy: -4920.74394663254952

   => Energetics <=

    Nuclear Repulsion Energy =            466.8084186368371320
    One-Electron Energy =               -7778.5650458528125455
    Two-Electron Energy =                2500.9176785242234473
    DFT Exchange-Correlation Energy =    -109.9035629307970936
    Empirical Dispersion Energy =          -0.0014350100000000
    VV10 Nonlocal Energy =                  0.0000000000000000
    Total Energy =                      -4920.7439466325495232

Computation Completed


Properties will be evaluated at   0.000000,   0.000000,   0.000000 [a0]

Properties computed using the SCF density matrix

  Nuclear Dipole Moment: [e a0]
     X:    -0.0000      Y:     0.0000      Z:     0.0000

  Electronic Dipole Moment: [e a0]
     X:     0.0000      Y:     0.0000      Z:     0.0000

  Dipole Moment: [e a0]
     X:    -0.0000      Y:     0.0000      Z:     0.0000     Total:     0.0000

  Dipole Moment: [D]
     X:    -0.0000      Y:     0.0000      Z:     0.0000     Total:     0.0000


*** tstop() called on bp1-compute00072.data.bp.acrc.priv at Fri Oct 29 08:36:05 2021
Module time:
	user time   =      85.39 seconds =       1.42 minutes
	system time =       3.82 seconds =       0.06 minutes
	total time  =          5 seconds =       0.08 minutes
Total time:
	user time   =     420.92 seconds =       7.02 minutes
	system time =      26.29 seconds =       0.44 minutes
	total time  =         29 seconds =       0.48 minutes

*** tstart() called on bp1-compute00072.data.bp.acrc.priv
*** at Fri Oct 29 08:36:05 2021


         ------------------------------------------------------------
                                   SCF GRAD                          
                          Rob Parrish, Justin Turney,                
                       Andy Simmonett, and Alex Sokolov              
         ------------------------------------------------------------

  ==> Geometry <==

    Molecular point group: d2h
    Full point group: D_inf_h

    Geometry (in Angstrom), charge = 1, multiplicity = 1:

       Center              X                  Y                   Z               Mass       
    ------------   -----------------  -----------------  -----------------  -----------------
         CU           0.000000000000     0.000000000000     0.000000000000    62.929597720000
         CU          -0.000000000000     0.000000000000     2.383408355579    62.929597720000
         CU          -0.000000000000     0.000000000000    -2.383408355579    62.929597720000

  Nuclear repulsion =  466.808418636837132

  ==> Basis Set <==

  Basis Set: DEF2-TZVPPD
    Blend: DEF2-TZVPPD
    Number of shells: 57
    Number of basis function: 201
    Number of Cartesian functions: 249
    Spherical Harmonics?: true
    Max angular momentum: 4

  ==> DFJKGrad: Density-Fitted SCF Gradients <==

    Gradient:                    1
    J tasked:                  Yes
    K tasked:                  Yes
    wK tasked:                 Yes
    Omega:               2.500E-01
    OpenMP threads:             24
    Integrals threads:          24
    Memory [MiB]:           102996
    Schwarz Cutoff:          0E+00
    Fitting Condition:       1E-10

   => Auxiliary Basis Set <=

  Basis Set: (DEF2-TZVPPD AUX)
    Blend: DEF2-TZVPP-JKFIT
    Number of shells: 174
    Number of basis function: 792
    Number of Cartesian functions: 1131
    Spherical Harmonics?: true
    Max angular momentum: 6

  ==> DFT Potential <==

   => Composite Functional: M11-D3BJ <= 

    M11 Meta-GGA XC Functional

    R. Peverati and D. G. Truhlar, J. Phys. Chem. Lett., 2, 2810, 2011


    Deriv               =              1
    GGA                 =           TRUE
    Meta                =           TRUE

    Exchange Hybrid     =           TRUE
    MP2 Hybrid          =          FALSE

   => Exchange Functionals <=

    1.0000   XC_HYB_MGGA_X_M11 [omega = 0.2500]

   => Exact (HF) Exchange <=

    0.5720            HF,LR [omega = 0.2500]
    0.4280               HF 

   => Correlation Functionals <=

    1.0000    XC_MGGA_C_M11

   => Molecular Quadrature <=

    Radial Scheme          =       TREUTLER
    Pruning Scheme         =           FLAT
    Nuclear Scheme         =       TREUTLER

    BS radius alpha        =              1
    Pruning alpha          =              1
    Radial Points          =             75
    Spherical Points       =            302
    Total Points           =          67950
    Total Blocks           =            620
    Max Points             =            255
    Max Functions          =            170


  -Total Gradient:
     Atom            X                  Y                   Z
    ------   -----------------  -----------------  -----------------
       1        0.000000000000     0.000000000000     0.000000000000
       2        0.000000000000    -0.000000000000    -0.000288463078
       3        0.000000000000     0.000000000000     0.000288463078


*** tstop() called on bp1-compute00072.data.bp.acrc.priv at Fri Oct 29 08:36:11 2021
Module time:
	user time   =      68.64 seconds =       1.14 minutes
	system time =       3.03 seconds =       0.05 minutes
	total time  =          6 seconds =       0.10 minutes
Total time:
	user time   =     490.66 seconds =       8.18 minutes
	system time =      29.41 seconds =       0.49 minutes
	total time  =         35 seconds =       0.58 minutes

			-----------------------------------------
			 OPTKING 2.0: for geometry optimizations 
			  - R.A. King,  Bethel University        
			-----------------------------------------
	At level 1: Red. Int., RFO, no backsteps, dynamic trust

	Previous internal coordinate definitions found.
	---Fragment 1 Geometry and Gradient---
	 CU          0.0000000000        0.0000000000        0.0000000000
	 CU         -0.0000000000        0.0000000000        4.5039890372
	 CU         -0.0000000000        0.0000000000       -4.5039890372
	             0.0000000000        0.0000000000        0.0000000000
	             0.0000000000       -0.0000000000       -0.0002884631
	             0.0000000000        0.0000000000        0.0002884631

	---Fragment 1 Intrafragment Coordinates---
	 - Coordinate -           - BOHR/RAD -       - ANG/DEG -
	 R(1,2)           =         4.503989	       2.383408
	 R(1,3)           =         4.503989	       2.383408
	 L(2,1,3)         =         3.141593	     180.000000
	 l(2,1,3)         =         3.141593	     180.000000

	Current energy   :     -4920.7439466325

	Energy change for the previous step:
		Projected    :         0.0017604086
		Actual       :        -0.0001695371

	Performing BFGS update.
	Previous computed or guess Hessian on step 1.
	Steps to be used in Hessian update: 2 1
	Taking RFO optimization step.
	Going to follow RFO solution 1.
	Using RFO vector 1.
	Norm of target step-size    0.00854
	Projected energy change by RFO approximation:         0.0000222864

	Back-transformation to cartesian coordinates...
	Successfully converged to displaced geometry.

	--- Internal Coordinate Step in ANG or DEG, aJ/ANG or AJ/DEG ---
	 ---------------------------------------------------------------------------
	   Coordinate                Previous        Force       Change         New 
	   ----------                --------       ------       ------       ------
	    1 R(1,2)          =      2.383408     0.002377     0.003195     2.386603
	    2 R(1,3)          =      2.383408     0.002377     0.003195     2.386603
	    3 L(2,1,3)        =    180.000000    -0.000000     0.000000   180.000000
	    4 l(2,1,3)        =    180.000000     0.000000     0.000000   180.000000
	 ---------------------------------------------------------------------------
	Successfully symmetrized geometry.

  ==> Convergence Check <==

  Measures of convergence in internal coordinates in au.
  Criteria marked as inactive (o), active & met (*), and active & unmet ( ).
  ---------------------------------------------------------------------------------------------
   Step     Total Energy     Delta E     MAX Force     RMS Force      MAX Disp      RMS Disp   
  ---------------------------------------------------------------------------------------------
    Convergence Criteria    1.00e-06 *    3.00e-04 *             o    1.20e-03 *             o
  ---------------------------------------------------------------------------------------------
      3   -4920.74394663   -1.70e-04      2.88e-04 *    2.04e-04 o    6.04e-03      4.27e-03 o  ~
  ---------------------------------------------------------------------------------------------

	Writing optimization data to binary file.
	Structure for next step:
	Cartesian Geometry (in Angstrom)
	   CU     0.0000000000  -0.0000000000   0.0000000000
	   CU     0.0000000000   0.0000000000   2.3866029970
	   CU     0.0000000000   0.0000000000  -2.3866029970
			--------------------------
			 OPTKING Finished Execution 
			--------------------------

    Structure for next step:
    Molecular point group: d2h
    Full point group: D_inf_h

    Geometry (in Angstrom), charge = 1, multiplicity = 1:

    CU          -0.000000000000     0.000000000000     0.000000000000
    CU           0.000000000000     0.000000000000     2.386603006360
    CU           0.000000000000     0.000000000000    -2.386603006360

gradient() will perform analytic gradient computation.

*** tstart() called on bp1-compute00072.data.bp.acrc.priv
*** at Fri Oct 29 08:36:11 2021

   => Loading Basis Set <=

    Name: DEF2-TZVPPD
    Role: ORBITAL
    Keyword: BASIS
    atoms 1-3 entry CU         line  1290 file /work/zw18965/.conda/envs/p4env/share/psi4/basis/def2-tzvppd.gbs 


         ---------------------------------------------------------
                                   SCF
               by Justin Turney, Rob Parrish, Andy Simmonett
                          and Daniel G. A. Smith
                              RKS Reference
                       24 Threads, 137329 MiB Core
         ---------------------------------------------------------

  ==> Geometry <==

    Molecular point group: d2h
    Full point group: D_inf_h

    Geometry (in Angstrom), charge = 1, multiplicity = 1:

       Center              X                  Y                   Z               Mass       
    ------------   -----------------  -----------------  -----------------  -----------------
         CU           0.000000000000     0.000000000000     0.000000000000    62.929597720000
         CU           0.000000000000    -0.000000000000     2.386603006360    62.929597720000
         CU           0.000000000000    -0.000000000000    -2.386603006360    62.929597720000

  Running in d2h symmetry.

  Rotational constants: A = ************  B =      0.02352  C =      0.02352 [cm^-1]
  Rotational constants: A = ************  B =    704.97202  C =    704.97202 [MHz]
  Nuclear repulsion =  466.183559841583644

  Charge       = 1
  Multiplicity = 1
  Electrons    = 86
  Nalpha       = 43
  Nbeta        = 43

  ==> Algorithm <==

  SCF Algorithm Type is DF.
  DIIS enabled.
  MOM disabled.
  Fractional occupation disabled.
  Guess Type is READ.
  Energy threshold   = 1.00e-08
  Density threshold  = 1.00e-08
  Integral threshold = 0.00e+00

  ==> Primary Basis <==

  Basis Set: DEF2-TZVPPD
    Blend: DEF2-TZVPPD
    Number of shells: 57
    Number of basis function: 201
    Number of Cartesian functions: 249
    Spherical Harmonics?: true
    Max angular momentum: 4

  ==> DFT Potential <==

   => Composite Functional: M11-D3BJ <= 

    M11 Meta-GGA XC Functional

    R. Peverati and D. G. Truhlar, J. Phys. Chem. Lett., 2, 2810, 2011


    Deriv               =              1
    GGA                 =           TRUE
    Meta                =           TRUE

    Exchange Hybrid     =           TRUE
    MP2 Hybrid          =          FALSE

   => Exchange Functionals <=

    1.0000   XC_HYB_MGGA_X_M11 [omega = 0.2500]

   => Exact (HF) Exchange <=

    0.5720            HF,LR [omega = 0.2500]
    0.4280               HF 

   => Correlation Functionals <=

    1.0000    XC_MGGA_C_M11

   => Molecular Quadrature <=

    Radial Scheme          =       TREUTLER
    Pruning Scheme         =           FLAT
    Nuclear Scheme         =       TREUTLER

    BS radius alpha        =              1
    Pruning alpha          =              1
    Radial Points          =             75
    Spherical Points       =            302
    Total Points           =          67950
    Total Blocks           =            620
    Max Points             =            255
    Max Functions          =            170

   => M11-D3(BJ): Empirical Dispersion <=

    Grimme's -D3 (BJ-damping) Dispersion Correction
    Grimme S.; Ehrlich S.; Goerigk L. (2011), J. Comput. Chem., 32: 1456
    Parametrisation from:    L. Goerigk, J. Phys. Chem. Lett. 6, 3891-3896, 2015

        s6 =       1.000000
        s8 =       2.811200
        a1 =       0.000000
        a2 =      10.138900

   => Loading Basis Set <=

    Name: (DEF2-TZVPPD AUX)
    Role: JKFIT
    Keyword: DF_BASIS_SCF
    atoms 1-3 entry CU         line  2361 file /work/zw18965/.conda/envs/p4env/share/psi4/basis/def2-tzvpp-jkfit.gbs 

   => Loading Basis Set <=

    Name: DEF2-TZVPPD
    Role: ORBITAL
    Keyword: BASIS
    atoms 1-3 entry CU         line  1290 file /work/zw18965/.conda/envs/p4env/share/psi4/basis/def2-tzvppd.gbs 

  Reading orbitals from file 180, no projection.

  ==> Pre-Iterations <==

   -------------------------------------------------------
    Irrep   Nso     Nmo     Nalpha   Nbeta   Ndocc  Nsocc
   -------------------------------------------------------
     Ag        44      44       0       0       0       0
     B1g       14      14       0       0       0       0
     B2g       22      22       0       0       0       0
     B3g       22      22       0       0       0       0
     Au        10      10       0       0       0       0
     B1u       37      37       0       0       0       0
     B2u       26      26       0       0       0       0
     B3u       26      26       0       0       0       0
   -------------------------------------------------------
    Total     201     201      43      43      43       0
   -------------------------------------------------------

  ==> Integral Setup <==

  ==> DiskDFJK: Density-Fitted J/K Matrices <==

    J tasked:                  Yes
    K tasked:                  Yes
    wK tasked:                 Yes
    Omega:               2.500E-01
    OpenMP threads:             24
    Integrals threads:          24
    Memory [MiB]:           102379
    Algorithm:                Core
    Integral Cache:           NONE
    Schwarz Cutoff:          1E-12
    Fitting Condition:       1E-10

   => Auxiliary Basis Set <=

  Basis Set: (DEF2-TZVPPD AUX)
    Blend: DEF2-TZVPP-JKFIT
    Number of shells: 174
    Number of basis function: 792
    Number of Cartesian functions: 1131
    Spherical Harmonics?: true
    Max angular momentum: 6

  Cached 100.0% of DFT collocation blocks in 0.602 [GiB].

  Minimum eigenvalue in the overlap matrix is 3.8287047122E-04.
  Using Symmetric Orthogonalization.

  SCF Guess: Orbitals guess was supplied from a previous computation.

  ==> Iterations <==

                           Total Energy        Delta E     RMS |[F,P]|

   @DF-RKS iter   0: -4920.74588958981712   -4.92075e+03   1.31666e-04 
   @DF-RKS iter   1: -4920.74394938743171    1.94020e-03   7.38777e-06 DIIS
   @DF-RKS iter   2: -4920.74394928906167    9.83700e-08   1.40636e-05 DIIS
   @DF-RKS iter   3: -4920.74394944559572   -1.56534e-07   6.45225e-07 DIIS
   @DF-RKS iter   4: -4920.74394944646338   -8.67658e-10   7.03488e-07 DIIS
   @DF-RKS iter   5: -4920.74394944704545   -5.82077e-10   2.02510e-07 DIIS
   @DF-RKS iter   6: -4920.74394944724190   -1.96451e-10   4.66961e-08 DIIS
   @DF-RKS iter   7: -4920.74394944728374   -4.18368e-11   2.19242e-08 DIIS
   @DF-RKS iter   8: -4920.74394944729556   -1.18234e-11   7.23562e-09 DIIS
  Energy and wave function converged.


  ==> Post-Iterations <==

    Orbital Energies [Eh]
    ---------------------

    Doubly Occupied:                                                      

       1B1u -324.132218     1Ag  -324.132216     2Ag  -324.079316  
       2B1u  -39.253041     3Ag   -39.253013     4Ag   -39.208724  
       5Ag   -34.518891     3B1u  -34.518888     1B2g  -34.518544  
       1B3g  -34.518544     1B3u  -34.518541     1B2u  -34.518541  
       4B1u  -34.473860     2B2u  -34.472299     2B3u  -34.472299  
       5B1u   -4.611673     6Ag    -4.611621     7Ag    -4.562641  
       6B1u   -3.134849     8Ag    -3.134762     3B3u   -3.133269  
       3B2u   -3.133269     2B2g   -3.133256     2B3g   -3.133256  
       7B1u   -3.086117     4B3u   -3.079903     4B2u   -3.079903  
       9Ag    -0.629274     3B3g   -0.616590     3B2g   -0.616590  
       8B1u   -0.612540     5B2u   -0.611487     5B3u   -0.611487  
      10Ag    -0.609890     1B1g   -0.609880     9B1u   -0.609656  
       1Au    -0.609646    11Ag    -0.553598     2B1g   -0.553583  
       4B3g   -0.552450     4B2g   -0.552450    12Ag    -0.550773  
      13Ag    -0.441338  

    Virtual:                                                              

      10B1u   -0.237006    14Ag    -0.158503     6B3u   -0.130281  
       6B2u   -0.130281    11B1u   -0.116824     5B2g   -0.102274  
       5B3g   -0.102274     7B2u   -0.051685     7B3u   -0.051685  
      15Ag    -0.049129    12B1u   -0.035946    16Ag    -0.023640  
       8B2u    0.000219     8B3u    0.000219    13B1u    0.010215  
       6B2g    0.030872     6B3g    0.030872    17Ag     0.052826  
       3B1g    0.054484    18Ag     0.054487    14B1u    0.076913  
       2Au     0.076914     9B2u    0.094229     9B3u    0.094229  
       7B3g    0.100076     7B2g    0.100076    19Ag     0.101149  
      15B1u    0.128515    16B1u    0.154348     4B1g    0.159113  
      20Ag     0.159115    10B2u    0.203435    10B3u    0.203435  
      21Ag     0.250003     8B3g    0.315144     8B2g    0.315144  
      22Ag     0.369670    17B1u    0.424076    18B1u    0.508938  
      11B2u    0.558199    11B3u    0.558199     9B3g    0.577618  
       9B2g    0.577618    12B2u    0.638744    12B3u    0.638744  
      23Ag     0.640889    24Ag     0.767890     5B1g    0.767907  
      10B3g    0.774103    10B2g    0.774103    19B1u    0.778919  
      20B1u    0.794110     3Au     0.794110    25Ag     0.845338  
      13B2u    0.850906    13B3u    0.850906    26Ag     0.873675  
       6B1g    0.873748    11B3g    1.051720    11B2g    1.051720  
      21B1u    1.069992    27Ag     1.350737    14B3u    2.858979  
      14B2u    2.858979    28Ag     2.860619    12B2g    2.930750  
      12B3g    2.930750    22B1u    2.972301    15B2u    2.992808  
      15B3u    2.992808    23B1u    3.013001    29Ag     3.079419  
      24B1u    3.228531    30Ag     3.296908    13B3g    3.342115  
      13B2g    3.342115    25B1u    3.345227     4Au     3.345341  
      31Ag     3.346150     7B1g    3.346262    16B2u    3.346505  
      16B3u    3.346505    14B3g    3.346505    14B2g    3.346505  
      17B2u    3.350117    17B3u    3.350117    18B2u    3.394937  
      18B3u    3.394937    26B1u    3.413990     5Au     3.414145  
      27B1u    3.417590    19B2u    3.421060    19B3u    3.421060  
      32Ag     3.472251     8B1g    3.573627    33Ag     3.573634  
       6Au     3.584102    28B1u    3.584108    29B1u    3.612874  
      15B2g    3.614001    15B3g    3.614001    34Ag     3.665279  
       9B1g    3.665287    20B2u    3.678974    20B3u    3.678974  
      16B3g    3.799218    16B2g    3.799218    35Ag     3.874914  
      30B1u    3.955114    36Ag     4.290674    21B3u   12.786508  
      21B2u   12.786508     7Au    12.786728    10B1g   12.786757  
      17B2g   12.786995    17B3g   12.786995    31B1u   12.787078  
      37Ag    12.787107    22B2u   12.787356    22B3u   12.787356  
      18B3g   12.787374    18B2g   12.787374    32B1u   12.787695  
      38Ag    12.787703    33B1u   12.787714    11B1g   12.787786  
       8Au    12.787786    39Ag    12.788176    19B2g   12.844026  
      19B3g   12.844026    12B1g   12.844982    40Ag    12.845560  
      41Ag    12.846663    20B2g   12.847629    20B3g   12.847629  
      42Ag    12.850433    13B1g   12.850546     9Au    12.999783  
      34B1u   12.999859    23B3u   12.999909    23B2u   12.999909  
      21B2g   12.999910    21B3g   12.999910    14B1g   13.000476  
      43Ag    13.000553    24B3u   13.001497    24B2u   13.001497  
      22B2g   13.010326    22B3g   13.010326    35B1u   13.018247  
      10Au    13.052510    36B1u   13.052615    25B2u   13.053881  
      25B3u   13.053881    26B2u   13.060808    26B3u   13.060808  
      44Ag    13.063908    37B1u   13.122385  

    Final Occupation by Irrep:
             Ag   B1g   B2g   B3g    Au   B1u   B2u   B3u 
    DOCC [    13,    2,    4,    4,    1,    9,    5,    5 ]

  @DF-RKS Final Energy: -4920.74394944729556

   => Energetics <=

    Nuclear Repulsion Energy =            466.1835598415836444
    One-Electron Energy =               -7777.3283718846087140
    Two-Electron Energy =                2500.3055965406420000
    DFT Exchange-Correlation Energy =    -109.9032995849128582
    Empirical Dispersion Energy =          -0.0014343600000000
    VV10 Nonlocal Energy =                  0.0000000000000000
    Total Energy =                      -4920.7439494472955630

Computation Completed


Properties will be evaluated at   0.000000,   0.000000,   0.000000 [a0]

Properties computed using the SCF density matrix

  Nuclear Dipole Moment: [e a0]
     X:     0.0000      Y:     0.0000      Z:    -0.0000

  Electronic Dipole Moment: [e a0]
     X:     0.0000      Y:     0.0000      Z:     0.0000

  Dipole Moment: [e a0]
     X:     0.0000      Y:     0.0000      Z:    -0.0000     Total:     0.0000

  Dipole Moment: [D]
     X:     0.0000      Y:     0.0000      Z:    -0.0000     Total:     0.0000


*** tstop() called on bp1-compute00072.data.bp.acrc.priv at Fri Oct 29 08:36:15 2021
Module time:
	user time   =      77.46 seconds =       1.29 minutes
	system time =       2.59 seconds =       0.04 minutes
	total time  =          4 seconds =       0.07 minutes
Total time:
	user time   =     569.11 seconds =       9.49 minutes
	system time =      32.05 seconds =       0.53 minutes
	total time  =         39 seconds =       0.65 minutes

*** tstart() called on bp1-compute00072.data.bp.acrc.priv
*** at Fri Oct 29 08:36:15 2021


         ------------------------------------------------------------
                                   SCF GRAD                          
                          Rob Parrish, Justin Turney,                
                       Andy Simmonett, and Alex Sokolov              
         ------------------------------------------------------------

  ==> Geometry <==

    Molecular point group: d2h
    Full point group: D_inf_h

    Geometry (in Angstrom), charge = 1, multiplicity = 1:

       Center              X                  Y                   Z               Mass       
    ------------   -----------------  -----------------  -----------------  -----------------
         CU           0.000000000000     0.000000000000     0.000000000000    62.929597720000
[...]
    Occupation by irrep:
             A1    A2    B1    B2 
    DOCC [    18,    5,    7,   13 ]

   @DF-RKS iter   4: -4909.95649386525565    7.82167e+00   5.72581e-02 DIIS
   @DF-RKS iter   5: -4920.18365214889945   -1.02272e+01   1.79934e-02 DIIS
   @DF-RKS iter   6: -4920.70832373338635   -5.24672e-01   4.30228e-03 DIIS
   @DF-RKS iter   7: -4920.73423376820574   -2.59100e-02   2.09464e-03 DIIS
   @DF-RKS iter   8: -4920.74254342698987   -8.30966e-03   7.80935e-04 DIIS
   @DF-RKS iter   9: -4920.74391723934787   -1.37381e-03   5.41344e-05 DIIS
   @DF-RKS iter  10: -4920.74394060815303   -2.33688e-05   1.98483e-05 DIIS
   @DF-RKS iter  11: -4920.74394791779741   -7.30964e-06   8.56235e-06 DIIS
   @DF-RKS iter  12: -4920.74394932187079   -1.40407e-06   2.62174e-06 DIIS
   @DF-RKS iter  13: -4920.74394942116669   -9.92959e-08   6.51361e-07 DIIS
   @DF-RKS iter  14: -4920.74394944185769   -2.06910e-08   1.95826e-07 DIIS
   @DF-RKS iter  15: -4920.74394944319010   -1.33241e-09   3.91674e-08 DIIS
   @DF-RKS iter  16: -4920.74394944323831   -4.82032e-11   1.13816e-08 DIIS
   @DF-RKS iter  17: -4920.74394944324195   -3.63798e-12   1.86431e-09 DIIS
  Energy and wave function converged.


  ==> Post-Iterations <==

    Orbital Energies [Eh]
    ---------------------

    Doubly Occupied:                                                      

       1B2  -324.132218     1A1  -324.132216     2A1  -324.079316  
       2B2   -39.253041     3A1   -39.253013     4A1   -39.208724  
       5A1   -34.518891     3B2   -34.518888     1A2   -34.518544  
       4B2   -34.518544     1B1   -34.518541     6A1   -34.518541  
       5B2   -34.473860     7A1   -34.472299     2B1   -34.472299  
       6B2    -4.611673     8A1    -4.611621     9A1    -4.562641  
       7B2    -3.134849    10A1    -3.134762     3B1    -3.133269  
      11A1    -3.133269     2A2    -3.133256     8B2    -3.133256  
       9B2    -3.086117    12A1    -3.079903     4B1    -3.079903  
      13A1    -0.629274    10B2    -0.616590     3A2    -0.616590  
      11B2    -0.612540    14A1    -0.611487     5B1    -0.611487  
      15A1    -0.609890     6B1    -0.609880    12B2    -0.609656  
       4A2    -0.609646    16A1    -0.553598     7B1    -0.553583  
       5A2    -0.552450    13B2    -0.552450    17A1    -0.550773  
      18A1    -0.441338  

    Virtual:                                                              

      14B2    -0.237006    19A1    -0.158503    20A1    -0.130281  
       8B1    -0.130281    15B2    -0.116824     6A2    -0.102274  
      16B2    -0.102274    21A1    -0.051685     9B1    -0.051685  
      22A1    -0.049129    17B2    -0.035946    23A1    -0.023640  
      10B1     0.000219    24A1     0.000219    18B2     0.010215  
       7A2     0.030872    19B2     0.030872    25A1     0.052826  
      11B1     0.054484    26A1     0.054487    20B2     0.076913  
       8A2     0.076914    27A1     0.094229    12B1     0.094229  
      21B2     0.100076     9A2     0.100076    28A1     0.101149  
      22B2     0.128515    23B2     0.154348    13B1     0.159113  
      29A1     0.159115    30A1     0.203435    14B1     0.203435  
      31A1     0.250003    24B2     0.315144    10A2     0.315144  
      32A1     0.369670    25B2     0.424076    26B2     0.508938  
      33A1     0.558199    15B1     0.558199    11A2     0.577618  
      27B2     0.577618    34A1     0.638743    16B1     0.638744  
      35A1     0.640890    36A1     0.767890    17B1     0.767907  
      28B2     0.774102    12A2     0.774103    29B2     0.778920  
      30B2     0.794110    13A2     0.794110    37A1     0.845338  
      18B1     0.850906    38A1     0.850906    39A1     0.873675  
      19B1     0.873748    31B2     1.051720    14A2     1.051720  
      32B2     1.069993    40A1     1.350737    20B1     2.858979  
      41A1     2.858979    42A1     2.860619    33B2     2.930750  
      15A2     2.930750    34B2     2.972301    21B1     2.992808  
      43A1     2.992808    35B2     3.013001    44A1     3.079419  
      36B2     3.228531    45A1     3.296908    37B2     3.342115  
      16A2     3.342115    38B2     3.345227    17A2     3.345341  
      46A1     3.346150    22B1     3.346262    47A1     3.346505  
      23B1     3.346505    39B2     3.346505    18A2     3.346505  
      24B1     3.350117    48A1     3.350117    49A1     3.394937  
      25B1     3.394937    40B2     3.413990    19A2     3.414145  
      41B2     3.417590    50A1     3.421060    26B1     3.421060  
      51A1     3.472250    27B1     3.573627    52A1     3.573634  
      20A2     3.584102    42B2     3.584108    43B2     3.612872  
      21A2     3.614001    44B2     3.614003    53A1     3.665279  
      28B1     3.665287    54A1     3.678974    29B1     3.678974  
      22A2     3.799218    45B2     3.799218    55A1     3.874914  
      46B2     3.955114    56A1     4.290674    30B1    12.786508  
      57A1    12.786508    23A2    12.786728    31B1    12.786757  
      47B2    12.786995    24A2    12.786995    48B2    12.787078  
      58A1    12.787107    59A1    12.787356    32B1    12.787356  
      49B2    12.787374    25A2    12.787374    50B2    12.787695  
      60A1    12.787703    51B2    12.787714    33B1    12.787786  
      26A2    12.787786    61A1    12.788176    27A2    12.844026  
      52B2    12.844026    34B1    12.844982    62A1    12.845560  
      63A1    12.846663    28A2    12.847629    53B2    12.847629  
      64A1    12.850433    35B1    12.850546    29A2    12.999783  
      54B2    12.999859    36B1    12.999909    65A1    12.999909  
      30A2    12.999910    55B2    12.999910    37B1    13.000477  
      66A1    13.000553    38B1    13.001497    67A1    13.001497  
      56B2    13.010326    31A2    13.010326    57B2    13.018247  
      32A2    13.052510    58B2    13.052615    39B1    13.053881  
      68A1    13.053881    69A1    13.060808    40B1    13.060808  
      70A1    13.063908    59B2    13.122385  

    Final Occupation by Irrep:
             A1    A2    B1    B2 
    DOCC [    18,    5,    7,   13 ]

  @DF-RKS Final Energy: -4920.74394944324195

   => Energetics <=

    Nuclear Repulsion Energy =            466.1835543785340406
    One-Electron Energy =               -7777.3283637829235886
    Two-Electron Energy =                2500.3055939581477105
    DFT Exchange-Correlation Energy =    -109.9032996369992645
    Empirical Dispersion Energy =          -0.0014343600000000
    VV10 Nonlocal Energy =                  0.0000000000000000
    Total Energy =                      -4920.7439494432410356

Computation Completed


Properties will be evaluated at   0.000000,   0.000000,   0.000000 [a0]

Properties computed using the SCF density matrix

  Nuclear Dipole Moment: [e a0]
     X:     0.0000      Y:     0.0000      Z:    -0.0000

  Electronic Dipole Moment: [e a0]
     X:     0.0001      Y:     0.0000      Z:     0.0000

  Dipole Moment: [e a0]
     X:     0.0001      Y:     0.0000      Z:    -0.0000     Total:     0.0001

  Dipole Moment: [D]
     X:     0.0002      Y:     0.0000      Z:    -0.0000     Total:     0.0002


*** tstop() called on bp1-compute00072.data.bp.acrc.priv at Fri Oct 29 08:37:44 2021
Module time:
	user time   =     111.81 seconds =       1.86 minutes
	system time =       3.31 seconds =       0.06 minutes
	total time  =          6 seconds =       0.10 minutes
Total time:
	user time   =    1956.35 seconds =      32.61 minutes
	system time =      84.33 seconds =       1.41 minutes
	total time  =        128 seconds =       2.13 minutes

*** tstart() called on bp1-compute00072.data.bp.acrc.priv
*** at Fri Oct 29 08:37:44 2021


         ------------------------------------------------------------
                                   SCF GRAD                          
                          Rob Parrish, Justin Turney,                
                       Andy Simmonett, and Alex Sokolov              
         ------------------------------------------------------------

  ==> Geometry <==

    Molecular point group: c2v
    Full point group: C2v

    Geometry (in Angstrom), charge = 1, multiplicity = 1:

       Center              X                  Y                   Z               Mass       
    ------------   -----------------  -----------------  -----------------  -----------------
         CU          -0.000272331595     0.000000000000     0.000000000000    62.929597720000
         CU           0.000136165798     0.000000000000     2.386603006360    62.929597720000
         CU           0.000136165798     0.000000000000    -2.386603006360    62.929597720000

  Nuclear repulsion =  466.183554378534041

  ==> Basis Set <==

  Basis Set: DEF2-TZVPPD
    Blend: DEF2-TZVPPD
    Number of shells: 57
    Number of basis function: 201
    Number of Cartesian functions: 249
    Spherical Harmonics?: true
    Max angular momentum: 4

  ==> DFJKGrad: Density-Fitted SCF Gradients <==

    Gradient:                    1
    J tasked:                  Yes
    K tasked:                  Yes
    wK tasked:                 Yes
    Omega:               2.500E-01
    OpenMP threads:             24
    Integrals threads:          24
    Memory [MiB]:           102996
    Schwarz Cutoff:          0E+00
    Fitting Condition:       1E-10

   => Auxiliary Basis Set <=

  Basis Set: (DEF2-TZVPPD AUX)
    Blend: DEF2-TZVPP-JKFIT
    Number of shells: 174
    Number of basis function: 792
    Number of Cartesian functions: 1131
    Spherical Harmonics?: true
    Max angular momentum: 6

  ==> DFT Potential <==

   => Composite Functional: M11-D3BJ <= 

    M11 Meta-GGA XC Functional

    R. Peverati and D. G. Truhlar, J. Phys. Chem. Lett., 2, 2810, 2011


    Deriv               =              1
    GGA                 =           TRUE
    Meta                =           TRUE

    Exchange Hybrid     =           TRUE
    MP2 Hybrid          =          FALSE

   => Exchange Functionals <=

    1.0000   XC_HYB_MGGA_X_M11 [omega = 0.2500]

   => Exact (HF) Exchange <=

    0.5720            HF,LR [omega = 0.2500]
    0.4280               HF 

   => Correlation Functionals <=

    1.0000    XC_MGGA_C_M11

   => Molecular Quadrature <=

    Radial Scheme          =       TREUTLER
    Pruning Scheme         =           FLAT
    Nuclear Scheme         =       TREUTLER

    BS radius alpha        =              1
    Pruning alpha          =              1
    Radial Points          =             75
    Spherical Points       =            302
    Total Points           =          67950
    Total Blocks           =            620
    Max Points             =            255
    Max Functions          =            170


  -Total Gradient:
     Atom            X                  Y                   Z
    ------   -----------------  -----------------  -----------------
       1        0.000008374621     0.000000000000     0.000000000000
       2       -0.000004307371     0.000000000000    -0.000030316748
       3       -0.000004307371     0.000000000000     0.000030316748


*** tstop() called on bp1-compute00072.data.bp.acrc.priv at Fri Oct 29 08:37:50 2021
Module time:
	user time   =      65.79 seconds =       1.10 minutes
	system time =       2.94 seconds =       0.05 minutes
	total time  =          6 seconds =       0.10 minutes
Total time:
	user time   =    2023.69 seconds =      33.73 minutes
	system time =      87.38 seconds =       1.46 minutes
	total time  =        134 seconds =       2.23 minutes

         ----------------------------------------------------------
                                   FINDIF
                     R. A. King and Jonathon Misiewicz
         ---------------------------------------------------------

  Computing second-derivative from gradients using projected, 
  symmetry-adapted, cartesian coordinates.

  6 gradients passed in, including the reference geometry.
  Generating complete list of displacements from unique ones.

    Operation 3 takes plus displacements of irrep B1u to minus ones.
    Operation 2 takes plus displacements of irrep B2u to minus ones.
    Operation 2 takes plus displacements of irrep B3u to minus ones.

-------------------------------------------------------------


  ==> Harmonic Vibrational Analysis <==

  non-mass-weighted Hessian:       Symmetric? True   Hermitian? True   Lin Dep Dim?  5 (0)
  projection of translations (True) and rotations (True) removed 5 degrees of freedom (5)
  total projector:                 Symmetric? True   Hermitian? True   Lin Dep Dim?  5 (5)
  mass-weighted Hessian:           Symmetric? True   Hermitian? True   Lin Dep Dim?  5 (0)
  pre-proj  low-frequency mode:    0.0000i [cm^-1]
  pre-proj  low-frequency mode:    0.0000i [cm^-1]
  pre-proj  low-frequency mode:    0.0000i [cm^-1]
  pre-proj  low-frequency mode:    0.0000  [cm^-1]
  pre-proj  low-frequency mode:    0.0000  [cm^-1]
  pre-proj  low-frequency mode:    0.0000  [cm^-1]
  pre-proj  low-frequency mode:    0.0000  [cm^-1]
  pre-proj  all modes:['83.0570i' '83.0570i' '0.0000i' '0.0000' '0.0000' '0.0000' '0.0000'
 '133.6136' '224.0350']
  projected mass-weighted Hessian: Symmetric? True   Hermitian? True   Lin Dep Dim?  5 (5)
  post-proj low-frequency mode:   83.0570i [cm^-1] (V)
  post-proj low-frequency mode:   83.0570i [cm^-1] (V)
  post-proj low-frequency mode:    0.0000i [cm^-1] (TR)
  post-proj low-frequency mode:    0.0000i [cm^-1] (TR)
  post-proj low-frequency mode:    0.0000  [cm^-1] (TR)
  post-proj low-frequency mode:    0.0000  [cm^-1] (TR)
  post-proj low-frequency mode:    0.0000  [cm^-1] (TR)
  post-proj  all modes:['83.0570i' '83.0570i' '0.0000i' '0.0000i' '0.0000' '0.0000' '0.0000'
 '133.6136' '224.0350']

  Vibration                       1                   2                   8           
  Freq [cm^-1]                 83.0570i            83.0570i            133.6136       
  Irrep                          B3u                 B2u                  Ag          
  Reduced mass [u]             62.9296             62.9296             62.9296        
  Force const [mDyne/A]        -0.2558             -0.2558              0.6619        
  Turning point v=0 [a0]        0.0000              0.0000              0.1197        
  RMS dev v=0 [a0 u^1/2]        0.0000              0.0000              0.6712        
  Char temp [K]                 0.0000              0.0000             192.2403       
  ----------------------------------------------------------------------------------
      1   CU               0.82  0.00 -0.00    0.00  0.82 -0.00    0.00  0.00  0.00   
      2   CU              -0.41 -0.00 -0.00    0.00 -0.41 -0.00    0.00 -0.00  0.71   
      3   CU              -0.41  0.00 -0.00    0.00 -0.41 -0.00   -0.00  0.00 -0.71   

  Vibration                       9           
  Freq [cm^-1]                 224.0350       
  Irrep                          B1u          
  Reduced mass [u]             62.9296        
  Force const [mDyne/A]         1.8610        
  Turning point v=0 [a0]        0.0924        
  RMS dev v=0 [a0 u^1/2]        0.5184        
  Char temp [K]                322.3365       
  ----------------------------------------------------------------------------------
      1   CU              -0.00 -0.00  0.82   
      2   CU               0.00  0.00 -0.41   
      3   CU              -0.00 -0.00 -0.41   

  ==> Thermochemistry Components <==

  Entropy, S
    Electronic S            0.000 [cal/(mol K)]        0.000 [J/(mol K)]       0.00000000 [mEh/K] (multiplicity = 1)
    Translational S        41.612 [cal/(mol K)]      174.105 [J/(mol K)]       0.06631321 [mEh/K] (mol. weight = 188.7888 [u], P = 101325.00 [Pa])
    Rotational S           18.661 [cal/(mol K)]       78.079 [J/(mol K)]       0.02973875 [mEh/K] (symmetry no. = 2)
    Vibrational S           4.820 [cal/(mol K)]       20.165 [J/(mol K)]       0.00768052 [mEh/K]
  Total S                  65.093 [cal/(mol K)]      272.350 [J/(mol K)]       0.10373248 [mEh/K]
  Correction S              0.000 [cal/(mol K)]        0.000 [J/(mol K)]       0.00000000 [mEh/K]

  Constant volume heat capacity, Cv
    Electronic Cv           0.000 [cal/(mol K)]        0.000 [J/(mol K)]       0.00000000 [mEh/K]
    Translational Cv        2.981 [cal/(mol K)]       12.472 [J/(mol K)]       0.00475022 [mEh/K]
    Rotational Cv           1.987 [cal/(mol K)]        8.314 [J/(mol K)]       0.00316681 [mEh/K]
    Vibrational Cv          3.724 [cal/(mol K)]       15.582 [J/(mol K)]       0.00593492 [mEh/K]
  Total Cv                  8.692 [cal/(mol K)]       36.368 [J/(mol K)]       0.01385195 [mEh/K]
  Correction Cv             0.000 [cal/(mol K)]        0.000 [J/(mol K)]       0.00000000 [mEh/K]

  Constant pressure heat capacity, Cp
    Electronic Cp           0.000 [cal/(mol K)]        0.000 [J/(mol K)]       0.00000000 [mEh/K]
    Translational Cp        4.968 [cal/(mol K)]       20.786 [J/(mol K)]       0.00791703 [mEh/K]
    Rotational Cp           1.987 [cal/(mol K)]        8.314 [J/(mol K)]       0.00316681 [mEh/K]
    Vibrational Cp          3.724 [cal/(mol K)]       15.582 [J/(mol K)]       0.00593492 [mEh/K]
  Total Cp                 10.679 [cal/(mol K)]       44.683 [J/(mol K)]       0.01701876 [mEh/K]
  Correction Cp             0.000 [cal/(mol K)]        0.000 [J/(mol K)]       0.00000000 [mEh/K]

  ==> Thermochemistry Energy Analysis <==

  Raw electronic energy, E0
  Total E0, Electronic energy at well bottom at 0 [K]                -4920.74394945 [Eh]

  Zero-point energy, ZPE_vib = Sum_i nu_i / 2
    Electronic ZPE          0.000 [kcal/mol]        0.000 [kJ/mol]       0.00000000 [Eh]
    Translational ZPE       0.000 [kcal/mol]        0.000 [kJ/mol]       0.00000000 [Eh]
    Rotational ZPE          0.000 [kcal/mol]        0.000 [kJ/mol]       0.00000000 [Eh]
    Vibrational ZPE         0.511 [kcal/mol]        2.139 [kJ/mol]       0.00081478 [Eh]         178.824 [cm^-1]
  Correction ZPE            0.511 [kcal/mol]        2.139 [kJ/mol]       0.00081478 [Eh]         178.824 [cm^-1]
  Total ZPE, Electronic energy at 0 [K]                              -4920.74313466 [Eh]

  Thermal Energy, E (includes ZPE)
    Electronic E            0.000 [kcal/mol]        0.000 [kJ/mol]       0.00000000 [Eh]
    Translational E         0.889 [kcal/mol]        3.718 [kJ/mol]       0.00141628 [Eh]
    Rotational E            0.592 [kcal/mol]        2.479 [kJ/mol]       0.00094418 [Eh]
    Vibrational E           1.262 [kcal/mol]        5.280 [kJ/mol]       0.00201108 [Eh]
  Correction E              2.743 [kcal/mol]       11.477 [kJ/mol]       0.00437154 [Eh]
  Total E, Electronic energy at  298.15 [K]                          -4920.73957791 [Eh]

  Enthalpy, H_trans = E_trans + k_B * T
    Electronic H            0.000 [kcal/mol]        0.000 [kJ/mol]       0.00000000 [Eh]
    Translational H         1.481 [kcal/mol]        6.197 [kJ/mol]       0.00236046 [Eh]
    Rotational H            0.592 [kcal/mol]        2.479 [kJ/mol]       0.00094418 [Eh]
    Vibrational H           1.262 [kcal/mol]        5.280 [kJ/mol]       0.00201108 [Eh]
  Correction H              3.336 [kcal/mol]       13.956 [kJ/mol]       0.00531572 [Eh]
  Total H, Enthalpy at  298.15 [K]                                   -4920.73863372 [Eh]

  Gibbs free energy, G = H - T * S
    Electronic G            0.000 [kcal/mol]        0.000 [kJ/mol]       0.00000000 [Eh]
    Translational G       -10.925 [kcal/mol]      -45.712 [kJ/mol]      -0.01741082 [Eh]
    Rotational G           -4.971 [kcal/mol]      -20.800 [kJ/mol]      -0.00792242 [Eh]
    Vibrational G          -0.175 [kcal/mol]       -0.732 [kJ/mol]      -0.00027887 [Eh]
  Correction G            -16.072 [kcal/mol]      -67.245 [kJ/mol]      -0.02561212 [Eh]
  Total G, Free enthalpy at  298.15 [K]                              -4920.76956156 [Eh]

    Psi4 stopped on: Friday, 29 October 2021 08:37AM
    Psi4 wall time for execution: 0:02:13.45

*** Psi4 exiting successfully. Buy a developer a beer!
