
                                 *****************
                                 * O   R   C   A *
                                 *****************

           --- An Ab Initio, DFT and Semiempirical electronic structure package ---

                  #######################################################
                  #                        -***-                        #
                  #          Department of theory and spectroscopy      #
                  #               Directorship: Frank Neese             #
                  #        Max Planck Institute fuer Kohlenforschung    #
                  #                Kaiser Wilhelm Platz 1               #
                  #                 D-45470 Muelheim/Ruhr               #
                  #                      Germany                        #
                  #                                                     #
                  #                  All rights reserved                #
                  #                        -***-                        #
                  #######################################################


                         Program Version 4.2.0 -  RELEASE  -


 With contributions from (in alphabetic order):
   Daniel Aravena         : Magnetic Suceptibility
   Michael Atanasov       : Ab Initio Ligand Field Theory (pilot matlab implementation)
   Alexander A. Auer      : GIAO ZORA, VPT2
   Ute Becker             : Parallelization
   Giovanni Bistoni       : ED, misc. LED, open-shell LED, HFLED
   Martin Brehm           : Molecular dynamics
   Dmytro Bykov           : SCF Hessian
   Vijay G. Chilkuri      : MRCI spin determinant printing, contributions to CSF-ICE
   Dipayan Datta          : RHF DLPNO-CCSD density
   Achintya Kumar Dutta   : EOM-CC, STEOM-CC
   Dmitry Ganyushin       : Spin-Orbit,Spin-Spin,Magnetic field MRCI
   Miquel Garcia          : C-PCM Hessian, Gaussian charge scheme
   Yang Guo               : DLPNO-NEVPT2, CIM, IAO-localization
   Andreas Hansen         : Spin unrestricted coupled pair/coupled cluster methods
   Benjamin Helmich-Paris : CASSCF linear response (MC-RPA)
   Lee Huntington         : MR-EOM, pCC
   Robert Izsak           : Overlap fitted RIJCOSX, COSX-SCS-MP3, EOM
   Christian Kollmar      : KDIIS, OOCD, Brueckner-CCSD(T), CCSD density
   Simone Kossmann        : Meta GGA functionals, TD-DFT gradient, OOMP2, MP2 Hessian
   Martin Krupicka        : AUTO-CI
   Lucas Lang             : DCDCAS
   Dagmar Lenk            : GEPOL surface, SMD
   Dimitrios Liakos       : Extrapolation schemes; Compound Job, initial MDCI parallelization
   Dimitrios Manganas     : Further ROCIS development; embedding schemes
   Dimitrios Pantazis     : SARC Basis sets
   Taras Petrenko         : DFT Hessian,TD-DFT gradient, ASA, ECA, R-Raman, ABS, FL, XAS/XES, NRVS
   Peter Pinski           : DLPNO-MP2, DLPNO-MP2 Gradient
   Christoph Reimann      : Effective Core Potentials
   Marius Retegan         : Local ZFS, SOC
   Christoph Riplinger    : Optimizer, TS searches, QM/MM, DLPNO-CCSD(T), (RO)-DLPNO pert. Triples
   Tobias Risthaus        : Range-separated hybrids, TD-DFT gradient, RPA, STAB
   Michael Roemelt        : Original ROCIS implementation
   Masaaki Saitow         : Open-shell DLPNO-CCSD energy and density
   Barbara Sandhoefer     : DKH picture change effects
   Avijit Sen             : IP-ROCIS
   Kantharuban Sivalingam : CASSCF convergence, NEVPT2, FIC-MRCI
   Bernardo de Souza      : ESD, SOC TD-DFT
   Georgi Stoychev        : AutoAux, RI-MP2 NMR
   Willem Van den Heuvel  : Paramagnetic NMR
   Boris Wezisla          : Elementary symmetry handling
   Frank Wennmohs         : Technical directorship


 We gratefully acknowledge several colleagues who have allowed us to
 interface, adapt or use parts of their codes:
   Stefan Grimme, W. Hujo, H. Kruse,             : VdW corrections, initial TS optimization,
                  C. Bannwarth                     DFT functionals, gCP, sTDA/sTD-DF
   Ed Valeev, F. Pavosevic, A. Kumar             : LibInt (2-el integral package), F12 methods
   Garnet Chan, S. Sharma, J. Yang, R. Olivares  : DMRG
   Ulf Ekstrom                                   : XCFun DFT Library
   Mihaly Kallay                                 : mrcc  (arbitrary order and MRCC methods)
   Andreas Klamt, Michael Diedenhofen            : otool_cosmo (COSMO solvation model)
   Jiri Pittner, Ondrej Demel                    : Mk-CCSD
   Frank Weinhold                                : gennbo (NPA and NBO analysis)
   Christopher J. Cramer and Donald G. Truhlar   : smd solvation model
   Lars Goerigk                                  : TD-DFT with DH, B97 family of functionals
   V. Asgeirsson, H. Jonsson                     : NEB implementation
   FAccTs GmbH                                   : IRC, NEB, NEB-TS, Multilevel, MM, QM/MM, CI optimization
   S Lehtola, MJT Oliveira, MAL Marques          : LibXC Library


 Your calculation uses the libint2 library for the computation of 2-el integrals
 For citations please refer to: http://libint.valeyev.net

 Your ORCA version has been built with support for libXC version: 4.2.3
 For citations please refer to: https://tddft.org/programs/libxc/

 This ORCA versions uses:
   CBLAS   interface :  Fast vector & matrix operations
   LAPACKE interface :  Fast linear algebra routines
   SCALAPACK package :  Parallel linear algebra routines


Your calculation utilizes the atom-pairwise dispersion correction
with the Becke-Johnson damping scheme (D3BJ)
Cite in your paper:
S.Grimme, S.Ehrlich, L.Goerigk, J Comput Chem, (2011), 32, 1456–1465 
S.Grimme, J.Antony, S.Ehrlich and H.Krieg, J.Chem.Phys., 132, (2010), 154104 
   

----- Orbital basis set information -----
Your calculation utilizes the basis: def2-TZVPPD
   F. Weigend and R. Ahlrichs, Phys. Chem. Chem. Phys. 7, 3297 (2005).
   D. Rappoport and F. Furche, J. Chem. Phys. 133 134105 (2010).

----- AuxJ basis set information -----
Your calculation utilizes the auxiliary basis: def2/J
   F. Weigend, Phys. Chem. Chem. Phys. 8, 1057 (2006).

cite the ECPs for Ag [Def2-ECP] as follows:
Ce-Yb(ecp-28): M. Dolg, H. Stoll, H.Preuss, J. Chem. Phys., 1989, 90, 1730-1734.
Y-Cd(ecp-28), Hf-Hg(ecp-46): D. Andrae,U. Haeussermann, M. Dolg, H. Stoll, H. Preuss, Theor. Chim. Acta, 1990, 77, 123-141.
In-Sb(ecp-28), Tl-Bi(ecp-46): B. Metz, H. Stoll, M. Dolg, J. Chem. Phys., 2000, 113, 2563-2569.
Te-Xe(ecp-28), Po-Rn(ecp-46): K. A. Peterson, D. Figgen, E. Goll, H. Stoll, M. Dolg, J. Chem. Phys., 2003, 119, 11113-11123.
Rb(ecp-28), Cs(ecp-46): T. Leininger, A. Nicklass, W. Kuechle, H. Stoll, M. Dolg, A. Bergner, Chem. Phys. Lett., 1996, 255, 274-280.
Sr(ecp-28), Ba(ecp-46): M. Kaupp, P. V. Schleyer, H. Stoll and H. Preuss, J. Chem. Phys., 1991, 94, 1360-1366.
La(ecp-46): M. Dolg, H. Stoll, A. Savin, H. Preuss, Theor. Chim. Acta, 1989, 75, 173-194.
Lu(ecp-28): X. Cao, M. Dolg, J. Chem. Phys., 2001, 115, 7348-7355.

ECP parameters for Ag [Def2-ECP] have been obtained from:
TURBOMOLE (7.0.2)

================================================================================
                                        WARNINGS
                       Please study these warnings very carefully!
================================================================================


WARNING: Geometry Optimization
  ===> : Switching off AutoStart
         For restart on a previous wavefunction, please use MOREAD

INFO   : the flag for use of LIBINT has been found!

================================================================================
                                       INPUT FILE
================================================================================
NAME = Ag02N0.in
|  1> #
|  2> # Ag02N0 TPSS-D3BJ/Def2-TZVPPD
|  3> #
|  4> ! tpss d3bj def2-tzvppd def2/j grid4 nofinalgrid opt xyzfile numfreq
|  5> 
|  6> *xyz 0 1
|  7> Ag       0.000000    0.000000    1.261821 
|  8> Ag       0.000000    0.000000   -1.261821 
|  9> *
| 10> 
| 11> %maxcore 5000
| 12> 
| 13> %pal
| 14> nprocs = 24
| 15> end
| 16> 
| 17> 
| 18>                          ****END OF INPUT****
================================================================================

                       *****************************
                       * Geometry Optimization Run *
                       *****************************

Geometry optimization settings:
Update method            Update   .... BFGS
Choice of coordinates    CoordSys .... Z-matrix Internals
Initial Hessian          InHess   .... Almoef's Model

Convergence Tolerances:
Energy Change            TolE     ....  5.0000e-06 Eh
Max. Gradient            TolMAXG  ....  3.0000e-04 Eh/bohr
RMS Gradient             TolRMSG  ....  1.0000e-04 Eh/bohr
Max. Displacement        TolMAXD  ....  4.0000e-03 bohr
RMS Displacement         TolRMSD  ....  2.0000e-03 bohr
Strict Convergence                ....  False
------------------------------------------------------------------------------
                        ORCA OPTIMIZATION COORDINATE SETUP
------------------------------------------------------------------------------

The optimization will be done in new redundant internal coordinates
Making redundant internal coordinates   ...  (new redundants) done
Evaluating the initial hessian          ...  (Almloef) done
Evaluating the coordinates              ...  done
Calculating the B-matrix                .... done
Calculating the G-matrix                .... done
Diagonalizing the G-matrix              .... done
The first mode is                       ....    0
The number of degrees of freedom        ....    1

    -----------------------------------------------------------------
                    Redundant Internal Coordinates


    -----------------------------------------------------------------
         Definition                    Initial Value    Approx d2E/dq
    -----------------------------------------------------------------
      1. B(Ag  1,Ag  0)                  2.5236         0.993882   
    -----------------------------------------------------------------

Number of atoms                         .... 2
Number of degrees of freedom            .... 1

         *************************************************************
         *                GEOMETRY OPTIMIZATION CYCLE   1            *
         *************************************************************
---------------------------------
CARTESIAN COORDINATES (ANGSTROEM)
---------------------------------
  Ag     0.000000    0.000000    1.261821
  Ag     0.000000    0.000000   -1.261821

----------------------------
CARTESIAN COORDINATES (A.U.)
----------------------------
  NO LB      ZA    FRAG     MASS         X           Y           Z
   0 Ag   19.0000*   0   107.870    0.000000    0.000000    2.384496
   1 Ag   19.0000*   0   107.870    0.000000    0.000000   -2.384496
* core charge reduced due to ECP

--------------------------------
INTERNAL COORDINATES (ANGSTROEM)
--------------------------------
 Ag     0   0   0     0.000000000000     0.00000000     0.00000000
 Ag     1   0   0     2.523642000000     0.00000000     0.00000000

---------------------------
INTERNAL COORDINATES (A.U.)
---------------------------
 Ag     0   0   0     0.000000000000     0.00000000     0.00000000
 Ag     1   0   0     4.768992240061     0.00000000     0.00000000

---------------------
BASIS SET INFORMATION
---------------------
There are 1 groups of distinct atoms

 Group   1 Type Ag  : 7s7p6d2f1g contracted to 6s4p3d2f1g pattern {211111/4111/411/11/1}

Atom   0Ag   basis set group =>   1
Atom   1Ag   basis set group =>   1
---------------------------------
AUXILIARY/J BASIS SET INFORMATION
---------------------------------
There are 1 groups of distinct atoms

 Group   1 Type Ag  : 11s5p5d3f3g contracted to 8s5p5d2f3g pattern {41111111/11111/11111/21/111}

Atom   0Ag   basis set group =>   1
Atom   1Ag   basis set group =>   1
-------------------------
ECP PARAMETER INFORMATION
-------------------------

 Group 1, Type Ag ECP Def2-ECP (replacing 28 core electrons, lmax=3)

Atom   0Ag   ECP group =>   1
Atom   1Ag   ECP group =>   1



           ************************************************************
           *        Program running with 24 parallel MPI-processes    *
           *              working on a common directory               *
           ************************************************************
------------------------------------------------------------------------------
                           ORCA GTO INTEGRAL CALCULATION
                           -- RI-GTO INTEGRALS CHOSEN --
------------------------------------------------------------------------------

                         BASIS SET STATISTICS AND STARTUP INFO

Gaussian basis set:
 # of primitive gaussian shells          ...   46
 # of primitive gaussian functions       ...  162
 # of contracted shells                  ...   32
 # of contracted basis functions         ...  112
 Highest angular momentum                ...    4
 Maximum contraction depth               ...    4
Auxiliary gaussian basis set:
 # of primitive gaussian shells          ...   54
 # of primitive gaussian functions       ...  198
 # of contracted shells                  ...   46
 # of contracted aux-basis functions     ...  178
 Highest angular momentum                ...    4
 Maximum contraction depth               ...    4
Ratio of auxiliary to basis functions    ...  1.59
Integral package used                  ... LIBINT
 One Electron integrals                  
   ECP integrals                         ... done
 Ordering auxiliary basis shells         ... done
 Integral threshhold             Thresh  ...  2.500e-11
 Primitive cut-off               TCut    ...  2.500e-12
 Pre-screening matrix                    ... done
 Shell pair data                         ... 
 Ordering of the shell pairs             ... done (   0.000 sec) 518 of 528 pairs
 Determination of significant pairs      ... done (   0.000 sec)
 Creation of shell pair data             ... done (   0.000 sec)
 Storage of shell pair data              ... done (   0.006 sec)
 Shell pair data done in (   0.006 sec)
 Computing two index integrals           ... done
 Cholesky decomposition of the V-matrix  ... done


Timings:
 Total evaluation time                   ...   0.284 sec (  0.005 min)
 One electron matrix time                ...   0.143 sec (  0.002 min) = 50.3%
 Schwartz matrix evaluation time         ...   0.105 sec (  0.002 min) = 37.0%
 Two index repulsion integral time       ...   0.001 sec (  0.000 min) =  0.2%
 Cholesky decomposition of V             ...   0.001 sec (  0.000 min) =  0.3%
 Three index repulsion integral time     ...   0.000 sec (  0.000 min) =  0.0%



           ************************************************************
           *        Program running with 24 parallel MPI-processes    *
           *              working on a common directory               *
           ************************************************************
-------------------------------------------------------------------------------
                                 ORCA SCF
-------------------------------------------------------------------------------

------------
SCF SETTINGS
------------
Hamiltonian:
 Density Functional     Method          .... DFT(GTOs)
 Exchange Functional    Exchange        .... TPSS
 Correlation Functional Correlation     .... TPSS
 LDA part of GGA corr.  LDAOpt          .... PW91-LDA
 Gradients option       PostSCFGGA      .... off
   Density functional embedding theory  .... OFF
   NL short-range parameter             ....  5.000000
 RI-approximation to the Coulomb term is turned on
   Number of auxiliary basis functions  .... 178


General Settings:
 Integral files         IntName         .... Ag02N0
 Hartree-Fock type      HFTyp           .... RHF
 Total Charge           Charge          ....    0
 Multiplicity           Mult            ....    1
 Number of Electrons    NEL             ....   38
 Basis Dimension        Dim             ....  112
 Nuclear Repulsion      ENuc            ....     75.6973343273 Eh

Convergence Acceleration:
 DIIS                   CNVDIIS         .... on
   Start iteration      DIISMaxIt       ....    12
   Startup error        DIISStart       ....  0.200000
   # of expansion vecs  DIISMaxEq       ....     5
   Bias factor          DIISBfac        ....   1.050
   Max. coefficient     DIISMaxC        ....  10.000
 Newton-Raphson         CNVNR           .... off
 SOSCF                  CNVSOSCF        .... off
 Level Shifting         CNVShift        .... on
   Level shift para.    LevelShift      ....    0.2500
   Turn off err/grad.   ShiftErr        ....    0.0010
 Zerner damping         CNVZerner       .... off
 Static damping         CNVDamp         .... on
   Fraction old density DampFac         ....    0.7000
   Max. Damping (<1)    DampMax         ....    0.9800
   Min. Damping (>=0)   DampMin         ....    0.0000
   Turn off err/grad.   DampErr         ....    0.1000
 Fernandez-Rico         CNVRico         .... off

SCF Procedure:
 Maximum # iterations   MaxIter         ....   125
 SCF integral mode      SCFMode         .... Direct
   Integral package                     .... LIBINT
 Reset frequency        DirectResetFreq ....    20
 Integral Threshold     Thresh          ....  2.500e-11 Eh
 Primitive CutOff       TCut            ....  2.500e-12 Eh

Convergence Tolerance:
 Convergence Check Mode ConvCheckMode   .... Total+1el-Energy
 Convergence forced     ConvForced      .... 0
 Energy Change          TolE            ....  1.000e-08 Eh
 1-El. energy change                    ....  1.000e-05 Eh
 DIIS Error             TolErr          ....  5.000e-07


Diagonalization of the overlap matrix:
Smallest eigenvalue                        ... 4.183e-03
Time for diagonalization                   ...    0.004 sec
Threshold for overlap eigenvalues          ... 1.000e-08
Number of eigenvalues below threshold      ... 0
Time for construction of square roots      ...    0.001 sec
Total time needed                          ...    0.005 sec

-------------------
DFT GRID GENERATION
-------------------

General Integration Accuracy     IntAcc      ...  4.670
Radial Grid Type                 RadialGrid  ... Gauss-Chebyshev
Angular Grid (max. acc.)         AngularGrid ... Lebedev-302
Angular grid pruning method      GridPruning ... 3 (G Style)
Weight generation scheme         WeightScheme... Becke
Basis function cutoff            BFCut       ...    1.0000e-11
Integration weight cutoff        WCut        ...    1.0000e-14
Grids for H and He will be reduced by one unit

# of grid points (after initial pruning)     ...  21316 (   0.0 sec)
# of grid points (after weights+screening)   ...  21280 (   0.0 sec)
nearest neighbour list constructed           ...    0.0 sec
Grid point re-assignment to atoms done       ...    0.0 sec
Grid point division into batches done        ...    0.2 sec
Reduced shell lists constructed in    0.2 sec

Total number of grid points                  ...    21280
Total number of batches                      ...      334
Average number of points per batch           ...       63
Average number of grid points per atom       ...    10640
Average number of shells per batch           ...     2.60 ( 8.12%)
Average number of basis functions per batch  ...     5.67 ( 5.06%)
Average number of large shells per batch     ...     1.93 (74.36%)
Average number of large basis fcns per batch ...     4.33 (76.47%)
Maximum spatial batch extension              ...  31.14, 31.14, 19.99 au
Average spatial batch extension              ...   0.98,  0.98,  0.74 au

Time for grid setup =    0.214 sec

------------------------------
INITIAL GUESS: MODEL POTENTIAL
------------------------------
Loading Hartree-Fock densities                     ... done
  calling /sw/apps/orca/orca_4_2_0_linux_x86-64_openmpi314/orca Ag02N0_atom47.inp > Ag02N0_atom47.out in order to generate an atomic fitting density for atom 0 (Ag with ECP) on-the-fly... 
    atom 0 (Ag), assumed electronic state with S=2: 1s2 2s2 2p6 3s2 3p6 4s2 3d10 4p6 5s2 4d9           ... done
Calculating cut-offs                               ... done
Setting up the integral package                    ... done
Initializing the effective Hamiltonian             ... done
Starting the Coulomb interaction                   ... done (   0.0 sec)
Reading the grid                                   ... done
Mapping shells                                     ... done
Starting the XC term evaluation                    ... done (   0.0 sec)
  promolecular density results
     # of electrons  =     94.001747121
     EX              =   -286.846359635
     EC              =     -4.972493760
     EX+EC           =   -291.818853395
Transforming the Hamiltonian                       ... done (   0.0 sec)
Diagonalizing the Hamiltonian                      ... done (   0.0 sec)
Back transforming the eigenvectors                 ... done (   0.0 sec)
Now organizing SCF variables                       ... done
                      ------------------
                      INITIAL GUESS DONE (   1.5 sec)
                      ------------------
--------------
SCF ITERATIONS
--------------
ITER       Energy         Delta-E        Max-DP      RMS-DP      [F,P]     Damp
               ***  Starting incremental Fock matrix formation  ***
  0   -293.6573820765   0.000000000000 0.11701560  0.00398505  0.5123668 0.7000
  1   -293.7725555794  -0.115173502944 0.05571056  0.00234220  0.3278036 0.7000
  2   -293.8053203298  -0.032764750410 0.02352454  0.00082596  0.2148566 0.7000
                               ***Turning on DIIS***
  3   -293.8290553822  -0.023735052339 0.00946406  0.00033030  0.1481102 0.7000
  4   -293.8470205068  -0.017965124623 0.00925661  0.00028904  0.1046593 0.7000
  5   -293.8595679168  -0.012547409993 0.02616210  0.00081133  0.0729562 0.0000
  6   -293.8887842202  -0.029216303414 0.00559502  0.00015901  0.0005148 0.0000
  7   -293.8887904492  -0.000006229030 0.00080853  0.00003256  0.0009018 0.0000
  8   -293.8887928696  -0.000002420380 0.00023675  0.00000910  0.0002862 0.0000
  9   -293.8887931188  -0.000000249171 0.00006206  0.00000276  0.0000524 0.0000
 10   -293.8887931327  -0.000000013927 0.00001966  0.00000070  0.0000439 0.0000
 11   -293.8887931365  -0.000000003771 0.00000202  0.00000010  0.0000018 0.0000
                            ***DIIS convergence achieved***

               *****************************************************
               *                     SUCCESS                       *
               *           SCF CONVERGED AFTER  12 CYCLES          *
               *****************************************************


----------------
TOTAL SCF ENERGY
----------------

Total Energy       :         -293.88879314 Eh           -7997.12063 eV

Components:
Nuclear Repulsion  :           75.69733433 Eh            2059.82919 eV
Electronic Energy  :         -369.58612746 Eh          -10056.94981 eV
One Electron Energy:         -673.61095054 Eh          -18329.88584 eV
Two Electron Energy:          304.02482307 Eh            8272.93602 eV

Virial components:
Potential Energy   :         -406.22359121 Eh          -11053.90589 eV
Kinetic Energy     :          112.33479807 Eh            3056.78526 eV
Virial Ratio       :            3.61618660


DFT components:
N(Alpha)           :       18.999989697047 electrons
N(Beta)            :       18.999989697047 electrons
N(Total)           :       37.999979394095 electrons
E(X)               :      -26.492043936047 Eh       
E(C)               :       -1.647261284237 Eh       
E(XC)              :      -28.139305220284 Eh       
DFET-embed. en.    :        0.000000000000 Eh       

---------------
SCF CONVERGENCE
---------------

  Last Energy change         ...    8.3674e-11  Tolerance :   1.0000e-08
  Last MAX-Density change    ...    7.1054e-07  Tolerance :   1.0000e-07
  Last RMS-Density change    ...    2.3442e-08  Tolerance :   5.0000e-09
  Last DIIS Error            ...    4.3743e-07  Tolerance :   5.0000e-07

             **** THE GBW FILE WAS UPDATED (Ag02N0.gbw) ****
             **** DENSITY FILE WAS UPDATED (Ag02N0.scfp) ****
             **** ENERGY FILE WAS UPDATED (Ag02N0.en.tmp) ****
             **** THE GBW FILE WAS UPDATED (Ag02N0.gbw) ****
             **** DENSITY FILE WAS UPDATED (Ag02N0.scfp) ****
----------------
ORBITAL ENERGIES
----------------

  NO   OCC          E(Eh)            E(eV) 
   0   2.0000      -3.580770       -97.4377 
   1   2.0000      -3.580143       -97.4207 
   2   2.0000      -2.208901       -60.1073 
   3   2.0000      -2.202331       -59.9285 
   4   2.0000      -2.201593       -59.9084 
   5   2.0000      -2.201593       -59.9084 
   6   2.0000      -2.200963       -59.8913 
   7   2.0000      -2.200963       -59.8913 
   8   2.0000      -0.303216        -8.2509 
   9   2.0000      -0.283768        -7.7217 
  10   2.0000      -0.283768        -7.7217 
  11   2.0000      -0.262341        -7.1386 
  12   2.0000      -0.262335        -7.1385 
  13   2.0000      -0.254335        -6.9208 
  14   2.0000      -0.254330        -6.9207 
  15   2.0000      -0.244045        -6.6408 
  16   2.0000      -0.244045        -6.6408 
  17   2.0000      -0.238218        -6.4822 
  18   2.0000      -0.187483        -5.1017 
  19   0.0000      -0.105869        -2.8808 
  20   0.0000      -0.030821        -0.8387 
  21   0.0000      -0.030821        -0.8387 
  22   0.0000      -0.012473        -0.3394 
  23   0.0000       0.032645         0.8883 
  24   0.0000       0.032645         0.8883 
  25   0.0000       0.079847         2.1727 
  26   0.0000       0.092681         2.5220 
  27   0.0000       0.140581         3.8254 
  28   0.0000       0.166657         4.5350 
  29   0.0000       0.169697         4.6177 
  30   0.0000       0.169697         4.6177 
  31   0.0000       0.224707         6.1146 
  32   0.0000       0.224707         6.1146 
  33   0.0000       0.357161         9.7188 
  34   0.0000       0.363117         9.8809 
  35   0.0000       0.363119         9.8810 
  36   0.0000       0.400466        10.8972 
  37   0.0000       0.400466        10.8972 
  38   0.0000       0.455679        12.3997 
  39   0.0000       0.455679        12.3997 
  40   0.0000       0.561664        15.2837 
  41   0.0000       0.572881        15.5889 
  42   0.0000       0.572881        15.5889 
  43   0.0000       0.697429        18.9780 
  44   0.0000       1.354845        36.8672 
  45   0.0000       1.493708        40.6459 
  46   0.0000       1.493708        40.6459 
  47   0.0000       1.541844        41.9557 
  48   0.0000       1.541853        41.9559 
  49   0.0000       1.558119        42.3986 
  50   0.0000       1.558119        42.3986 
  51   0.0000       1.560420        42.4612 
  52   0.0000       1.560420        42.4612 
  53   0.0000       1.573057        42.8051 
  54   0.0000       1.573066        42.8053 
  55   0.0000       1.574675        42.8491 
  56   0.0000       1.574675        42.8491 
  57   0.0000       1.580588        43.0100 
  58   0.0000       1.580588        43.0100 
  59   0.0000       1.596485        43.4426 
  60   0.0000       1.676223        45.6123 
  61   0.0000       1.695958        46.1494 
  62   0.0000       1.695958        46.1494 
  63   0.0000       1.718085        46.7515 
  64   0.0000       1.886901        51.3452 
  65   0.0000       1.986164        54.0463 
  66   0.0000       1.986181        54.0467 
  67   0.0000       2.004673        54.5499 
  68   0.0000       2.004673        54.5499 
  69   0.0000       2.024814        55.0980 
  70   0.0000       2.024828        55.0984 
  71   0.0000       2.084838        56.7313 
  72   0.0000       2.091243        56.9056 
  73   0.0000       2.091243        56.9056 
  74   0.0000       2.258966        61.4696 
  75   0.0000       2.305767        62.7431 
  76   0.0000       4.690654       127.6392 
  77   0.0000       4.690654       127.6392 
  78   0.0000       4.700607       127.9100 
  79   0.0000       4.732243       128.7709 
  80   0.0000       4.732628       128.7813 
  81   0.0000       4.745139       129.1218 
  82   0.0000       4.745139       129.1218 
  83   0.0000       4.747112       129.1755 
  84   0.0000       4.747112       129.1755 
  85   0.0000       4.759760       129.5196 
  86   0.0000       4.760147       129.5302 
  87   0.0000       4.847502       131.9072 
  88   0.0000       4.847502       131.9072 
  89   0.0000       5.051389       137.4553 
  90   0.0000       5.516922       150.1231 
  91   0.0000       5.516922       150.1231 
  92   0.0000       5.518923       150.1775 
  93   0.0000       5.519291       150.1876 
  94   0.0000       5.519297       150.1877 
  95   0.0000       5.519843       150.2026 
  96   0.0000       5.519854       150.2029 
  97   0.0000       5.521678       150.2525 
  98   0.0000       5.521678       150.2525 
  99   0.0000       5.521700       150.2531 
 100   0.0000       5.521700       150.2531 
 101   0.0000       5.521883       150.2581 
 102   0.0000       5.521883       150.2581 
 103   0.0000       5.523857       150.3118 
 104   0.0000       5.523859       150.3118 
 105   0.0000       5.524698       150.3347 
 106   0.0000       5.524699       150.3347 
 107   0.0000       5.537069       150.6713 
 108   0.0000      33.229236       904.2135 
 109   0.0000      33.475686       910.9197 
 110   0.0000     110.689997      3012.0280 
 111   0.0000     110.769246      3014.1844 

                    ********************************
                    * MULLIKEN POPULATION ANALYSIS *
                    ********************************

-----------------------
MULLIKEN ATOMIC CHARGES
-----------------------
   0 Ag:    0.000000
   1 Ag:   -0.000000
Sum of atomic charges:    0.0000000

--------------------------------
MULLIKEN REDUCED ORBITAL CHARGES
--------------------------------
  0 Ags       :     3.005630  s :     3.005630
      pz      :     2.024897  p :     6.045790
      px      :     2.010446
      py      :     2.010446
      dz2     :     1.968722  d :     9.946893
      dxz     :     1.989147
      dyz     :     1.989147
      dx2y2   :     1.999939
      dxy     :     1.999939
      f0      :     0.000741  f :     0.001665
      f+1     :     0.000402
      f-1     :     0.000402
      f+2     :     0.000061
      f-2     :     0.000061
      f+3     :     0.000000
      f-3     :     0.000000
      g0      :     0.000009  g :     0.000021
      g+1     :     0.000005
      g-1     :     0.000005
      g+2     :     0.000001
      g-2     :     0.000001
      g+3     :     0.000000
      g-3     :     0.000000
      g+4     :     0.000000
      g-4     :     0.000000
  1 Ags       :     3.005631  s :     3.005631
      pz      :     2.024898  p :     6.045790
      px      :     2.010446
      py      :     2.010446
      dz2     :     1.968722  d :     9.946893
      dxz     :     1.989147
      dyz     :     1.989147
      dx2y2   :     1.999939
      dxy     :     1.999939
      f0      :     0.000741  f :     0.001665
      f+1     :     0.000402
      f-1     :     0.000402
      f+2     :     0.000061
      f-2     :     0.000061
      f+3     :     0.000000
      f-3     :     0.000000
      g0      :     0.000009  g :     0.000021
      g+1     :     0.000005
      g-1     :     0.000005
      g+2     :     0.000001
      g-2     :     0.000001
      g+3     :     0.000000
      g-3     :     0.000000
      g+4     :     0.000000
      g-4     :     0.000000


                     *******************************
                     * LOEWDIN POPULATION ANALYSIS *
                     *******************************

----------------------
LOEWDIN ATOMIC CHARGES
----------------------
   0 Ag:    0.000000
   1 Ag:   -0.000000

-------------------------------
LOEWDIN REDUCED ORBITAL CHARGES
-------------------------------
  0 Ags       :     2.922097  s :     2.922097
      pz      :     2.085070  p :     6.109881
      px      :     2.012406
      py      :     2.012406
      dz2     :     1.991842  d :     9.965745
      dxz     :     1.987023
      dyz     :     1.987023
      dx2y2   :     1.999929
      dxy     :     1.999929
      f0      :     0.000979  f :     0.002249
      f+1     :     0.000565
      f-1     :     0.000565
      f+2     :     0.000070
      f-2     :     0.000070
      f+3     :     0.000000
      f-3     :     0.000000
      g0      :     0.000012  g :     0.000028
      g+1     :     0.000007
      g-1     :     0.000007
      g+2     :     0.000001
      g-2     :     0.000001
      g+3     :     0.000000
      g-3     :     0.000000
      g+4     :     0.000000
      g-4     :     0.000000
  1 Ags       :     2.922097  s :     2.922097
      pz      :     2.085070  p :     6.109881
      px      :     2.012406
      py      :     2.012406
      dz2     :     1.991842  d :     9.965745
      dxz     :     1.987023
      dyz     :     1.987023
      dx2y2   :     1.999929
      dxy     :     1.999929
      f0      :     0.000979  f :     0.002249
      f+1     :     0.000565
      f-1     :     0.000565
      f+2     :     0.000070
      f-2     :     0.000070
      f+3     :     0.000000
      f-3     :     0.000000
      g0      :     0.000012  g :     0.000028
      g+1     :     0.000007
      g-1     :     0.000007
      g+2     :     0.000001
      g-2     :     0.000001
      g+3     :     0.000000
      g-3     :     0.000000
      g+4     :     0.000000
      g-4     :     0.000000


                      *****************************
                      * MAYER POPULATION ANALYSIS *
                      *****************************

  NA   - Mulliken gross atomic population
  ZA   - Total nuclear charge
  QA   - Mulliken gross atomic charge
  VA   - Mayer's total valence
  BVA  - Mayer's bonded valence
  FA   - Mayer's free valence

  ATOM       NA         ZA         QA         VA         BVA        FA
  0 Ag    19.0000    19.0000     0.0000     1.0682     1.0682     0.0000
  1 Ag    19.0000    19.0000    -0.0000     1.0682     1.0682     0.0000

  Mayer bond orders larger than 0.100000
B(  0-Ag,  1-Ag) :   1.0682 

-------
TIMINGS
-------

Total SCF time: 0 days 0 hours 0 min 3 sec 

Total time                  ....       3.172 sec
Sum of individual times     ....       3.069 sec  ( 96.8%)

Fock matrix formation       ....       1.515 sec  ( 47.8%)
  Split-RI-J                ....       1.040 sec  ( 68.6% of F)
  XC integration            ....       0.387 sec  ( 25.5% of F)
    Basis function eval.    ....       0.020 sec  (  5.1% of XC)
    Density eval.           ....       0.031 sec  (  8.0% of XC)
    XC-Functional eval.     ....       0.019 sec  (  4.8% of XC)
    XC-Potential eval.      ....       0.045 sec  ( 11.7% of XC)
Diagonalization             ....       0.021 sec  (  0.6%)
Density matrix formation    ....       0.005 sec  (  0.2%)
Population analysis         ....       0.003 sec  (  0.1%)
Initial guess               ....       1.300 sec  ( 41.0%)
Orbital Transformation      ....       0.000 sec  (  0.0%)
Orbital Orthonormalization  ....       0.000 sec  (  0.0%)
DIIS solution               ....       0.011 sec  (  0.3%)
Grid generation             ....       0.214 sec  (  6.8%)


-------------------------------------------------------------------------------
                          DFT DISPERSION CORRECTION                            
                                                                               
                              DFTD3 V3.1  Rev 1                                
                          USING Becke-Johnson damping                          
-------------------------------------------------------------------------------
The TPSS functional is recognized
Active option DFTDOPT                   ...         4   

molecular C6(AA) [au] = 1086.308375 


            DFT-D V3
 parameters
 s6 scaling factor         :     1.0000 
 a1 scaling factor         :     0.4535 
 s8 scaling factor         :     1.9435 
 a2 scaling factor         :     4.4752 
 ad hoc parameters k1-k3   :    16.0000     1.3333    -4.0000 

 Edisp/kcal,au: -1.219681245124  -0.001943685578 
 E6   /kcal   :  -0.369946326 
 E8   /kcal   :  -0.849734919 
 % E8         :  69.668605819 

-------------------------   ----------------
Dispersion correction           -0.001943686
-------------------------   ----------------


-------------------------   --------------------
FINAL SINGLE POINT ENERGY      -293.890736821971
-------------------------   --------------------



           ************************************************************
           *        Program running with 24 parallel MPI-processes    *
           *              working on a common directory               *
           ************************************************************
------------------------------------------------------------------------------
                         ORCA SCF GRADIENT CALCULATION
------------------------------------------------------------------------------

Gradient of the Kohn-Sham DFT energy:
Kohn-Sham wavefunction type      ... RKS
Hartree-Fock exchange scaling    ...    0.000
Number of operators              ...    1
Number of atoms                  ...    2
Basis set dimensions             ...  112
Integral neglect threshold       ... 2.5e-11
Integral primitive cutoff        ... 2.5e-12

Nuclear repulsion gradient       ... done
One Electron Gradient            
  ECP gradient                   ... done
Pre-screening matrix             ... done
RI-J gradient                    ... done
Exchange-correlation gradient    ... done
Dispersion correction            ... done

------------------
CARTESIAN GRADIENT
------------------

   1   Ag  :    0.000000001   -0.000000002   -0.004092878
   2   Ag  :   -0.000000001   -0.000000002    0.004092878

Difference to translation invariance:
           :   -0.0000000000   -0.0000000041    0.0000000001

Norm of the cartesian gradient     ...    0.0057882036
RMS gradient                       ...    0.0023630242
MAX gradient                       ...    0.0040928781

-------
TIMINGS
-------

Total SCF gradient time            ...        0.570 sec

One electron gradient       ....       0.275 sec  ( 48.3%)
Prescreening matrices       ....       0.003 sec  (  0.6%)
RI-J Coulomb gradient       ....       0.077 sec  ( 13.5%)
XC gradient                 ....       0.014 sec  (  2.4%)
------------------------------------------------------------------------------
                         ORCA GEOMETRY RELAXATION STEP
------------------------------------------------------------------------------

Reading the OPT-File                    .... done
Getting information on internals        .... done
Copying old internal coords+grads       .... done
Making the new internal coordinates     .... (new redundants).... done
Validating the new internal coordinates .... (new redundants).... done
Calculating the B-matrix                .... done
Calculating the G,G- and P matrices     .... done
Transforming gradient to internals      .... done
Projecting the internal gradient        .... done
Number of atoms                         ....   2
Number of internal coordinates          ....   1
Current Energy                          ....  -293.890736822 Eh
Current gradient norm                   ....     0.005788204 Eh/bohr
Maximum allowed component of the step   ....  0.300
Current trust radius                    ....  0.300
Evaluating the initial hessian          ....  (Almloef) done
Projecting the Hessian                  .... done
Forming the augmented Hessian           .... done
Diagonalizing the augmented Hessian     .... done
Last element of RFO vector              ....  0.999991521
Lowest eigenvalues of augmented Hessian:
 -0.000016854
Length of the computed step             ....  0.004118004
The final length of the internal step   ....  0.004118004
Converting the step to cartesian space:
 Initial RMS(Int)=    0.0041180040
Transforming coordinates:
 Iter   0:  RMS(Cart)=    0.0011887654 RMS(Int)=    0.0041180040
 Iter   1:  RMS(Cart)=    0.0000000000 RMS(Int)=    0.0000000000
done
Storing new coordinates                 .... done

                                .--------------------.
          ----------------------|Geometry convergence|-------------------------
          Item                value                   Tolerance       Converged
          ---------------------------------------------------------------------
          RMS gradient        0.0040928781            0.0001000000      NO
          MAX gradient        0.0040928781            0.0003000000      NO
          RMS step            0.0041180040            0.0020000000      NO
          MAX step            0.0041180040            0.0040000000      NO
          ........................................................
          Max(Bonds)      0.0022      Max(Angles)    0.00
          Max(Dihed)        0.00      Max(Improp)    0.00
          ---------------------------------------------------------------------

The optimization has not yet converged - more geometry cycles are needed


    ---------------------------------------------------------------------------
                         Redundant Internal Coordinates
                            (Angstroem and degrees)

        Definition                    Value    dE/dq     Step     New-Value
    ----------------------------------------------------------------------------
     1. B(Ag  1,Ag  0)                2.5236 -0.004093  0.0022    2.5258   
    ----------------------------------------------------------------------------

         *************************************************************
         *                GEOMETRY OPTIMIZATION CYCLE   2            *
         *************************************************************
---------------------------------
CARTESIAN COORDINATES (ANGSTROEM)
---------------------------------
  Ag     0.000000    0.000000    1.262911
  Ag     0.000000    0.000000   -1.262911

----------------------------
CARTESIAN COORDINATES (A.U.)
----------------------------
  NO LB      ZA    FRAG     MASS         X           Y           Z
   0 Ag   19.0000*   0   107.870    0.000000    0.000000    2.386555
   1 Ag   19.0000*   0   107.870    0.000000    0.000000   -2.386555
* core charge reduced due to ECP

--------------------------------
INTERNAL COORDINATES (ANGSTROEM)
--------------------------------
 Ag     0   0   0     0.000000000000     0.00000000     0.00000000
 Ag     1   0   0     2.525821153850     0.00000000     0.00000000

---------------------------
INTERNAL COORDINATES (A.U.)
---------------------------
 Ag     0   0   0     0.000000000000     0.00000000     0.00000000
 Ag     1   0   0     4.773110244041     0.00000000     0.00000000



           ************************************************************
           *        Program running with 24 parallel MPI-processes    *
           *              working on a common directory               *
           ************************************************************
 One Electron integrals                  ... done
 Pre-screening matrix                    ... done


           ************************************************************
           *        Program running with 24 parallel MPI-processes    *
           *              working on a common directory               *
           ************************************************************

Diagonalization of the overlap matrix:
Smallest eigenvalue                        ... 4.201e-03
Time for diagonalization                   ...    0.003 sec
Threshold for overlap eigenvalues          ... 1.000e-08
Number of eigenvalues below threshold      ... 0
Time for construction of square roots      ...    0.002 sec
Total time needed                          ...    0.005 sec

-------------------
DFT GRID GENERATION
-------------------

General Integration Accuracy     IntAcc      ...  4.670
Radial Grid Type                 RadialGrid  ... Gauss-Chebyshev
Angular Grid (max. acc.)         AngularGrid ... Lebedev-302
Angular grid pruning method      GridPruning ... 3 (G Style)
Weight generation scheme         WeightScheme... Becke
Basis function cutoff            BFCut       ...    1.0000e-11
Integration weight cutoff        WCut        ...    1.0000e-14
Grids for H and He will be reduced by one unit

# of grid points (after initial pruning)     ...  21316 (   0.0 sec)
# of grid points (after weights+screening)   ...  21280 (   0.0 sec)
nearest neighbour list constructed           ...    0.0 sec
Grid point re-assignment to atoms done       ...    0.0 sec
Grid point division into batches done        ...    0.2 sec
Reduced shell lists constructed in    0.2 sec

Total number of grid points                  ...    21280
Total number of batches                      ...      334
Average number of points per batch           ...       63
Average number of grid points per atom       ...    10640
Average number of shells per batch           ...     2.60 ( 8.12%)
Average number of basis functions per batch  ...     5.67 ( 5.06%)
Average number of large shells per batch     ...     1.93 (74.36%)
Average number of large basis fcns per batch ...     4.33 (76.47%)
Maximum spatial batch extension              ...  31.14, 31.14, 19.99 au
Average spatial batch extension              ...   0.98,  0.98,  0.74 au

Time for grid setup =    0.218 sec

--------------
SCF ITERATIONS
--------------
ITER       Energy         Delta-E        Max-DP      RMS-DP      [F,P]     Damp
               ***  Starting incremental Fock matrix formation  ***
  0   -293.8888097159   0.000000000000 0.00005770  0.00000188  0.0017639 0.7000
  1   -293.8888097828  -0.000000066874 0.00006761  0.00000197  0.0012369 0.7000
                               ***Turning on DIIS***
  2   -293.8888098286  -0.000000045879 0.00022933  0.00000668  0.0008660 0.0000
  3   -293.8888099331  -0.000000104476 0.00002906  0.00000121  0.0000158 0.0000
  4   -293.8888099307   0.000000002366 0.00001163  0.00000063  0.0000248 0.0000
  5   -293.8888099357  -0.000000004944 0.00000225  0.00000011  0.0000017 0.0000
  6   -293.8888099358  -0.000000000125 0.00000125  0.00000006  0.0000016 0.0000
                 **** Energy Check signals convergence ****

               *****************************************************
               *                     SUCCESS                       *
               *           SCF CONVERGED AFTER   7 CYCLES          *
               *****************************************************

Total Energy       :         -293.88880994 Eh           -7997.12108 eV
  Last Energy change         ...   -7.8097e-10  Tolerance :   1.0000e-08
  Last MAX-Density change    ...    4.0346e-07  Tolerance :   1.0000e-07
             **** THE GBW FILE WAS UPDATED (Ag02N0.gbw) ****
             **** DENSITY FILE WAS UPDATED (Ag02N0.scfp) ****
             **** ENERGY FILE WAS UPDATED (Ag02N0.en.tmp) ****
             **** THE GBW FILE WAS UPDATED (Ag02N0.gbw) ****
             **** DENSITY FILE WAS UPDATED (Ag02N0.scfp) ****
Total SCF time: 0 days 0 hours 0 min 1 sec 


-------------------------------------------------------------------------------
                          DFT DISPERSION CORRECTION                            
                                                                               
                              DFTD3 V3.1  Rev 1                                
                          USING Becke-Johnson damping                          
-------------------------------------------------------------------------------
-------------------------   ----------------
Dispersion correction           -0.001943617
-------------------------   ----------------


-------------------------   --------------------
FINAL SINGLE POINT ENERGY      -293.890753553590
-------------------------   --------------------



           ************************************************************
           *        Program running with 24 parallel MPI-processes    *
           *              working on a common directory               *
           ************************************************************
------------------------------------------------------------------------------
                         ORCA SCF GRADIENT CALCULATION
------------------------------------------------------------------------------

Gradient of the Kohn-Sham DFT energy:
Kohn-Sham wavefunction type      ... RKS
Hartree-Fock exchange scaling    ...    0.000
Number of operators              ...    1
Number of atoms                  ...    2
Basis set dimensions             ...  112
Integral neglect threshold       ... 2.5e-11
Integral primitive cutoff        ... 2.5e-12

Nuclear repulsion gradient       ... done
One Electron Gradient            
  ECP gradient                   ... done
Pre-screening matrix             ... done
RI-J gradient                    ... done
Exchange-correlation gradient    ... done
Dispersion correction            ... done

------------------
CARTESIAN GRADIENT
------------------

   1   Ag  :   -0.000000004    0.000000001   -0.003760413
   2   Ag  :    0.000000002   -0.000000004    0.003760417

Difference to translation invariance:
           :   -0.0000000027   -0.0000000027    0.0000000034

Norm of the cartesian gradient     ...    0.0053180296
RMS gradient                       ...    0.0021710765
MAX gradient                       ...    0.0037604165

-------
TIMINGS
-------

Total SCF gradient time            ...        0.583 sec

One electron gradient       ....       0.293 sec  ( 50.3%)
Prescreening matrices       ....       0.004 sec  (  0.6%)
RI-J Coulomb gradient       ....       0.077 sec  ( 13.2%)
XC gradient                 ....       0.015 sec  (  2.5%)
------------------------------------------------------------------------------
                         ORCA GEOMETRY RELAXATION STEP
------------------------------------------------------------------------------

Reading the OPT-File                    .... done
Getting information on internals        .... done
Copying old internal coords+grads       .... done
Making the new internal coordinates     .... (new redundants).... done
Validating the new internal coordinates .... (new redundants).... done
Calculating the B-matrix                .... done
Calculating the G,G- and P matrices     .... done
Transforming gradient to internals      .... done
Projecting the internal gradient        .... done
Number of atoms                         ....   2
Number of internal coordinates          ....   1
Current Energy                          ....  -293.890753554 Eh
Current gradient norm                   ....     0.005318030 Eh/bohr
Maximum allowed component of the step   ....  0.300
Current trust radius                    ....  0.300
Updating the Hessian (BFGS)             .... done
Forming the augmented Hessian           .... done
Diagonalizing the augmented Hessian     .... done
Last element of RFO vector              ....  0.998921683
Lowest eigenvalues of augmented Hessian:
 -0.000174773
Length of the computed step             ....  0.046477176
The final length of the internal step   ....  0.046477176
Converting the step to cartesian space:
 Initial RMS(Int)=    0.0464771763
Transforming coordinates:
 Iter   0:  RMS(Cart)=    0.0134168051 RMS(Int)=    0.0464771763
 Iter   1:  RMS(Cart)=    0.0000000000 RMS(Int)=    0.0000000000
done
Storing new coordinates                 .... done

                                .--------------------.
          ----------------------|Geometry convergence|-------------------------
          Item                value                   Tolerance       Converged
          ---------------------------------------------------------------------
          Energy change      -0.0000167316            0.0000050000      NO
          RMS gradient        0.0037604148            0.0001000000      NO
          MAX gradient        0.0037604148            0.0003000000      NO
          RMS step            0.0464771763            0.0020000000      NO
          MAX step            0.0464771763            0.0040000000      NO
          ........................................................
          Max(Bonds)      0.0246      Max(Angles)    0.00
          Max(Dihed)        0.00      Max(Improp)    0.00
          ---------------------------------------------------------------------

The optimization has not yet converged - more geometry cycles are needed


    ---------------------------------------------------------------------------
                         Redundant Internal Coordinates
                            (Angstroem and degrees)

        Definition                    Value    dE/dq     Step     New-Value
    ----------------------------------------------------------------------------
     1. B(Ag  1,Ag  0)                2.5258 -0.003760  0.0246    2.5504   
    ----------------------------------------------------------------------------

         *************************************************************
         *                GEOMETRY OPTIMIZATION CYCLE   3            *
         *************************************************************
---------------------------------
CARTESIAN COORDINATES (ANGSTROEM)
---------------------------------
  Ag     0.000000    0.000000    1.275208
  Ag     0.000000    0.000000   -1.275208

----------------------------
CARTESIAN COORDINATES (A.U.)
----------------------------
  NO LB      ZA    FRAG     MASS         X           Y           Z
   0 Ag   19.0000*   0   107.870    0.000000    0.000000    2.409794
   1 Ag   19.0000*   0   107.870    0.000000    0.000000   -2.409794
* core charge reduced due to ECP

--------------------------------
INTERNAL COORDINATES (ANGSTROEM)
--------------------------------
 Ag     0   0   0     0.000000000000     0.00000000     0.00000000
 Ag     1   0   0     2.550415816263     0.00000000     0.00000000

---------------------------
INTERNAL COORDINATES (A.U.)
---------------------------
 Ag     0   0   0     0.000000000000     0.00000000     0.00000000
 Ag     1   0   0     4.819587420359     0.00000000     0.00000000



           ************************************************************
           *        Program running with 24 parallel MPI-processes    *
           *              working on a common directory               *
           ************************************************************
 One Electron integrals                  ... done
 Pre-screening matrix                    ... done


           ************************************************************
           *        Program running with 24 parallel MPI-processes    *
           *              working on a common directory               *
           ************************************************************

Diagonalization of the overlap matrix:
Smallest eigenvalue                        ... 4.404e-03
Time for diagonalization                   ...    0.004 sec
Threshold for overlap eigenvalues          ... 1.000e-08
Number of eigenvalues below threshold      ... 0
Time for construction of square roots      ...    0.002 sec
Total time needed                          ...    0.006 sec

-------------------
DFT GRID GENERATION
-------------------

General Integration Accuracy     IntAcc      ...  4.670
Radial Grid Type                 RadialGrid  ... Gauss-Chebyshev
Angular Grid (max. acc.)         AngularGrid ... Lebedev-302
Angular grid pruning method      GridPruning ... 3 (G Style)
Weight generation scheme         WeightScheme... Becke
Basis function cutoff            BFCut       ...    1.0000e-11
Integration weight cutoff        WCut        ...    1.0000e-14
Grids for H and He will be reduced by one unit

# of grid points (after initial pruning)     ...  21316 (   0.0 sec)
# of grid points (after weights+screening)   ...  21282 (   0.0 sec)
nearest neighbour list constructed           ...    0.0 sec
Grid point re-assignment to atoms done       ...    0.0 sec
Grid point division into batches done        ...    0.2 sec
Reduced shell lists constructed in    0.2 sec

Total number of grid points                  ...    21282
Total number of batches                      ...      334
Average number of points per batch           ...       63
Average number of grid points per atom       ...    10641
Average number of shells per batch           ...     2.60 ( 8.12%)
Average number of basis functions per batch  ...     5.53 ( 4.94%)
Average number of large shells per batch     ...     2.00 (76.92%)
Average number of large basis fcns per batch ...     4.40 (79.52%)
Maximum spatial batch extension              ...  31.14, 31.14, 19.99 au
Average spatial batch extension              ...   0.98,  0.98,  0.74 au

Time for grid setup =    0.210 sec

--------------
SCF ITERATIONS
--------------
ITER       Energy         Delta-E        Max-DP      RMS-DP      [F,P]     Damp
               ***  Starting incremental Fock matrix formation  ***
  0   -293.8888802356   0.000000000000 0.00063711  0.00002062  0.0195945 0.7000
  1   -293.8888883538  -0.000008118209 0.00074532  0.00002168  0.0137404 0.7000
                               ***Turning on DIIS***
  2   -293.8888938898  -0.000005535984 0.00215291  0.00006155  0.0096210 0.0000
  3   -293.8889065259  -0.000012636083 0.00049248  0.00001761  0.0002362 0.0000
  4   -293.8889064112   0.000000114663 0.00017926  0.00000753  0.0003754 0.0000
  5   -293.8889069104  -0.000000499199 0.00004000  0.00000129  0.0000168 0.0000
  6   -293.8889069104   0.000000000055 0.00001674  0.00000073  0.0000150 0.0000
  7   -293.8889069121  -0.000000001661 0.00000500  0.00000022  0.0000082 0.0000
                 **** Energy Check signals convergence ****

               *****************************************************
               *                     SUCCESS                       *
               *           SCF CONVERGED AFTER   8 CYCLES          *
               *****************************************************

Total Energy       :         -293.88890691 Eh           -7997.12372 eV
  Last Energy change         ...   -6.6734e-11  Tolerance :   1.0000e-08
  Last MAX-Density change    ...    8.2341e-07  Tolerance :   1.0000e-07
             **** THE GBW FILE WAS UPDATED (Ag02N0.gbw) ****
             **** DENSITY FILE WAS UPDATED (Ag02N0.scfp) ****
             **** ENERGY FILE WAS UPDATED (Ag02N0.en.tmp) ****
             **** THE GBW FILE WAS UPDATED (Ag02N0.gbw) ****
             **** DENSITY FILE WAS UPDATED (Ag02N0.scfp) ****
Total SCF time: 0 days 0 hours 0 min 1 sec 


-------------------------------------------------------------------------------
                          DFT DISPERSION CORRECTION                            
                                                                               
                              DFTD3 V3.1  Rev 1                                
                          USING Becke-Johnson damping                          
-------------------------------------------------------------------------------
-------------------------   ----------------
Dispersion correction           -0.001942898
-------------------------   ----------------


-------------------------   --------------------
FINAL SINGLE POINT ENERGY      -293.890849810344
-------------------------   --------------------



           ************************************************************
           *        Program running with 24 parallel MPI-processes    *
           *              working on a common directory               *
           ************************************************************
------------------------------------------------------------------------------
                         ORCA SCF GRADIENT CALCULATION
------------------------------------------------------------------------------

Gradient of the Kohn-Sham DFT energy:
Kohn-Sham wavefunction type      ... RKS
Hartree-Fock exchange scaling    ...    0.000
Number of operators              ...    1
Number of atoms                  ...    2
Basis set dimensions             ...  112
Integral neglect threshold       ... 2.5e-11
Integral primitive cutoff        ... 2.5e-12

Nuclear repulsion gradient       ... done
One Electron Gradient            
  ECP gradient                   ... done
Pre-screening matrix             ... done
RI-J gradient                    ... done
Exchange-correlation gradient    ... done
Dispersion correction            ... done

------------------
CARTESIAN GRADIENT
------------------

   1   Ag  :   -0.000000002    0.000000003   -0.000226864
   2   Ag  :    0.000000001   -0.000000004    0.000226864

Difference to translation invariance:
           :   -0.0000000011   -0.0000000011    0.0000000000

Norm of the cartesian gradient     ...    0.0003208341
RMS gradient                       ...    0.0001309800
MAX gradient                       ...    0.0002268640

-------
TIMINGS
-------

Total SCF gradient time            ...        0.577 sec

One electron gradient       ....       0.291 sec  ( 50.5%)
Prescreening matrices       ....       0.003 sec  (  0.6%)
RI-J Coulomb gradient       ....       0.077 sec  ( 13.4%)
XC gradient                 ....       0.014 sec  (  2.5%)
------------------------------------------------------------------------------
                         ORCA GEOMETRY RELAXATION STEP
------------------------------------------------------------------------------

Reading the OPT-File                    .... done
Getting information on internals        .... done
Copying old internal coords+grads       .... done
Making the new internal coordinates     .... (new redundants).... done
Validating the new internal coordinates .... (new redundants).... done
Calculating the B-matrix                .... done
Calculating the G,G- and P matrices     .... done
Transforming gradient to internals      .... done
Projecting the internal gradient        .... done
Number of atoms                         ....   2
Number of internal coordinates          ....   1
Current Energy                          ....  -293.890849810 Eh
Current gradient norm                   ....     0.000320834 Eh/bohr
Maximum allowed component of the step   ....  0.300
Current trust radius                    ....  0.300
Updating the Hessian (BFGS)             .... done
Forming the augmented Hessian           .... done
Diagonalizing the augmented Hessian     .... done
Last element of RFO vector              ....  0.999995548
Lowest eigenvalues of augmented Hessian:
 -0.000000677
Length of the computed step             ....  0.002983940
The final length of the internal step   ....  0.002983940
Converting the step to cartesian space:
 Initial RMS(Int)=    0.0029839401
Transforming coordinates:
 Iter   0:  RMS(Cart)=    0.0008613893 RMS(Int)=    0.0029839401
 Iter   1:  RMS(Cart)=    0.0000000000 RMS(Int)=    0.0000000000
done
Storing new coordinates                 .... done

                                .--------------------.
          ----------------------|Geometry convergence|-------------------------
          Item                value                   Tolerance       Converged
          ---------------------------------------------------------------------
          Energy change      -0.0000962568            0.0000050000      NO
          RMS gradient        0.0002268640            0.0001000000      NO
          MAX gradient        0.0002268640            0.0003000000      YES
          RMS step            0.0029839401            0.0020000000      NO
          MAX step            0.0029839401            0.0040000000      YES
          ........................................................
          Max(Bonds)      0.0016      Max(Angles)    0.00
          Max(Dihed)        0.00      Max(Improp)    0.00
          ---------------------------------------------------------------------

The optimization has not yet converged - more geometry cycles are needed


    ---------------------------------------------------------------------------
                         Redundant Internal Coordinates
                            (Angstroem and degrees)

        Definition                    Value    dE/dq     Step     New-Value
    ----------------------------------------------------------------------------
     1. B(Ag  1,Ag  0)                2.5504 -0.000227  0.0016    2.5520   
    ----------------------------------------------------------------------------

         *************************************************************
         *                GEOMETRY OPTIMIZATION CYCLE   4            *
         *************************************************************
---------------------------------
CARTESIAN COORDINATES (ANGSTROEM)
---------------------------------
  Ag     0.000000    0.000000    1.275997
  Ag     0.000000    0.000000   -1.275997

----------------------------
CARTESIAN COORDINATES (A.U.)
----------------------------
  NO LB      ZA    FRAG     MASS         X           Y           Z
   0 Ag   19.0000*   0   107.870    0.000000    0.000000    2.411286
   1 Ag   19.0000*   0   107.870    0.000000    0.000000   -2.411286
* core charge reduced due to ECP

--------------------------------
INTERNAL COORDINATES (ANGSTROEM)
--------------------------------
 Ag     0   0   0     0.000000000000     0.00000000     0.00000000
 Ag     1   0   0     2.551994849366     0.00000000     0.00000000

---------------------------
INTERNAL COORDINATES (A.U.)
---------------------------
 Ag     0   0   0     0.000000000000     0.00000000     0.00000000
 Ag     1   0   0     4.822571360479     0.00000000     0.00000000



           ************************************************************
           *        Program running with 24 parallel MPI-processes    *
           *              working on a common directory               *
           ************************************************************
 One Electron integrals                  ... done
 Pre-screening matrix                    ... done


           ************************************************************
           *        Program running with 24 parallel MPI-processes    *
           *              working on a common directory               *
           ************************************************************

Diagonalization of the overlap matrix:
Smallest eigenvalue                        ... 4.417e-03
Time for diagonalization                   ...    0.003 sec
Threshold for overlap eigenvalues          ... 1.000e-08
Number of eigenvalues below threshold      ... 0
Time for construction of square roots      ...    0.002 sec
Total time needed                          ...    0.004 sec

-------------------
DFT GRID GENERATION
-------------------

General Integration Accuracy     IntAcc      ...  4.670
Radial Grid Type                 RadialGrid  ... Gauss-Chebyshev
Angular Grid (max. acc.)         AngularGrid ... Lebedev-302
Angular grid pruning method      GridPruning ... 3 (G Style)
Weight generation scheme         WeightScheme... Becke
Basis function cutoff            BFCut       ...    1.0000e-11
Integration weight cutoff        WCut        ...    1.0000e-14
Grids for H and He will be reduced by one unit

# of grid points (after initial pruning)     ...  21316 (   0.0 sec)
# of grid points (after weights+screening)   ...  21282 (   0.0 sec)
nearest neighbour list constructed           ...    0.0 sec
Grid point re-assignment to atoms done       ...    0.0 sec
Grid point division into batches done        ...    0.2 sec
Reduced shell lists constructed in    0.2 sec

Total number of grid points                  ...    21282
Total number of batches                      ...      334
Average number of points per batch           ...       63
Average number of grid points per atom       ...    10641
Average number of shells per batch           ...     2.60 ( 8.12%)
Average number of basis functions per batch  ...     5.67 ( 5.06%)
Average number of large shells per batch     ...     1.93 (74.36%)
Average number of large basis fcns per batch ...     4.33 (76.47%)
Maximum spatial batch extension              ...  31.14, 31.14, 19.99 au
Average spatial batch extension              ...   0.98,  0.98,  0.74 au

Time for grid setup =    0.215 sec

--------------
SCF ITERATIONS
--------------
ITER       Energy         Delta-E        Max-DP      RMS-DP      [F,P]     Damp
               ***  Starting incremental Fock matrix formation  ***
  0   -293.8889074437   0.000000000000 0.00004017  0.00000130  0.0012355 0.7000
  1   -293.8889074760  -0.000000032347 0.00004695  0.00000137  0.0008664 0.7000
                               ***Turning on DIIS***
  2   -293.8889075004  -0.000000024402 0.00015807  0.00000463  0.0006066 0.0000
  3   -293.8889075514  -0.000000050934 0.00002028  0.00000085  0.0000112 0.0000
  4   -293.8889075494   0.000000002005 0.00000835  0.00000044  0.0000177 0.0000
  5   -293.8889075525  -0.000000003089 0.00000151  0.00000008  0.0000012 0.0000
  6   -293.8889075524   0.000000000034 0.00000086  0.00000004  0.0000011 0.0000
                 **** Energy Check signals convergence ****

               *****************************************************
               *                     SUCCESS                       *
               *           SCF CONVERGED AFTER   7 CYCLES          *
               *****************************************************

Total Energy       :         -293.88890755 Eh           -7997.12374 eV
  Last Energy change         ...   -5.0954e-10  Tolerance :   1.0000e-08
  Last MAX-Density change    ...    2.2367e-07  Tolerance :   1.0000e-07
             **** THE GBW FILE WAS UPDATED (Ag02N0.gbw) ****
             **** DENSITY FILE WAS UPDATED (Ag02N0.scfp) ****
             **** ENERGY FILE WAS UPDATED (Ag02N0.en.tmp) ****
             **** THE GBW FILE WAS UPDATED (Ag02N0.gbw) ****
             **** DENSITY FILE WAS UPDATED (Ag02N0.scfp) ****
Total SCF time: 0 days 0 hours 0 min 1 sec 


-------------------------------------------------------------------------------
                          DFT DISPERSION CORRECTION                            
                                                                               
                              DFTD3 V3.1  Rev 1                                
                          USING Becke-Johnson damping                          
-------------------------------------------------------------------------------
-------------------------   ----------------
Dispersion correction           -0.001942856
-------------------------   ----------------


-------------------------   --------------------
FINAL SINGLE POINT ENERGY      -293.890850408998
-------------------------   --------------------



           ************************************************************
           *        Program running with 24 parallel MPI-processes    *
           *              working on a common directory               *
           ************************************************************
------------------------------------------------------------------------------
                         ORCA SCF GRADIENT CALCULATION
------------------------------------------------------------------------------

Gradient of the Kohn-Sham DFT energy:
Kohn-Sham wavefunction type      ... RKS
Hartree-Fock exchange scaling    ...    0.000
Number of operators              ...    1
Number of atoms                  ...    2
Basis set dimensions             ...  112
Integral neglect threshold       ... 2.5e-11
Integral primitive cutoff        ... 2.5e-12

Nuclear repulsion gradient       ... done
One Electron Gradient            
  ECP gradient                   ... done
Pre-screening matrix             ... done
RI-J gradient                    ... done
Exchange-correlation gradient    ... done
Dispersion correction            ... done

------------------
CARTESIAN GRADIENT
------------------

   1   Ag  :   -0.000000003   -0.000000005   -0.000013694
   2   Ag  :   -0.000000000    0.000000001    0.000013706

Difference to translation invariance:
           :   -0.0000000034   -0.0000000042    0.0000000122

Norm of the cartesian gradient     ...    0.0000193744
RMS gradient                       ...    0.0000079096
MAX gradient                       ...    0.0000137059

-------
TIMINGS
-------

Total SCF gradient time            ...        0.569 sec

One electron gradient       ....       0.282 sec  ( 49.6%)
Prescreening matrices       ....       0.004 sec  (  0.6%)
RI-J Coulomb gradient       ....       0.077 sec  ( 13.5%)
XC gradient                 ....       0.015 sec  (  2.6%)
------------------------------------------------------------------------------
                         ORCA GEOMETRY RELAXATION STEP
------------------------------------------------------------------------------

Reading the OPT-File                    .... done
Getting information on internals        .... done
Copying old internal coords+grads       .... done
Making the new internal coordinates     .... (new redundants).... done
Validating the new internal coordinates .... (new redundants).... done
Calculating the B-matrix                .... done
Calculating the G,G- and P matrices     .... done
Transforming gradient to internals      .... done
Projecting the internal gradient        .... done
Number of atoms                         ....   2
Number of internal coordinates          ....   1
Current Energy                          ....  -293.890850409 Eh
Current gradient norm                   ....     0.000019374 Eh/bohr
Maximum allowed component of the step   ....  0.300
Current trust radius                    ....  0.300
Updating the Hessian (BFGS)             .... done
Forming the augmented Hessian           .... done
Diagonalizing the augmented Hessian     .... done
Last element of RFO vector              ....  0.999999982
Lowest eigenvalues of augmented Hessian:
 -0.000000003
Length of the computed step             ....  0.000191774
The final length of the internal step   ....  0.000191774
Converting the step to cartesian space:
 Initial RMS(Int)=    0.0001917741
Transforming coordinates:
 Iter   0:  RMS(Cart)=    0.0000553604 RMS(Int)=    0.0001917741
 Iter   1:  RMS(Cart)=    0.0000000000 RMS(Int)=    0.0000000000
done
Storing new coordinates                 .... done

                                .--------------------.
          ----------------------|Geometry convergence|-------------------------
          Item                value                   Tolerance       Converged
          ---------------------------------------------------------------------
          Energy change      -0.0000005987            0.0000050000      YES
          RMS gradient        0.0000136998            0.0001000000      YES
          MAX gradient        0.0000136998            0.0003000000      YES
          RMS step            0.0001917741            0.0020000000      YES
          MAX step            0.0001917741            0.0040000000      YES
          ........................................................
          Max(Bonds)      0.0001      Max(Angles)    0.00
          Max(Dihed)        0.00      Max(Improp)    0.00
          ---------------------------------------------------------------------

                    ***********************HURRAY********************
                    ***        THE OPTIMIZATION HAS CONVERGED     ***
                    *************************************************


    ---------------------------------------------------------------------------
                         Redundant Internal Coordinates

                          --- Optimized Parameters ---  
                            (Angstroem and degrees)

        Definition                    OldVal   dE/dq     Step     FinalVal
    ----------------------------------------------------------------------------
     1. B(Ag  1,Ag  0)                2.5520 -0.000014  0.0001    2.5521   
    ----------------------------------------------------------------------------
                 *******************************************************
                 *** FINAL ENERGY EVALUATION AT THE STATIONARY POINT ***
                 ***               (AFTER    4 CYCLES)               ***
                 *******************************************************
---------------------------------
CARTESIAN COORDINATES (ANGSTROEM)
---------------------------------
  Ag     0.000000    0.000000    1.276048
  Ag     0.000000    0.000000   -1.276048

----------------------------
CARTESIAN COORDINATES (A.U.)
----------------------------
  NO LB      ZA    FRAG     MASS         X           Y           Z
   0 Ag   19.0000*   0   107.870    0.000000    0.000000    2.411382
   1 Ag   19.0000*   0   107.870    0.000000    0.000000   -2.411382
* core charge reduced due to ECP

--------------------------------
INTERNAL COORDINATES (ANGSTROEM)
--------------------------------
 Ag     0   0   0     0.000000000000     0.00000000     0.00000000
 Ag     1   0   0     2.552096331873     0.00000000     0.00000000

---------------------------
INTERNAL COORDINATES (A.U.)
---------------------------
 Ag     0   0   0     0.000000000000     0.00000000     0.00000000
 Ag     1   0   0     4.822763134626     0.00000000     0.00000000

---------------------
BASIS SET INFORMATION
---------------------
There are 1 groups of distinct atoms

 Group   1 Type Ag  : 7s7p6d2f1g contracted to 6s4p3d2f1g pattern {211111/4111/411/11/1}

Atom   0Ag   basis set group =>   1
Atom   1Ag   basis set group =>   1
---------------------------------
AUXILIARY/J BASIS SET INFORMATION
---------------------------------
There are 1 groups of distinct atoms

 Group   1 Type Ag  : 11s5p5d3f3g contracted to 8s5p5d2f3g pattern {41111111/11111/11111/21/111}

Atom   0Ag   basis set group =>   1
Atom   1Ag   basis set group =>   1
-------------------------
ECP PARAMETER INFORMATION
-------------------------

 Group 1, Type Ag ECP Def2-ECP (replacing 28 core electrons, lmax=3)

Atom   0Ag   ECP group =>   1
Atom   1Ag   ECP group =>   1



           ************************************************************
           *        Program running with 24 parallel MPI-processes    *
           *              working on a common directory               *
           ************************************************************
------------------------------------------------------------------------------
                           ORCA GTO INTEGRAL CALCULATION
                           -- RI-GTO INTEGRALS CHOSEN --
------------------------------------------------------------------------------

                         BASIS SET STATISTICS AND STARTUP INFO

Gaussian basis set:
 # of primitive gaussian shells          ...   46
 # of primitive gaussian functions       ...  162
 # of contracted shells                  ...   32
 # of contracted basis functions         ...  112
 Highest angular momentum                ...    4
 Maximum contraction depth               ...    4
Auxiliary gaussian basis set:
 # of primitive gaussian shells          ...   54
 # of primitive gaussian functions       ...  198
 # of contracted shells                  ...   46
 # of contracted aux-basis functions     ...  178
 Highest angular momentum                ...    4
 Maximum contraction depth               ...    4
Ratio of auxiliary to basis functions    ...  1.59
Integral package used                  ... LIBINT
 One Electron integrals                  
   ECP integrals                         ... done
 Ordering auxiliary basis shells         ... done
 Integral threshhold             Thresh  ...  2.500e-11
 Primitive cut-off               TCut    ...  2.500e-12
[...]
  69   0.0000       2.024382        55.0862 
  70   0.0000       2.024396        55.0866 
  71   0.0000       2.087317        56.7988 
  72   0.0000       2.087317        56.7988 
  73   0.0000       2.090670        56.8900 
  74   0.0000       2.246821        61.1391 
  75   0.0000       2.293430        62.4074 
  76   0.0000       4.696348       127.7941 
  77   0.0000       4.696348       127.7941 
  78   0.0000       4.699403       127.8772 
  79   0.0000       4.734194       128.8240 
  80   0.0000       4.734579       128.8344 
  81   0.0000       4.745481       129.1311 
  82   0.0000       4.745481       129.1311 
  83   0.0000       4.747154       129.1766 
  84   0.0000       4.747154       129.1766 
  85   0.0000       4.758151       129.4759 
  86   0.0000       4.758538       129.4864 
  87   0.0000       4.839025       131.6766 
  88   0.0000       4.839025       131.6766 
  89   0.0000       5.035406       137.0204 
  90   0.0000       5.517575       150.1408 
  91   0.0000       5.517575       150.1408 
  92   0.0000       5.519253       150.1865 
  93   0.0000       5.519733       150.1996 
  94   0.0000       5.519767       150.2005 
  95   0.0000       5.520157       150.2111 
  96   0.0000       5.520186       150.2119 
  97   0.0000       5.521647       150.2517 
  98   0.0000       5.521647       150.2517 
  99   0.0000       5.521925       150.2592 
 100   0.0000       5.521925       150.2592 
 101   0.0000       5.521962       150.2602 
 102   0.0000       5.521962       150.2602 
 103   0.0000       5.523949       150.3143 
 104   0.0000       5.523952       150.3144 
 105   0.0000       5.524765       150.3365 
 106   0.0000       5.524765       150.3365 
 107   0.0000       5.533864       150.5841 
 108   0.0000      33.224687       904.0897 
 109   0.0000      33.470750       910.7854 
 110   0.0000     110.688760      3011.9943 
 111   0.0000     110.767833      3014.1460 

                    ********************************
                    * MULLIKEN POPULATION ANALYSIS *
                    ********************************

-----------------------
MULLIKEN ATOMIC CHARGES
-----------------------
   0 Ag:    0.000000
   1 Ag:   -0.000000
Sum of atomic charges:   -0.0000000

--------------------------------
MULLIKEN REDUCED ORBITAL CHARGES
--------------------------------
  0 Ags       :     3.004592  s :     3.004592
      pz      :     2.025223  p :     6.045102
      px      :     2.009939
      py      :     2.009939
      dz2     :     1.969509  d :     9.948794
      dxz     :     1.989700
      dyz     :     1.989700
      dx2y2   :     1.999942
      dxy     :     1.999942
      f0      :     0.000666  f :     0.001493
      f+1     :     0.000356
      f-1     :     0.000356
      f+2     :     0.000057
      f-2     :     0.000057
      f+3     :     0.000000
      f-3     :     0.000000
      g0      :     0.000008  g :     0.000018
      g+1     :     0.000004
      g-1     :     0.000004
      g+2     :     0.000001
      g-2     :     0.000001
      g+3     :     0.000000
      g-3     :     0.000000
      g+4     :     0.000000
      g-4     :     0.000000
  1 Ags       :     3.004593  s :     3.004593
      pz      :     2.025223  p :     6.045102
      px      :     2.009939
      py      :     2.009939
      dz2     :     1.969509  d :     9.948794
      dxz     :     1.989700
      dyz     :     1.989700
      dx2y2   :     1.999942
      dxy     :     1.999942
      f0      :     0.000666  f :     0.001493
      f+1     :     0.000356
      f-1     :     0.000356
      f+2     :     0.000057
      f-2     :     0.000057
      f+3     :     0.000000
      f-3     :     0.000000
      g0      :     0.000008  g :     0.000018
      g+1     :     0.000004
      g-1     :     0.000004
      g+2     :     0.000001
      g-2     :     0.000001
      g+3     :     0.000000
      g-3     :     0.000000
      g+4     :     0.000000
      g-4     :     0.000000


                     *******************************
                     * LOEWDIN POPULATION ANALYSIS *
                     *******************************

----------------------
LOEWDIN ATOMIC CHARGES
----------------------
   0 Ag:    0.000000
   1 Ag:   -0.000000

-------------------------------
LOEWDIN REDUCED ORBITAL CHARGES
-------------------------------
  0 Ags       :     2.923099  s :     2.923099
      pz      :     2.084576  p :     6.108170
      px      :     2.011797
      py      :     2.011797
      dz2     :     1.991438  d :     9.966701
      dxz     :     1.987698
      dyz     :     1.987698
      dx2y2   :     1.999934
      dxy     :     1.999934
      f0      :     0.000877  f :     0.002007
      f+1     :     0.000500
      f-1     :     0.000500
      f+2     :     0.000065
      f-2     :     0.000065
      f+3     :     0.000000
      f-3     :     0.000000
      g0      :     0.000010  g :     0.000024
      g+1     :     0.000006
      g-1     :     0.000006
      g+2     :     0.000001
      g-2     :     0.000001
      g+3     :     0.000000
      g-3     :     0.000000
      g+4     :     0.000000
      g-4     :     0.000000
  1 Ags       :     2.923099  s :     2.923099
      pz      :     2.084576  p :     6.108170
      px      :     2.011797
      py      :     2.011797
      dz2     :     1.991438  d :     9.966701
      dxz     :     1.987698
      dyz     :     1.987698
      dx2y2   :     1.999934
      dxy     :     1.999934
      f0      :     0.000877  f :     0.002007
      f+1     :     0.000500
      f-1     :     0.000500
      f+2     :     0.000065
      f-2     :     0.000065
      f+3     :     0.000000
      f-3     :     0.000000
      g0      :     0.000010  g :     0.000024
      g+1     :     0.000006
      g-1     :     0.000006
      g+2     :     0.000001
      g-2     :     0.000001
      g+3     :     0.000000
      g-3     :     0.000000
      g+4     :     0.000000
      g-4     :     0.000000


                      *****************************
                      * MAYER POPULATION ANALYSIS *
                      *****************************

  NA   - Mulliken gross atomic population
  ZA   - Total nuclear charge
  QA   - Mulliken gross atomic charge
  VA   - Mayer's total valence
  BVA  - Mayer's bonded valence
  FA   - Mayer's free valence

  ATOM       NA         ZA         QA         VA         BVA        FA
  0 Ag    19.0000    19.0000     0.0000     1.0672     1.0672     0.0000
  1 Ag    19.0000    19.0000    -0.0000     1.0672     1.0672     0.0000

  Mayer bond orders larger than 0.100000
B(  0-Ag,  1-Ag) :   1.0672 

-------
TIMINGS
-------

Total SCF time: 0 days 0 hours 0 min 0 sec 

Total time                  ....       0.565 sec
Sum of individual times     ....       0.457 sec  ( 80.8%)

Fock matrix formation       ....       0.226 sec  ( 39.9%)
  Split-RI-J                ....       0.167 sec  ( 74.2% of F)
  XC integration            ....       0.033 sec  ( 14.5% of F)
    Basis function eval.    ....       0.003 sec  ( 10.5% of XC)
    Density eval.           ....       0.005 sec  ( 15.5% of XC)
    XC-Functional eval.     ....       0.003 sec  (  9.4% of XC)
    XC-Potential eval.      ....       0.008 sec  ( 23.2% of XC)
Diagonalization             ....       0.003 sec  (  0.6%)
Density matrix formation    ....       0.001 sec  (  0.2%)
Population analysis         ....       0.003 sec  (  0.6%)
Initial guess               ....       0.006 sec  (  1.1%)
Orbital Transformation      ....       0.000 sec  (  0.0%)
Orbital Orthonormalization  ....       0.003 sec  (  0.5%)
DIIS solution               ....       0.000 sec  (  0.1%)
Grid generation             ....       0.218 sec  ( 38.5%)


-------------------------------------------------------------------------------
                          DFT DISPERSION CORRECTION                            
                                                                               
                              DFTD3 V3.1  Rev 1                                
                          USING Becke-Johnson damping                          
-------------------------------------------------------------------------------
The TPSS functional is recognized
Active option DFTDOPT                   ...         4   

molecular C6(AA) [au] = 1086.976645 


            DFT-D V3
 parameters
 s6 scaling factor         :     1.0000 
 a1 scaling factor         :     0.4535 
 s8 scaling factor         :     1.9435 
 a2 scaling factor         :     4.4752 
 ad hoc parameters k1-k3   :    16.0000     1.3333    -4.0000 

 Edisp/kcal,au: -1.219159023128  -0.001942853365 
 E6   /kcal   :  -0.369517242 
 E8   /kcal   :  -0.849641781 
 % E8         :  69.690808582 

-------------------------   ----------------
Dispersion correction           -0.001942853
-------------------------   ----------------


-------------------------   --------------------
FINAL SINGLE POINT ENERGY      -293.890850436719
-------------------------   --------------------

                                *** OPTIMIZATION RUN DONE ***

                            ***************************************
                            *     ORCA property calculations      *
                            ***************************************

                                    ---------------------
                                    Active property flags
                                    ---------------------
   (+) Dipole Moment


------------------------------------------------------------------------------
                       ORCA ELECTRIC PROPERTIES CALCULATION
------------------------------------------------------------------------------

Dipole Moment Calculation                       ... on
Quadrupole Moment Calculation                   ... off
Polarizability Calculation                      ... off
GBWName                                         ... Ag02N0.gbw
Electron density file                           ... Ag02N0.scfp
The origin for moment calculation is the CENTER OF MASS  = ( 0.000000,  0.000000  0.000000)

-------------
DIPOLE MOMENT
-------------
                                X             Y             Z
Electronic contribution:      0.00000       0.00000       0.00000
Nuclear contribution   :      0.00000       0.00000       0.00000
                        -----------------------------------------
Total Dipole Moment    :      0.00000       0.00000       0.00000
                        -----------------------------------------
Magnitude (a.u.)       :      0.00000
Magnitude (Debye)      :      0.00000



--------------------
Rotational spectrum 
--------------------
 
Rotational constants in cm-1:     0.000000     0.047988     0.047988 
Rotational constants in MHz :     0.000000  1438.642196  1438.642196 

 Dipole components along the rotational axes: 
x,y,z [a.u.] :     0.000000     0.000000     0.000000 
x,y,z [Debye]:     0.000000     0.000000     0.000000 

 

----------------------------------------------------------------------------
                           ORCA NUMERICAL FREQUENCIES
                              (24-process run)
----------------------------------------------------------------------------

Number of atoms                ... 2
Central differences            ... used
Number of displacements        ... 12
Numerical increment            ... 5.000e-03 bohr
IR-spectrum generation         ... on
Raman-spectrum generation      ... off
Surface Crossing Hessian       ... off

 WARNING: There are more processes than displacements to do
  ====> : Reducing number of processes to   6

The output will be reduced. Please look at the following files:
SCF program output             ... >Ag02N0.lastscf
Integral program output        ... >Ag02N0.lastint
Gradient program output        ... >Ag02N0.lastgrad
Dipole moment program output   ... >Ag02N0.lastmom
AutoCI program output          ... >Ag02N0.lastautoci


         <<< Energy and Gradient at the input geometry >>>

        <<< Energy and Gradient at displaced geometries >>>
             <<<Displacing   1/coordinate 1 (+)>>>
             <<<Displacing   2/coordinate 1 (+)>>>
             <<<Displacing   1/coordinate 3 (+)>>>
             <<<Displacing   2/coordinate 3 (+)>>>
             <<<Displacing   2/coordinate 2 (+)>>>
             <<<Displacing   1/coordinate 2 (+)>>>
             <<<Displacing   2/coordinate 1 (-)>>>
             <<<Displacing   1/coordinate 1 (-)>>>
             <<<Displacing   2/coordinate 2 (-)>>>
             <<<Displacing   1/coordinate 2 (-)>>>
             <<<Displacing   2/coordinate 3 (-)>>>
             <<<Displacing   1/coordinate 3 (-)>>>
Warning: T+R mode no 5 is zero 

-----------------------
VIBRATIONAL FREQUENCIES
-----------------------

Scaling factor for frequencies =  1.000000000 (already applied!)

   0:         0.00 cm**-1
   1:         0.00 cm**-1
   2:         0.00 cm**-1
   3:         0.00 cm**-1
   4:         0.00 cm**-1
   5:       186.68 cm**-1


------------
NORMAL MODES
------------

These modes are the cartesian displacements weighted by the diagonal matrix
M(i,i)=1/sqrt(m[i]) where m[i] is the mass of the displaced atom
Thus, these vectors are normalized but *not* orthogonal

                  0          1          2          3          4          5    
      0       0.000000   0.000000   0.000000   0.000000   0.000000   0.000000
      1       0.000000   0.000000   0.000000   0.000000   0.000000   0.000000
      2       0.000000   0.000000   0.000000   0.000000   0.000000   0.707107
      3       0.000000   0.000000   0.000000   0.000000   0.000000   0.000000
      4       0.000000   0.000000   0.000000   0.000000   0.000000   0.000000
      5       0.000000   0.000000   0.000000   0.000000   0.000000  -0.707107


-----------
IR SPECTRUM  
-----------

 Mode    freq (cm**-1)   T**2         TX         TY         TZ
-------------------------------------------------------------------
   5:       186.68    0.000000  (  0.000013   0.000006  -0.000021)

The first frequency considered to be a vibration is 5
The total number of vibrations considered is 1


--------------------------
THERMOCHEMISTRY AT 298.15K
--------------------------

Temperature         ... 298.15 K
Pressure            ... 1.00 atm
Total Mass          ... 215.74 AMU
The molecule is recognized as being linear

Throughout the following assumptions are being made:
  (1) The electronic state is orbitally nondegenerate
  (2) There are no thermally accessible electronically excited states
  (3) Hindered rotations indicated by low frequency modes are not
      treated as such but are treated as vibrations and this may
      cause some error
  (4) All equations used are the standard statistical mechanics
      equations for an ideal gas
  (5) All vibrations are strictly harmonic

freq.     186.68  E(vib)   ...       0.37 

------------
INNER ENERGY
------------

The inner energy is: U= E(el) + E(ZPE) + E(vib) + E(rot) + E(trans)
    E(el)   - is the total energy from the electronic structure calculation
              = E(kin-el) + E(nuc-el) + E(el-el) + E(nuc-nuc)
    E(ZPE)  - the the zero temperature vibrational energy from the frequency calculation
    E(vib)  - the the finite temperature correction to E(ZPE) due to population
              of excited vibrational states
    E(rot)  - is the rotational thermal energy
    E(trans)- is the translational thermal energy

Summary of contributions to the inner energy U:
Electronic energy                ...   -293.89085044 Eh
Zero point energy                ...      0.00042528 Eh       0.27 kcal/mol
Thermal vibrational correction   ...      0.00058193 Eh       0.37 kcal/mol
Thermal rotational correction    ...      0.00094418 Eh       0.59 kcal/mol
Thermal translational correction ...      0.00141627 Eh       0.89 kcal/mol
-----------------------------------------------------------------------
Total thermal energy                   -293.88748277 Eh


Summary of corrections to the electronic energy:
(perhaps to be used in another calculation)
Total thermal correction                  0.00294238 Eh       1.85 kcal/mol
Non-thermal (ZPE) correction              0.00042528 Eh       0.27 kcal/mol
-----------------------------------------------------------------------
Total correction                          0.00336766 Eh       2.11 kcal/mol


--------
ENTHALPY
--------

The enthalpy is H = U + kB*T
                kB is Boltzmann's constant
Total free energy                 ...   -293.88748277 Eh 
Thermal Enthalpy correction       ...      0.00094421 Eh       0.59 kcal/mol
-----------------------------------------------------------------------
Total Enthalpy                    ...   -293.88653856 Eh


Note: Rotational entropy computed according to Herzberg 
Infrared and Raman Spectra, Chapter V,1, Van Nostrand Reinhold, 1945 
Point Group:  Dinfh, Symmetry Number:   2  
Rotational constants in cm-1:     0.000000     0.047988     0.047988 

Vibrational entropy computed according to the QRRHO of S. Grimme
Chem.Eur.J. 2012 18 9955


-------
ENTROPY
-------

The entropy contributions are T*S = T*(S(el)+S(vib)+S(rot)+S(trans))
     S(el)   - electronic entropy
     S(vib)  - vibrational entropy
     S(rot)  - rotational entropy
     S(trans)- translational entropy
The entropies will be listed as mutliplied by the temperature to get
units of energy

Electronic entropy                ...      0.00000000 Eh      0.00 kcal/mol
Vibrational entropy               ...      0.00107316 Eh      0.67 kcal/mol
Rotational entropy                ...      0.00819310 Eh      5.14 kcal/mol
Translational entropy             ...      0.01996022 Eh     12.53 kcal/mol
-----------------------------------------------------------------------
Final entropy term                ...      0.02922648 Eh     18.34 kcal/mol

In case the symmetry of your molecule has not been determined correctly
or in case you have a reason to use a different symmetry number we print 
out the resulting rotational entropy values for sn=1,12 :
 --------------------------------------------------------
|  sn= 1 | S(rot)=             -inf Eh      -inf kcal/mol|
|  sn= 2 | S(rot)=             -inf Eh      -inf kcal/mol|
|  sn= 3 | S(rot)=             -inf Eh      -inf kcal/mol|
|  sn= 4 | S(rot)=             -inf Eh      -inf kcal/mol|
|  sn= 5 | S(rot)=             -inf Eh      -inf kcal/mol|
|  sn= 6 | S(rot)=             -inf Eh      -inf kcal/mol|
|  sn= 7 | S(rot)=             -inf Eh      -inf kcal/mol|
|  sn= 8 | S(rot)=             -inf Eh      -inf kcal/mol|
|  sn= 9 | S(rot)=             -inf Eh      -inf kcal/mol|
|  sn=10 | S(rot)=             -inf Eh      -inf kcal/mol|
|  sn=11 | S(rot)=             -inf Eh      -inf kcal/mol|
|  sn=12 | S(rot)=             -inf Eh      -inf kcal/mol|
 --------------------------------------------------------


-------------------
GIBBS FREE ENERGY
-------------------

The Gibbs free energy is G = H - T*S

Total enthalpy                    ...   -293.88653856 Eh 
Total entropy correction          ...     -0.02922648 Eh    -18.34 kcal/mol
-----------------------------------------------------------------------
Final Gibbs free energy         ...   -293.91576505 Eh

For completeness - the Gibbs free energy minus the electronic energy
G-E(el)                           ...     -0.02491461 Eh    -15.63 kcal/mol


Total Time for Numerical Frequencies  :        13.572 sec

Timings for individual modules:

Sum of individual times         ...       19.061 sec (=   0.318 min)
GTO integral calculation        ...        3.933 sec (=   0.066 min)  20.6 %
SCF iterations                  ...       10.264 sec (=   0.171 min)  53.8 %
SCF Gradient evaluation         ...        4.724 sec (=   0.079 min)  24.8 %
Geometry relaxation             ...        0.141 sec (=   0.002 min)   0.7 %
                             ****ORCA TERMINATED NORMALLY****
TOTAL RUN TIME: 0 days 0 hours 0 minutes 30 seconds 798 msec
