
                                 *****************
                                 * O   R   C   A *
                                 *****************

           --- An Ab Initio, DFT and Semiempirical electronic structure package ---

                  #######################################################
                  #                        -***-                        #
                  #          Department of theory and spectroscopy      #
                  #               Directorship: Frank Neese             #
                  #        Max Planck Institute fuer Kohlenforschung    #
                  #                Kaiser Wilhelm Platz 1               #
                  #                 D-45470 Muelheim/Ruhr               #
                  #                      Germany                        #
                  #                                                     #
                  #                  All rights reserved                #
                  #                        -***-                        #
                  #######################################################


                         Program Version 4.2.0 -  RELEASE  -


 With contributions from (in alphabetic order):
   Daniel Aravena         : Magnetic Suceptibility
   Michael Atanasov       : Ab Initio Ligand Field Theory (pilot matlab implementation)
   Alexander A. Auer      : GIAO ZORA, VPT2
   Ute Becker             : Parallelization
   Giovanni Bistoni       : ED, misc. LED, open-shell LED, HFLED
   Martin Brehm           : Molecular dynamics
   Dmytro Bykov           : SCF Hessian
   Vijay G. Chilkuri      : MRCI spin determinant printing, contributions to CSF-ICE
   Dipayan Datta          : RHF DLPNO-CCSD density
   Achintya Kumar Dutta   : EOM-CC, STEOM-CC
   Dmitry Ganyushin       : Spin-Orbit,Spin-Spin,Magnetic field MRCI
   Miquel Garcia          : C-PCM Hessian, Gaussian charge scheme
   Yang Guo               : DLPNO-NEVPT2, CIM, IAO-localization
   Andreas Hansen         : Spin unrestricted coupled pair/coupled cluster methods
   Benjamin Helmich-Paris : CASSCF linear response (MC-RPA)
   Lee Huntington         : MR-EOM, pCC
   Robert Izsak           : Overlap fitted RIJCOSX, COSX-SCS-MP3, EOM
   Christian Kollmar      : KDIIS, OOCD, Brueckner-CCSD(T), CCSD density
   Simone Kossmann        : Meta GGA functionals, TD-DFT gradient, OOMP2, MP2 Hessian
   Martin Krupicka        : AUTO-CI
   Lucas Lang             : DCDCAS
   Dagmar Lenk            : GEPOL surface, SMD
   Dimitrios Liakos       : Extrapolation schemes; Compound Job, initial MDCI parallelization
   Dimitrios Manganas     : Further ROCIS development; embedding schemes
   Dimitrios Pantazis     : SARC Basis sets
   Taras Petrenko         : DFT Hessian,TD-DFT gradient, ASA, ECA, R-Raman, ABS, FL, XAS/XES, NRVS
   Peter Pinski           : DLPNO-MP2, DLPNO-MP2 Gradient
   Christoph Reimann      : Effective Core Potentials
   Marius Retegan         : Local ZFS, SOC
   Christoph Riplinger    : Optimizer, TS searches, QM/MM, DLPNO-CCSD(T), (RO)-DLPNO pert. Triples
   Tobias Risthaus        : Range-separated hybrids, TD-DFT gradient, RPA, STAB
   Michael Roemelt        : Original ROCIS implementation
   Masaaki Saitow         : Open-shell DLPNO-CCSD energy and density
   Barbara Sandhoefer     : DKH picture change effects
   Avijit Sen             : IP-ROCIS
   Kantharuban Sivalingam : CASSCF convergence, NEVPT2, FIC-MRCI
   Bernardo de Souza      : ESD, SOC TD-DFT
   Georgi Stoychev        : AutoAux, RI-MP2 NMR
   Willem Van den Heuvel  : Paramagnetic NMR
   Boris Wezisla          : Elementary symmetry handling
   Frank Wennmohs         : Technical directorship


 We gratefully acknowledge several colleagues who have allowed us to
 interface, adapt or use parts of their codes:
   Stefan Grimme, W. Hujo, H. Kruse,             : VdW corrections, initial TS optimization,
                  C. Bannwarth                     DFT functionals, gCP, sTDA/sTD-DF
   Ed Valeev, F. Pavosevic, A. Kumar             : LibInt (2-el integral package), F12 methods
   Garnet Chan, S. Sharma, J. Yang, R. Olivares  : DMRG
   Ulf Ekstrom                                   : XCFun DFT Library
   Mihaly Kallay                                 : mrcc  (arbitrary order and MRCC methods)
   Andreas Klamt, Michael Diedenhofen            : otool_cosmo (COSMO solvation model)
   Jiri Pittner, Ondrej Demel                    : Mk-CCSD
   Frank Weinhold                                : gennbo (NPA and NBO analysis)
   Christopher J. Cramer and Donald G. Truhlar   : smd solvation model
   Lars Goerigk                                  : TD-DFT with DH, B97 family of functionals
   V. Asgeirsson, H. Jonsson                     : NEB implementation
   FAccTs GmbH                                   : IRC, NEB, NEB-TS, Multilevel, MM, QM/MM, CI optimization
   S Lehtola, MJT Oliveira, MAL Marques          : LibXC Library


 Your calculation uses the libint2 library for the computation of 2-el integrals
 For citations please refer to: http://libint.valeyev.net

 Your ORCA version has been built with support for libXC version: 4.2.3
 For citations please refer to: https://tddft.org/programs/libxc/

 This ORCA versions uses:
   CBLAS   interface :  Fast vector & matrix operations
   LAPACKE interface :  Fast linear algebra routines
   SCALAPACK package :  Parallel linear algebra routines


Your calculation utilizes the atom-pairwise dispersion correction
with the Becke-Johnson damping scheme (D3BJ)
Cite in your paper:
S.Grimme, S.Ehrlich, L.Goerigk, J Comput Chem, (2011), 32, 1456–1465 
S.Grimme, J.Antony, S.Ehrlich and H.Krieg, J.Chem.Phys., 132, (2010), 154104 
   

----- Orbital basis set information -----
Your calculation utilizes the basis: def2-TZVPPD
   F. Weigend and R. Ahlrichs, Phys. Chem. Chem. Phys. 7, 3297 (2005).
   D. Rappoport and F. Furche, J. Chem. Phys. 133 134105 (2010).

----- AuxJ basis set information -----
Your calculation utilizes the auxiliary basis: def2/J
   F. Weigend, Phys. Chem. Chem. Phys. 8, 1057 (2006).

cite the ECPs for Ag [Def2-ECP] as follows:
Ce-Yb(ecp-28): M. Dolg, H. Stoll, H.Preuss, J. Chem. Phys., 1989, 90, 1730-1734.
Y-Cd(ecp-28), Hf-Hg(ecp-46): D. Andrae,U. Haeussermann, M. Dolg, H. Stoll, H. Preuss, Theor. Chim. Acta, 1990, 77, 123-141.
In-Sb(ecp-28), Tl-Bi(ecp-46): B. Metz, H. Stoll, M. Dolg, J. Chem. Phys., 2000, 113, 2563-2569.
Te-Xe(ecp-28), Po-Rn(ecp-46): K. A. Peterson, D. Figgen, E. Goll, H. Stoll, M. Dolg, J. Chem. Phys., 2003, 119, 11113-11123.
Rb(ecp-28), Cs(ecp-46): T. Leininger, A. Nicklass, W. Kuechle, H. Stoll, M. Dolg, A. Bergner, Chem. Phys. Lett., 1996, 255, 274-280.
Sr(ecp-28), Ba(ecp-46): M. Kaupp, P. V. Schleyer, H. Stoll and H. Preuss, J. Chem. Phys., 1991, 94, 1360-1366.
La(ecp-46): M. Dolg, H. Stoll, A. Savin, H. Preuss, Theor. Chim. Acta, 1989, 75, 173-194.
Lu(ecp-28): X. Cao, M. Dolg, J. Chem. Phys., 2001, 115, 7348-7355.

ECP parameters for Ag [Def2-ECP] have been obtained from:
TURBOMOLE (7.0.2)

================================================================================
                                        WARNINGS
                       Please study these warnings very carefully!
================================================================================


WARNING: your system is open-shell and RHF/RKS was chosen
  ===> : WILL SWITCH to UHF/UKS


WARNING: Geometry Optimization
  ===> : Switching off AutoStart
         For restart on a previous wavefunction, please use MOREAD

INFO   : the flag for use of LIBINT has been found!

================================================================================
                                       INPUT FILE
================================================================================
NAME = Ag03N0_D3H.in
|  1> #
|  2> # Ag03N0_D3H TPSS-D3BJ/Def2-TZVPPD
|  3> #
|  4> ! tpss d3bj def2-tzvppd def2/j grid4 nofinalgrid opt xyzfile numfreq slowconv
|  5> 
|  6> *xyz 0 2
|  7> Ag       0.000000    1.533951   -0.000000 
|  8> Ag       1.328441   -0.766976    0.000000 
|  9> Ag      -1.328441   -0.766976   -0.000000 
| 10> *
| 11> 
| 12> %maxcore 5000
| 13> 
| 14> %pal
| 15> nprocs = 24
| 16> end
| 17> 
| 18> 
| 19>                          ****END OF INPUT****
================================================================================

                       *****************************
                       * Geometry Optimization Run *
                       *****************************

Geometry optimization settings:
Update method            Update   .... BFGS
Choice of coordinates    CoordSys .... Z-matrix Internals
Initial Hessian          InHess   .... Almoef's Model

Convergence Tolerances:
Energy Change            TolE     ....  5.0000e-06 Eh
Max. Gradient            TolMAXG  ....  3.0000e-04 Eh/bohr
RMS Gradient             TolRMSG  ....  1.0000e-04 Eh/bohr
Max. Displacement        TolMAXD  ....  4.0000e-03 bohr
RMS Displacement         TolRMSD  ....  2.0000e-03 bohr
Strict Convergence                ....  False
------------------------------------------------------------------------------
                        ORCA OPTIMIZATION COORDINATE SETUP
------------------------------------------------------------------------------

The optimization will be done in new redundant internal coordinates
Making redundant internal coordinates   ...  (new redundants) done
Evaluating the initial hessian          ...  (Almloef) done
Evaluating the coordinates              ...  done
Calculating the B-matrix                .... done
Calculating the G-matrix                .... done
Diagonalizing the G-matrix              .... done
The first mode is                       ....    3
The number of degrees of freedom        ....    3

    -----------------------------------------------------------------
                    Redundant Internal Coordinates


    -----------------------------------------------------------------
         Definition                    Initial Value    Approx d2E/dq
    -----------------------------------------------------------------
      1. B(Ag  1,Ag  0)                  2.6569         0.609199   
      2. B(Ag  2,Ag  1)                  2.6569         0.609198   
      3. B(Ag  2,Ag  0)                  2.6569         0.609199   
      4. A(Ag  1,Ag  0,Ag  2)           60.0000         0.654643   
      5. A(Ag  0,Ag  1,Ag  2)           60.0000         0.654643   
      6. A(Ag  0,Ag  2,Ag  1)           60.0000         0.654643   
    -----------------------------------------------------------------

Number of atoms                         .... 3
Number of degrees of freedom            .... 6

         *************************************************************
         *                GEOMETRY OPTIMIZATION CYCLE   1            *
         *************************************************************
---------------------------------
CARTESIAN COORDINATES (ANGSTROEM)
---------------------------------
  Ag     0.000000    1.533951   -0.000000
  Ag     1.328441   -0.766976    0.000000
  Ag    -1.328441   -0.766976   -0.000000

----------------------------
CARTESIAN COORDINATES (A.U.)
----------------------------
  NO LB      ZA    FRAG     MASS         X           Y           Z
   0 Ag   19.0000*   0   107.870    0.000000    2.898747   -0.000000
   1 Ag   19.0000*   0   107.870    2.510390   -1.449375    0.000000
   2 Ag   19.0000*   0   107.870   -2.510390   -1.449375   -0.000000
* core charge reduced due to ECP

--------------------------------
INTERNAL COORDINATES (ANGSTROEM)
--------------------------------
 Ag     0   0   0     0.000000000000     0.00000000     0.00000000
 Ag     1   0   0     2.656881734254     0.00000000     0.00000000
 Ag     1   2   0     2.656881734254    60.00000662     0.00000000

---------------------------
INTERNAL COORDINATES (A.U.)
---------------------------
 Ag     0   0   0     0.000000000000     0.00000000     0.00000000
 Ag     1   0   0     5.020778847957     0.00000000     0.00000000
 Ag     1   2   0     5.020778847957    60.00000662     0.00000000

---------------------
BASIS SET INFORMATION
---------------------
There are 1 groups of distinct atoms

 Group   1 Type Ag  : 7s7p6d2f1g contracted to 6s4p3d2f1g pattern {211111/4111/411/11/1}

Atom   0Ag   basis set group =>   1
Atom   1Ag   basis set group =>   1
Atom   2Ag   basis set group =>   1
---------------------------------
AUXILIARY/J BASIS SET INFORMATION
---------------------------------
There are 1 groups of distinct atoms

 Group   1 Type Ag  : 11s5p5d3f3g contracted to 8s5p5d2f3g pattern {41111111/11111/11111/21/111}

Atom   0Ag   basis set group =>   1
Atom   1Ag   basis set group =>   1
Atom   2Ag   basis set group =>   1
-------------------------
ECP PARAMETER INFORMATION
-------------------------

 Group 1, Type Ag ECP Def2-ECP (replacing 28 core electrons, lmax=3)

Atom   0Ag   ECP group =>   1
Atom   1Ag   ECP group =>   1
Atom   2Ag   ECP group =>   1



           ************************************************************
           *        Program running with 24 parallel MPI-processes    *
           *              working on a common directory               *
           ************************************************************
------------------------------------------------------------------------------
                           ORCA GTO INTEGRAL CALCULATION
                           -- RI-GTO INTEGRALS CHOSEN --
------------------------------------------------------------------------------

                         BASIS SET STATISTICS AND STARTUP INFO

Gaussian basis set:
 # of primitive gaussian shells          ...   69
 # of primitive gaussian functions       ...  243
 # of contracted shells                  ...   48
 # of contracted basis functions         ...  168
 Highest angular momentum                ...    4
 Maximum contraction depth               ...    4
Auxiliary gaussian basis set:
 # of primitive gaussian shells          ...   81
 # of primitive gaussian functions       ...  297
 # of contracted shells                  ...   69
 # of contracted aux-basis functions     ...  267
 Highest angular momentum                ...    4
 Maximum contraction depth               ...    4
Ratio of auxiliary to basis functions    ...  1.59
Integral package used                  ... LIBINT
 One Electron integrals                  
   ECP integrals                         ... done
 Ordering auxiliary basis shells         ... done
 Integral threshhold             Thresh  ...  2.500e-11
 Primitive cut-off               TCut    ...  2.500e-12
 Pre-screening matrix                    ... done
 Shell pair data                         ... 
 Ordering of the shell pairs             ... done (   0.000 sec) 1134 of 1176 pairs
 Determination of significant pairs      ... done (   0.000 sec)
 Creation of shell pair data             ... done (   0.000 sec)
 Storage of shell pair data              ... done (   0.005 sec)
 Shell pair data done in (   0.005 sec)
 Computing two index integrals           ... done
 Cholesky decomposition of the V-matrix  ... done


Timings:
 Total evaluation time                   ...   0.524 sec (  0.009 min)
 One electron matrix time                ...   0.334 sec (  0.006 min) = 63.8%
 Schwartz matrix evaluation time         ...   0.150 sec (  0.002 min) = 28.6%
 Two index repulsion integral time       ...   0.001 sec (  0.000 min) =  0.2%
 Cholesky decomposition of V             ...   0.002 sec (  0.000 min) =  0.3%
 Three index repulsion integral time     ...   0.000 sec (  0.000 min) =  0.0%



           ************************************************************
           *        Program running with 24 parallel MPI-processes    *
           *              working on a common directory               *
           ************************************************************
-------------------------------------------------------------------------------
                                 ORCA SCF
-------------------------------------------------------------------------------

------------
SCF SETTINGS
------------
Hamiltonian:
 Density Functional     Method          .... DFT(GTOs)
 Exchange Functional    Exchange        .... TPSS
 Correlation Functional Correlation     .... TPSS
 LDA part of GGA corr.  LDAOpt          .... PW91-LDA
 Gradients option       PostSCFGGA      .... off
   Density functional embedding theory  .... OFF
   NL short-range parameter             ....  5.000000
 RI-approximation to the Coulomb term is turned on
   Number of auxiliary basis functions  .... 267


General Settings:
 Integral files         IntName         .... Ag03N0_D3H
 Hartree-Fock type      HFTyp           .... UHF
 Total Charge           Charge          ....    0
 Multiplicity           Mult            ....    2
 Number of Electrons    NEL             ....   57
 Basis Dimension        Dim             ....  168
 Nuclear Repulsion      ENuc            ....    215.7035784065 Eh

Convergence Acceleration:
 DIIS                   CNVDIIS         .... on
   Start iteration      DIISMaxIt       ....     0
   Startup error        DIISStart       ....  0.200000
   # of expansion vecs  DIISMaxEq       ....     5
   Bias factor          DIISBfac        ....   1.050
   Max. coefficient     DIISMaxC        ....  10.000
 Newton-Raphson         CNVNR           .... off
 SOSCF                  CNVSOSCF        .... off
 Level Shifting         CNVShift        .... on
   Level shift para.    LevelShift      ....    0.2500
   Turn off err/grad.   ShiftErr        ....    0.0000
 Zerner damping         CNVZerner       .... off
 Static damping         CNVDamp         .... on
   Fraction old density DampFac         ....    0.8500
   Max. Damping (<1)    DampMax         ....    0.9800
   Min. Damping (>=0)   DampMin         ....    0.0000
   Turn off err/grad.   DampErr         ....    0.0300
 Fernandez-Rico         CNVRico         .... off

SCF Procedure:
 Maximum # iterations   MaxIter         ....   125
 SCF integral mode      SCFMode         .... Direct
   Integral package                     .... LIBINT
 Reset frequency        DirectResetFreq ....    20
 Integral Threshold     Thresh          ....  2.500e-11 Eh
 Primitive CutOff       TCut            ....  2.500e-12 Eh

Convergence Tolerance:
 Convergence Check Mode ConvCheckMode   .... Total+1el-Energy
 Convergence forced     ConvForced      .... 0
 Energy Change          TolE            ....  1.000e-08 Eh
 1-El. energy change                    ....  1.000e-05 Eh
 DIIS Error             TolErr          ....  5.000e-07


Diagonalization of the overlap matrix:
Smallest eigenvalue                        ... 2.935e-03
Time for diagonalization                   ...    0.006 sec
Threshold for overlap eigenvalues          ... 1.000e-08
Number of eigenvalues below threshold      ... 0
Time for construction of square roots      ...    0.003 sec
Total time needed                          ...    0.009 sec

-------------------
DFT GRID GENERATION
-------------------

General Integration Accuracy     IntAcc      ...  4.670
Radial Grid Type                 RadialGrid  ... Gauss-Chebyshev
Angular Grid (max. acc.)         AngularGrid ... Lebedev-302
Angular grid pruning method      GridPruning ... 3 (G Style)
Weight generation scheme         WeightScheme... Becke
Basis function cutoff            BFCut       ...    1.0000e-11
Integration weight cutoff        WCut        ...    1.0000e-14
Grids for H and He will be reduced by one unit

# of grid points (after initial pruning)     ...  31974 (   0.0 sec)
# of grid points (after weights+screening)   ...  31838 (   0.0 sec)
nearest neighbour list constructed           ...    0.0 sec
Grid point re-assignment to atoms done       ...    0.0 sec
Grid point division into batches done        ...    0.3 sec
Reduced shell lists constructed in    0.3 sec

Total number of grid points                  ...    31838
Total number of batches                      ...      500
Average number of points per batch           ...       63
Average number of grid points per atom       ...    10613
Average number of shells per batch           ...     5.09 (10.61%)
Average number of basis functions per batch  ...    11.27 ( 6.71%)
Average number of large shells per batch     ...     3.32 (65.18%)
Average number of large basis fcns per batch ...     6.68 (59.27%)
Maximum spatial batch extension              ...  27.02, 24.03, 31.14 au
Average spatial batch extension              ...   0.75,  0.64,  0.72 au

Time for grid setup =    0.327 sec

------------------------------
INITIAL GUESS: MODEL POTENTIAL
------------------------------
Loading Hartree-Fock densities                     ... done
  calling /sw/apps/orca/orca_4_2_0_linux_x86-64_openmpi314/orca Ag03N0_D3H_atom47.inp > Ag03N0_D3H_atom47.out in order to generate an atomic fitting density for atom 0 (Ag with ECP) on-the-fly... 
    atom 0 (Ag), assumed electronic state with S=2: 1s2 2s2 2p6 3s2 3p6 4s2 3d10 4p6 5s2 4d9           ... done
Calculating cut-offs                               ... done
Setting up the integral package                    ... done
Initializing the effective Hamiltonian             ... done
Starting the Coulomb interaction                   ... done (   0.0 sec)
Reading the grid                                   ... done
Mapping shells                                     ... done
Starting the XC term evaluation                    ... done (   0.0 sec)
  promolecular density results
     # of electrons  =    141.001725785
     EX              =   -430.310479604
     EC              =     -7.472800310
     EX+EC           =   -437.783279914
Transforming the Hamiltonian                       ... done (   0.0 sec)
Diagonalizing the Hamiltonian                      ... done (   0.0 sec)
Back transforming the eigenvectors                 ... done (   0.0 sec)
Now organizing SCF variables                       ... done
                      ------------------
                      INITIAL GUESS DONE (   1.7 sec)
                      ------------------
--------------
SCF ITERATIONS
--------------
ITER       Energy         Delta-E        Max-DP      RMS-DP      [F,P]     Damp
               ***  Starting incremental Fock matrix formation  ***
  0   -440.5067757724   0.000000000000 0.05307158  0.00084845  0.5132607 0.8500
  1   -440.6110362852  -0.104260512789 0.05858174  0.00087329  0.4218010 0.8500
                               ***Turning on DIIS***
  2   -440.6653495337  -0.054313248515 0.04627468  0.00062591  0.3457929 0.8500
  3   -440.6941080077  -0.028758474005 0.02280092  0.00025791  0.2859063 0.8500
  4   -440.7157503087  -0.021642301023 0.00928927  0.00014367  0.2422362 0.8500
  5   -440.7325090629  -0.016758754152 0.00831419  0.00012690  0.2069999 0.8500
  6   -440.7469901679  -0.014481105068 0.00669887  0.00011418  0.1767558 0.8500
  7   -440.7597305226  -0.012740354647 0.00877388  0.00011111  0.1505174 0.8500
  8   -440.7710075110  -0.011276988463 0.00810403  0.00009004  0.1271870 0.8500
  9   -440.7803642475  -0.009356736426 0.00618843  0.00007105  0.1077123 0.8500
 10   -440.7881314768  -0.007767229369 0.00483037  0.00005977  0.0915767 0.8500
 11   -440.7946752122  -0.006543735376 0.00421478  0.00005222  0.0779725 0.8500
 12   -440.8002490140  -0.005573801818 0.00390350  0.00004594  0.0663177 0.8500
 13   -440.8049978804  -0.004748866338 0.00340051  0.00003893  0.0562886 0.8500
 14   -440.8090199373  -0.004022056893 0.00279056  0.00003235  0.0477623 0.8500
 15   -440.8124215028  -0.003401565514 0.00230096  0.00002726  0.0405711 0.8500
 16   -440.8153039211  -0.002882418384 0.00197159  0.00002336  0.0344899 0.8500
 17   -440.8177512699  -0.002447348712 0.01146098  0.00013384  0.0293164 0.0000
 18   -440.8315586405  -0.013807370607 0.00039106  0.00000644  0.0004905 0.0000
 19   -440.8315585683   0.000000072172 0.00020405  0.00000269  0.0005717 0.0000
               *** Restarting incremental Fock matrix formation ***
                                   *** Resetting DIIS ***
 20   -440.8315591702  -0.000000601907 0.00018454  0.00000200  0.0001072 0.0000
 21   -440.8315591561   0.000000014097 0.00004380  0.00000070  0.0001344 0.0000
 22   -440.8315592079  -0.000000051814 0.00002842  0.00000027  0.0000348 0.0000
 23   -440.8315592132  -0.000000005298 0.00000971  0.00000010  0.0000081 0.0000
 24   -440.8315592131   0.000000000118 0.00000333  0.00000005  0.0000020 0.0000
                            ***DIIS convergence achieved***

               *****************************************************
               *                     SUCCESS                       *
               *           SCF CONVERGED AFTER  25 CYCLES          *
               *****************************************************


----------------
TOTAL SCF ENERGY
----------------

Total Energy       :         -440.83155921 Eh          -11995.63657 eV

Components:
Nuclear Repulsion  :          215.70357841 Eh            5869.59277 eV
Electronic Energy  :         -656.53513762 Eh          -17865.22935 eV
One Electron Energy:        -1213.94334561 Eh          -33033.07780 eV
Two Electron Energy:          557.40820799 Eh           15167.84846 eV

Virial components:
Potential Energy   :         -609.25501950 Eh          -16578.67192 eV
Kinetic Energy     :          168.42346029 Eh            4583.03535 eV
Virial Ratio       :            3.61739997


DFT components:
N(Alpha)           :       28.999984659711 electrons
N(Beta)            :       27.999983898857 electrons
N(Total)           :       56.999968558568 electrons
E(X)               :      -39.725879377184 Eh       
E(C)               :       -2.479805315228 Eh       
E(XC)              :      -42.205684692412 Eh       
DFET-embed. en.    :        0.000000000000 Eh       

---------------
SCF CONVERGENCE
---------------

  Last Energy change         ...   -2.6893e-10  Tolerance :   1.0000e-08
  Last MAX-Density change    ...    1.1615e-06  Tolerance :   1.0000e-07
  Last RMS-Density change    ...    2.5728e-08  Tolerance :   5.0000e-09
  Last DIIS Error            ...    6.0286e-07  Tolerance :   5.0000e-07

             **** THE GBW FILE WAS UPDATED (Ag03N0_D3H.gbw) ****
             **** DENSITY FILE WAS UPDATED (Ag03N0_D3H.scfp) ****
             **** ENERGY FILE WAS UPDATED (Ag03N0_D3H.en.tmp) ****
----------------------
UHF SPIN CONTAMINATION
----------------------

Warning: in a DFT calculation there is little theoretical justification to 
         calculate <S**2> as in Hartree-Fock theory. We will do it anyways
         but you should keep in mind that the values have only limited relevance

Expectation value of <S**2>     :     0.755127
Ideal value S*(S+1) for S=0.5   :     0.750000
Deviation                       :     0.005127

             **** THE GBW FILE WAS UPDATED (Ag03N0_D3H.gbw) ****
             **** DENSITY FILE WAS UPDATED (Ag03N0_D3H.scfp) ****
----------------
ORBITAL ENERGIES
----------------
                 SPIN UP ORBITALS
  NO   OCC          E(Eh)            E(eV) 
   0   1.0000      -3.601043       -97.9894 
   1   1.0000      -3.600727       -97.9808 
   2   1.0000      -3.584048       -97.5269 
   3   1.0000      -2.227398       -60.6106 
   4   1.0000      -2.223819       -60.5132 
   5   1.0000      -2.222889       -60.4879 
   6   1.0000      -2.222109       -60.4667 
   7   1.0000      -2.221488       -60.4497 
   8   1.0000      -2.221138       -60.4402 
   9   1.0000      -2.207369       -60.0656 
  10   1.0000      -2.206522       -60.0425 
  11   1.0000      -2.202919       -59.9445 
  12   1.0000      -0.328222        -8.9314 
  13   1.0000      -0.311413        -8.4740 
  14   1.0000      -0.304193        -8.2775 
  15   1.0000      -0.304104        -8.2751 
  16   1.0000      -0.289986        -7.8909 
  17   1.0000      -0.287922        -7.8348 
  18   1.0000      -0.283270        -7.7082 
  19   1.0000      -0.270591        -7.3632 
  20   1.0000      -0.266989        -7.2651 
  21   1.0000      -0.265677        -7.2295 
  22   1.0000      -0.258829        -7.0431 
  23   1.0000      -0.256446        -6.9782 
  24   1.0000      -0.254537        -6.9263 
  25   1.0000      -0.254351        -6.9213 
  26   1.0000      -0.243832        -6.6350 
  27   1.0000      -0.229312        -6.2399 
  28   1.0000      -0.127355        -3.4655 
  29   0.0000      -0.127752        -3.4763 
  30   0.0000      -0.055358        -1.5064 
  31   0.0000      -0.035762        -0.9731 
  32   0.0000      -0.019835        -0.5397 
  33   0.0000      -0.019629        -0.5341 
  34   0.0000       0.020296         0.5523 
  35   0.0000       0.021451         0.5837 
  36   0.0000       0.063073         1.7163 
  37   0.0000       0.065565         1.7841 
  38   0.0000       0.072928         1.9845 
  39   0.0000       0.097664         2.6576 
  40   0.0000       0.138032         3.7560 
  41   0.0000       0.147280         4.0077 
  42   0.0000       0.148028         4.0280 
  43   0.0000       0.150439         4.0936 
  44   0.0000       0.163557         4.4506 
  45   0.0000       0.164324         4.4715 
  46   0.0000       0.205320         5.5870 
  47   0.0000       0.207729         5.6526 
  48   0.0000       0.274027         7.4566 
  49   0.0000       0.330456         8.9922 
  50   0.0000       0.331265         9.0142 
  51   0.0000       0.333821         9.0837 
  52   0.0000       0.367771        10.0075 
  53   0.0000       0.370338        10.0774 
  54   0.0000       0.377619        10.2755 
  55   0.0000       0.469786        12.7835 
  56   0.0000       0.471238        12.8230 
  57   0.0000       0.511929        13.9303 
  58   0.0000       0.527555        14.3555 
  59   0.0000       0.564902        15.3718 
  60   0.0000       0.565194        15.3797 
  61   0.0000       0.568786        15.4775 
  62   0.0000       0.569746        15.5036 
  63   0.0000       0.648763        17.6537 
  64   0.0000       0.648799        17.6547 
  65   0.0000       0.701388        19.0857 
  66   0.0000       1.428262        38.8650 
  67   0.0000       1.431305        38.9478 
  68   0.0000       1.466121        39.8952 
  69   0.0000       1.477343        40.2006 
  70   0.0000       1.498923        40.7878 
  71   0.0000       1.507714        41.0270 
  72   0.0000       1.508665        41.0529 
  73   0.0000       1.525761        41.5181 
  74   0.0000       1.530226        41.6396 
  75   0.0000       1.532758        41.7085 
  76   0.0000       1.543879        42.0111 
  77   0.0000       1.545498        42.0551 
  78   0.0000       1.550256        42.1846 
  79   0.0000       1.553748        42.2796 
  80   0.0000       1.559370        42.4326 
  81   0.0000       1.567682        42.6588 
  82   0.0000       1.570197        42.7272 
  83   0.0000       1.573450        42.8157 
  84   0.0000       1.577717        42.9318 
  85   0.0000       1.587365        43.1944 
  86   0.0000       1.599252        43.5179 
  87   0.0000       1.631245        44.3884 
  88   0.0000       1.642692        44.6999 
  89   0.0000       1.648296        44.8524 
  90   0.0000       1.663855        45.2758 
  91   0.0000       1.676484        45.6195 
  92   0.0000       1.682907        45.7942 
  93   0.0000       1.705113        46.3985 
  94   0.0000       1.706264        46.4298 
  95   0.0000       1.862761        50.6883 
  96   0.0000       1.895843        51.5885 
  97   0.0000       1.988068        54.0981 
  98   0.0000       1.994202        54.2650 
  99   0.0000       2.002076        54.4793 
 100   0.0000       2.027524        55.1717 
 101   0.0000       2.032833        55.3162 
 102   0.0000       2.034432        55.3597 
 103   0.0000       2.046700        55.6935 
 104   0.0000       2.059509        56.0421 
 105   0.0000       2.060208        56.0611 
 106   0.0000       2.068605        56.2896 
 107   0.0000       2.078717        56.5648 
 108   0.0000       2.163122        58.8615 
 109   0.0000       2.168838        59.0171 
 110   0.0000       2.194224        59.7079 
 111   0.0000       2.313031        62.9408 
 112   0.0000       2.483062        67.5676 
 113   0.0000       2.488518        67.7160 
 114   0.0000       4.670979       127.1038 
 115   0.0000       4.684539       127.4728 
 116   0.0000       4.687848       127.5628 
 117   0.0000       4.693315       127.7116 
 118   0.0000       4.702176       127.9527 
 119   0.0000       4.702462       127.9605 
 120   0.0000       4.708837       128.1340 
 121   0.0000       4.721489       128.4783 
 122   0.0000       4.723773       128.5404 
 123   0.0000       4.728291       128.6633 
 124   0.0000       4.730784       128.7312 
 125   0.0000       4.744371       129.1009 
 126   0.0000       4.745254       129.1249 
 127   0.0000       4.782162       130.1292 
 128   0.0000       4.800572       130.6302 
 129   0.0000       4.805263       130.7579 
 130   0.0000       4.809750       130.8799 
 131   0.0000       4.810223       130.8928 
 132   0.0000       4.962107       135.0258 
 133   0.0000       4.966604       135.1482 
 134   0.0000       4.982162       135.5715 
 135   0.0000       5.498233       149.6145 
 136   0.0000       5.498425       149.6198 
 137   0.0000       5.498624       149.6252 
 138   0.0000       5.499199       149.6408 
 139   0.0000       5.499583       149.6513 
 140   0.0000       5.499809       149.6574 
 141   0.0000       5.500569       149.6781 
 142   0.0000       5.500772       149.6836 
 143   0.0000       5.501315       149.6984 
 144   0.0000       5.501788       149.7113 
 145   0.0000       5.502188       149.7221 
 146   0.0000       5.502728       149.7369 
 147   0.0000       5.503589       149.7603 
 148   0.0000       5.503592       149.7604 
 149   0.0000       5.503866       149.7678 
 150   0.0000       5.503920       149.7693 
 151   0.0000       5.505885       149.8228 
 152   0.0000       5.507639       149.8705 
 153   0.0000       5.517183       150.1302 
 154   0.0000       5.518556       150.1676 
 155   0.0000       5.519586       150.1956 
 156   0.0000       5.521736       150.2541 
 157   0.0000       5.521744       150.2543 
 158   0.0000       5.522039       150.2623 
 159   0.0000       5.522787       150.2827 
 160   0.0000       5.525492       150.3563 
 161   0.0000       5.525649       150.3606 
 162   0.0000      33.252957       904.8590 
 163   0.0000      33.584464       913.8797 
 164   0.0000      33.595393       914.1771 
 165   0.0000     110.686244      3011.9258 
 166   0.0000     110.789460      3014.7345 
 167   0.0000     110.800438      3015.0332 

                 SPIN DOWN ORBITALS
  NO   OCC          E(Eh)            E(eV) 
   0   1.0000      -3.600823       -97.9834 
   1   1.0000      -3.600507       -97.9748 
   2   1.0000      -3.583923       -97.5235 
   3   1.0000      -2.227013       -60.6001 
   4   1.0000      -2.223620       -60.5078 
   5   1.0000      -2.222526       -60.4780 
   6   1.0000      -2.221562       -60.4518 
   7   1.0000      -2.221415       -60.4478 
   8   1.0000      -2.221067       -60.4383 
   9   1.0000      -2.207262       -60.0626 
  10   1.0000      -2.205948       -60.0269 
  11   1.0000      -2.202507       -59.9333 
  12   1.0000      -0.326364        -8.8808 
  13   1.0000      -0.309131        -8.4119 
  14   1.0000      -0.302611        -8.2345 
  15   1.0000      -0.300642        -8.1809 
  16   1.0000      -0.287310        -7.8181 
  17   1.0000      -0.286051        -7.7838 
  18   1.0000      -0.280963        -7.6454 
  19   1.0000      -0.269443        -7.3319 
  20   1.0000      -0.266370        -7.2483 
  21   1.0000      -0.264446        -7.1959 
  22   1.0000      -0.254882        -6.9357 
  23   1.0000      -0.252763        -6.8780 
  24   1.0000      -0.250059        -6.8044 
  25   1.0000      -0.250024        -6.8035 
  26   1.0000      -0.239716        -6.5230 
  27   1.0000      -0.221439        -6.0257 
  28   0.0000      -0.120922        -3.2904 
  29   0.0000      -0.103895        -2.8271 
  30   0.0000      -0.048102        -1.3089 
  31   0.0000      -0.025664        -0.6984 
  32   0.0000      -0.005843        -0.1590 
  33   0.0000      -0.004559        -0.1241 
  34   0.0000       0.024767         0.6740 
  35   0.0000       0.035378         0.9627 
  36   0.0000       0.070517         1.9189 
  37   0.0000       0.080712         2.1963 
  38   0.0000       0.085486         2.3262 
  39   0.0000       0.102935         2.8010 
  40   0.0000       0.148941         4.0529 
  41   0.0000       0.153803         4.1852 
  42   0.0000       0.154429         4.2022 
  43   0.0000       0.162771         4.4292 
  44   0.0000       0.176145         4.7931 
  45   0.0000       0.176977         4.8158 
  46   0.0000       0.211810         5.7636 
  47   0.0000       0.224922         6.1204 
  48   0.0000       0.290226         7.8974 
  49   0.0000       0.340619         9.2687 
  50   0.0000       0.343760         9.3542 
  51   0.0000       0.349517         9.5108 
  52   0.0000       0.374880        10.2010 
  53   0.0000       0.382157        10.3990 
  54   0.0000       0.388977        10.5846 
  55   0.0000       0.481028        13.0894 
  56   0.0000       0.486187        13.2298 
  57   0.0000       0.524483        14.2719 
  58   0.0000       0.536899        14.6098 
  59   0.0000       0.572083        15.5672 
  60   0.0000       0.582038        15.8381 
  61   0.0000       0.582765        15.8578 
  62   0.0000       0.584056        15.8930 
  63   0.0000       0.656202        17.8562 
  64   0.0000       0.663391        18.0518 
  65   0.0000       0.716687        19.5021 
  66   0.0000       1.430419        38.9237 
  67   0.0000       1.435194        39.0536 
  68   0.0000       1.470170        40.0054 
  69   0.0000       1.480850        40.2960 
  70   0.0000       1.499756        40.8104 
  71   0.0000       1.511442        41.1284 
  72   0.0000       1.512183        41.1486 
  73   0.0000       1.528216        41.5849 
  74   0.0000       1.532732        41.7078 
  75   0.0000       1.534079        41.7444 
  76   0.0000       1.545062        42.0433 
  77   0.0000       1.547121        42.0993 
  78   0.0000       1.552071        42.2340 
  79   0.0000       1.557535        42.3827 
  80   0.0000       1.563509        42.5452 
  81   0.0000       1.573341        42.8128 
  82   0.0000       1.573708        42.8228 
  83   0.0000       1.578971        42.9660 
  84   0.0000       1.580171        42.9986 
  85   0.0000       1.593363        43.3576 
  86   0.0000       1.601747        43.5857 
  87   0.0000       1.636904        44.5424 
  88   0.0000       1.644557        44.7507 
  89   0.0000       1.651667        44.9441 
  90   0.0000       1.670021        45.4436 
  91   0.0000       1.678173        45.6654 
  92   0.0000       1.686061        45.8801 
  93   0.0000       1.709146        46.5082 
  94   0.0000       1.712411        46.5971 
  95   0.0000       1.865385        50.7597 
  96   0.0000       1.899572        51.6900 
  97   0.0000       1.991442        54.1899 
  98   0.0000       1.996648        54.3316 
  99   0.0000       2.005734        54.5788 
 100   0.0000       2.029992        55.2389 
 101   0.0000       2.035174        55.3799 
 102   0.0000       2.039399        55.4949 
 103   0.0000       2.050113        55.7864 
 104   0.0000       2.064262        56.1714 
 105   0.0000       2.064709        56.1836 
 106   0.0000       2.070684        56.3462 
 107   0.0000       2.084362        56.7184 
 108   0.0000       2.165045        58.9139 
 109   0.0000       2.173286        59.1381 
 110   0.0000       2.198354        59.8203 
 111   0.0000       2.314422        62.9786 
 112   0.0000       2.484547        67.6080 
 113   0.0000       2.492463        67.8234 
 114   0.0000       4.672290       127.1395 
 115   0.0000       4.685738       127.5054 
 116   0.0000       4.689341       127.6035 
 117   0.0000       4.694003       127.7303 
 118   0.0000       4.703572       127.9907 
 119   0.0000       4.704066       128.0041 
 120   0.0000       4.710371       128.1757 
 121   0.0000       4.722368       128.5022 
 122   0.0000       4.724700       128.5656 
 123   0.0000       4.729373       128.6928 
 124   0.0000       4.731541       128.7518 
 125   0.0000       4.746696       129.1642 
 126   0.0000       4.747352       129.1820 
 127   0.0000       4.783500       130.1657 
 128   0.0000       4.801866       130.6654 
 129   0.0000       4.806487       130.7911 
 130   0.0000       4.811712       130.9333 
 131   0.0000       4.811808       130.9360 
 132   0.0000       4.962927       135.0481 
 133   0.0000       4.968073       135.1881 
 134   0.0000       4.983782       135.6156 
 135   0.0000       5.498479       149.6212 
 136   0.0000       5.498764       149.6290 
 137   0.0000       5.498999       149.6354 
 138   0.0000       5.499505       149.6491 
 139   0.0000       5.499745       149.6557 
 140   0.0000       5.499965       149.6617 
 141   0.0000       5.500989       149.6895 
 142   0.0000       5.501097       149.6925 
 143   0.0000       5.501852       149.7130 
 144   0.0000       5.501864       149.7133 
 145   0.0000       5.502433       149.7288 
 146   0.0000       5.503246       149.7509 
 147   0.0000       5.503725       149.7640 
 148   0.0000       5.503807       149.7662 
 149   0.0000       5.504337       149.7806 
 150   0.0000       5.504577       149.7872 
 151   0.0000       5.506115       149.8290 
 152   0.0000       5.508470       149.8931 
 153   0.0000       5.518535       150.1670 
 154   0.0000       5.519443       150.1917 
 155   0.0000       5.520675       150.2252 
 156   0.0000       5.522133       150.2649 
 157   0.0000       5.522822       150.2836 
 158   0.0000       5.522824       150.2837 
 159   0.0000       5.523095       150.2910 
 160   0.0000       5.526409       150.3812 
 161   0.0000       5.526843       150.3930 
 162   0.0000      33.253082       904.8624 
 163   0.0000      33.584655       913.8849 
 164   0.0000      33.595490       914.1798 
 165   0.0000     110.686364      3011.9291 
 166   0.0000     110.789549      3014.7369 
 167   0.0000     110.800610      3015.0379 

                    ********************************
                    * MULLIKEN POPULATION ANALYSIS *
                    ********************************

--------------------------------------------
MULLIKEN ATOMIC CHARGES AND SPIN POPULATIONS
--------------------------------------------
   0 Ag:   -0.097781    0.567174
   1 Ag:    0.048889    0.216415
   2 Ag:    0.048892    0.216411
Sum of atomic charges         :   -0.0000000
Sum of atomic spin populations:    1.0000000

-----------------------------------------------------
MULLIKEN REDUCED ORBITAL CHARGES AND SPIN POPULATIONS
-----------------------------------------------------
CHARGE
  0 Ags       :     3.036080  s :     3.036080
      pz      :     2.013685  p :     6.189250
      px      :     2.012326
      py      :     2.163239
      dz2     :     1.985749  d :     9.870739
      dxz     :     1.993873
      dyz     :     1.985920
      dx2y2   :     1.979826
      dxy     :     1.925372
      f0      :     0.000152  f :     0.001691
      f+1     :     0.000104
      f-1     :     0.000270
      f+2     :     0.000083
      f-2     :     0.000194
      f+3     :     0.000529
      f-3     :     0.000358
      g0      :     0.000002  g :     0.000021
      g+1     :     0.000001
      g-1     :     0.000002
      g+2     :     0.000001
      g-2     :     0.000003
      g+3     :     0.000002
      g-3     :     0.000000
      g+4     :     0.000004
      g-4     :     0.000005
  1 Ags       :     2.821731  s :     2.821731
      pz      :     2.016561  p :     6.212763
      px      :     2.037614
      py      :     2.158588
      dz2     :     1.988302  d :     9.914696
      dxz     :     1.991389
      dyz     :     1.994585
      dx2y2   :     1.962417
      dxy     :     1.978003
      f0      :     0.000168  f :     0.001900
      f+1     :     0.000249
      f-1     :     0.000159
      f+2     :     0.000192
      f-2     :     0.000143
      f+3     :     0.000590
      f-3     :     0.000399
      g0      :     0.000002  g :     0.000021
      g+1     :     0.000002
      g-1     :     0.000001
      g+2     :     0.000002
      g-2     :     0.000002
      g+3     :     0.000002
      g-3     :     0.000001
      g+4     :     0.000005
      g-4     :     0.000005
  2 Ags       :     2.821729  s :     2.821729
      pz      :     2.016561  p :     6.212762
      px      :     2.037614
      py      :     2.158588
      dz2     :     1.988302  d :     9.914696
      dxz     :     1.991390
      dyz     :     1.994585
      dx2y2   :     1.962417
      dxy     :     1.978003
      f0      :     0.000168  f :     0.001900
      f+1     :     0.000249
      f-1     :     0.000159
      f+2     :     0.000192
      f-2     :     0.000143
      f+3     :     0.000590
      f-3     :     0.000399
      g0      :     0.000002  g :     0.000021
      g+1     :     0.000002
      g-1     :     0.000001
      g+2     :     0.000002
      g-2     :     0.000002
      g+3     :     0.000002
      g-3     :     0.000001
      g+4     :     0.000005
      g-4     :     0.000005

SPIN
  0 Ags       :     0.451960  s :     0.451960
      pz      :     0.000379  p :     0.102857
      px      :     0.001506
      py      :     0.100972
      dz2     :     0.001169  d :     0.012371
      dxz     :     0.000351
      dyz     :     0.000846
      dx2y2   :     0.002155
      dxy     :     0.007850
      f0      :    -0.000002  f :    -0.000014
      f+1     :    -0.000001
      f-1     :     0.000002
      f+2     :     0.000000
      f-2     :    -0.000001
      f+3     :    -0.000011
      f-3     :    -0.000002
      g0      :     0.000000  g :     0.000000
      g+1     :     0.000000
      g-1     :     0.000000
      g+2     :     0.000000
      g-2     :     0.000000
      g+3     :     0.000000
      g-3     :     0.000000
      g+4     :     0.000000
      g-4     :     0.000000
  1 Ags       :     0.083185  s :     0.083185
      pz      :    -0.000046  p :     0.126948
      px      :    -0.000638
      py      :     0.127632
      dz2     :     0.000557  d :     0.006277
      dxz     :    -0.000302
      dyz     :    -0.000436
      dx2y2   :     0.002375
      dxy     :     0.004083
      f0      :    -0.000001  f :     0.000005
      f+1     :    -0.000002
      f-1     :     0.000004
      f+2     :    -0.000001
      f-2     :    -0.000001
      f+3     :     0.000008
      f-3     :    -0.000003
      g0      :     0.000000  g :    -0.000000
      g+1     :     0.000000
      g-1     :     0.000000
      g+2     :    -0.000000
      g-2     :     0.000000
      g+3     :     0.000000
      g-3     :    -0.000000
      g+4     :    -0.000000
      g-4     :    -0.000000
  2 Ags       :     0.083181  s :     0.083181
      pz      :    -0.000046  p :     0.126947
      px      :    -0.000638
      py      :     0.127632
      dz2     :     0.000557  d :     0.006277
      dxz     :    -0.000302
      dyz     :    -0.000436
      dx2y2   :     0.002375
      dxy     :     0.004083
      f0      :    -0.000001  f :     0.000005
      f+1     :    -0.000002
      f-1     :     0.000004
      f+2     :    -0.000001
      f-2     :    -0.000001
      f+3     :     0.000008
      f-3     :    -0.000003
      g0      :     0.000000  g :    -0.000000
      g+1     :     0.000000
      g-1     :     0.000000
      g+2     :    -0.000000
      g-2     :     0.000000
      g+3     :     0.000000
      g-3     :    -0.000000
      g+4     :    -0.000000
      g-4     :    -0.000000


                     *******************************
                     * LOEWDIN POPULATION ANALYSIS *
                     *******************************

-------------------------------------------
LOEWDIN ATOMIC CHARGES AND SPIN POPULATIONS
-------------------------------------------
   0 Ag:   -0.074881    0.478287
   1 Ag:    0.037440    0.260858
   2 Ag:    0.037441    0.260855

----------------------------------------------------
LOEWDIN REDUCED ORBITAL CHARGES AND SPIN POPULATIONS
----------------------------------------------------
CHARGE
  0 Ags       :     2.813756  s :     2.813756
      pz      :     2.016192  p :     6.350444
      px      :     2.027395
      py      :     2.306856
      dz2     :     1.999688  d :     9.908170
      dxz     :     1.993722
      dyz     :     1.983606
      dx2y2   :     1.984636
      dxy     :     1.946519
      f0      :     0.000202  f :     0.002482
      f+1     :     0.000156
      f-1     :     0.000394
      f+2     :     0.000107
      f-2     :     0.000281
      f+3     :     0.000872
      f-3     :     0.000472
      g0      :     0.000002  g :     0.000028
      g+1     :     0.000001
      g-1     :     0.000003
      g+2     :     0.000002
      g-2     :     0.000004
      g+3     :     0.000003
      g-3     :     0.000000
      g+4     :     0.000005
      g-4     :     0.000008
  1 Ags       :     2.659041  s :     2.659041
      pz      :     2.018864  p :     6.351112
      px      :     2.097422
      py      :     2.234825
      dz2     :     1.998567  d :     9.949580
      dxz     :     1.989694
      dyz     :     1.993694
      dx2y2   :     1.979854
      dxy     :     1.987771
      f0      :     0.000225  f :     0.002800
      f+1     :     0.000306
      f-1     :     0.000235
      f+2     :     0.000268
      f-2     :     0.000190
      f+3     :     0.001054
      f-3     :     0.000524
      g0      :     0.000002  g :     0.000028
      g+1     :     0.000002
      g-1     :     0.000001
      g+2     :     0.000003
      g-2     :     0.000002
      g+3     :     0.000003
      g-3     :     0.000001
      g+4     :     0.000008
      g-4     :     0.000006
  2 Ags       :     2.659040  s :     2.659040
      pz      :     2.018864  p :     6.351111
      px      :     2.097422
      py      :     2.234825
      dz2     :     1.998567  d :     9.949580
      dxz     :     1.989694
      dyz     :     1.993694
      dx2y2   :     1.979855
      dxy     :     1.987771
      f0      :     0.000225  f :     0.002800
      f+1     :     0.000306
      f-1     :     0.000235
      f+2     :     0.000268
      f-2     :     0.000190
      f+3     :     0.001054
      f-3     :     0.000524
      g0      :     0.000002  g :     0.000028
      g+1     :     0.000002
      g-1     :     0.000001
      g+2     :     0.000003
      g-2     :     0.000002
      g+3     :     0.000003
      g-3     :     0.000001
      g+4     :     0.000008
      g-4     :     0.000006

SPIN
  0 Ags       :     0.308759  s :     0.308759
      pz      :     0.000511  p :     0.158824
      px      :     0.000705
      py      :     0.157608
      dz2     :     0.001988  d :     0.010642
      dxz     :    -0.000101
      dyz     :     0.000365
      dx2y2   :     0.003435
      dxy     :     0.004955
      f0      :     0.000001  f :     0.000061
      f+1     :     0.000000
      f-1     :     0.000063
      f+2     :     0.000002
      f-2     :     0.000000
      f+3     :    -0.000007
      f-3     :     0.000000
      g0      :     0.000000  g :     0.000001
      g+1     :     0.000000
      g-1     :     0.000000
      g+2     :     0.000000
      g-2     :     0.000000
      g+3     :     0.000000
      g-3     :     0.000000
      g+4     :     0.000000
      g-4     :     0.000000
  1 Ags       :     0.061796  s :     0.061796
      pz      :     0.000170  p :     0.184588
      px      :     0.001582
      py      :     0.182836
      dz2     :     0.001131  d :     0.014302
      dxz     :    -0.000321
      dyz     :    -0.000247
      dx2y2   :     0.006378
      dxy     :     0.007361
      f0      :     0.000003  f :     0.000171
      f+1     :     0.000003
      f-1     :     0.000039
      f+2     :     0.000002
      f-2     :     0.000003
      f+3     :     0.000114
      f-3     :     0.000007
      g0      :     0.000000  g :     0.000001
      g+1     :     0.000000
      g-1     :     0.000000
      g+2     :     0.000000
      g-2     :     0.000000
      g+3     :     0.000000
      g-3     :    -0.000000
      g+4     :     0.000000
      g-4     :     0.000000
  2 Ags       :     0.061794  s :     0.061794
      pz      :     0.000170  p :     0.184588
      px      :     0.001582
      py      :     0.182836
      dz2     :     0.001131  d :     0.014302
      dxz     :    -0.000321
      dyz     :    -0.000247
      dx2y2   :     0.006378
      dxy     :     0.007361
      f0      :     0.000003  f :     0.000171
      f+1     :     0.000003
      f-1     :     0.000039
      f+2     :     0.000002
      f-2     :     0.000003
      f+3     :     0.000114
      f-3     :     0.000007
      g0      :     0.000000  g :     0.000001
      g+1     :     0.000000
      g-1     :     0.000000
      g+2     :     0.000000
      g-2     :     0.000000
      g+3     :     0.000000
      g-3     :    -0.000000
      g+4     :     0.000000
      g-4     :     0.000000


                      *****************************
                      * MAYER POPULATION ANALYSIS *
                      *****************************

  NA   - Mulliken gross atomic population
  ZA   - Total nuclear charge
  QA   - Mulliken gross atomic charge
  VA   - Mayer's total valence
  BVA  - Mayer's bonded valence
  FA   - Mayer's free valence

  ATOM       NA         ZA         QA         VA         BVA        FA
  0 Ag    19.0978    19.0000    -0.0978     1.5298     1.2106     0.3192
  1 Ag    18.9511    19.0000     0.0489     1.4232     1.3591     0.0641
  2 Ag    18.9511    19.0000     0.0489     1.4232     1.3591     0.0641

  Mayer bond orders larger than 0.100000
B(  0-Ag,  1-Ag) :   0.6053 B(  0-Ag,  2-Ag) :   0.6053 B(  1-Ag,  2-Ag) :   0.7538 


-------
TIMINGS
-------

Total SCF time: 0 days 0 hours 0 min 6 sec 

Total time                  ....       6.470 sec
Sum of individual times     ....       6.196 sec  ( 95.8%)

Fock matrix formation       ....       4.217 sec  ( 65.2%)
  Split-RI-J                ....       2.217 sec  ( 52.6% of F)
  XC integration            ....       1.867 sec  ( 44.3% of F)
    Basis function eval.    ....       0.101 sec  (  5.4% of XC)
    Density eval.           ....       0.244 sec  ( 13.1% of XC)
    XC-Functional eval.     ....       0.071 sec  (  3.8% of XC)
    XC-Potential eval.      ....       0.532 sec  ( 28.5% of XC)
Diagonalization             ....       0.196 sec  (  3.0%)
Density matrix formation    ....       0.034 sec  (  0.5%)
Population analysis         ....       0.010 sec  (  0.2%)
Initial guess               ....       1.336 sec  ( 20.7%)
Orbital Transformation      ....       0.000 sec  (  0.0%)
Orbital Orthonormalization  ....       0.000 sec  (  0.0%)
DIIS solution               ....       0.076 sec  (  1.2%)
Grid generation             ....       0.327 sec  (  5.1%)


-------------------------------------------------------------------------------
                          DFT DISPERSION CORRECTION                            
                                                                               
                              DFTD3 V3.1  Rev 1                                
                          USING Becke-Johnson damping                          
-------------------------------------------------------------------------------
The TPSS functional is recognized
Active option DFTDOPT                   ...         4   

molecular C6(AA) [au] = 2417.548083 


            DFT-D V3
 parameters
 s6 scaling factor         :     1.0000 
 a1 scaling factor         :     0.4535 
 s8 scaling factor         :     1.9435 
 a2 scaling factor         :     4.4752 
 ad hoc parameters k1-k3   :    16.0000     1.3333    -4.0000 

 Edisp/kcal,au: -3.599229254633  -0.005735736303 
 E6   /kcal   :  -1.087694069 
 E8   /kcal   :  -2.511535185 
 % E8         :  69.779805832 

-------------------------   ----------------
Dispersion correction           -0.005735736
-------------------------   ----------------


-------------------------   --------------------
FINAL SINGLE POINT ENERGY      -440.837294949670
-------------------------   --------------------



           ************************************************************
           *        Program running with 24 parallel MPI-processes    *
           *              working on a common directory               *
           ************************************************************
------------------------------------------------------------------------------
                         ORCA SCF GRADIENT CALCULATION
------------------------------------------------------------------------------

Gradient of the Kohn-Sham DFT energy:
Kohn-Sham wavefunction type      ... UKS
Hartree-Fock exchange scaling    ...    0.000
Number of operators              ...    2
Number of atoms                  ...    3
Basis set dimensions             ...  168
Integral neglect threshold       ... 2.5e-11
Integral primitive cutoff        ... 2.5e-12

Nuclear repulsion gradient       ... done
One Electron Gradient            
  ECP gradient                   ... done
Pre-screening matrix             ... done
RI-J gradient                    ... done
Exchange-correlation gradient    ... done
Dispersion correction            ... done

------------------
CARTESIAN GRADIENT
------------------

   1   Ag  :    0.000000077   -0.012386764   -0.000000002
   2   Ag  :    0.004417590    0.006317525   -0.000000002
   3   Ag  :   -0.004417681    0.006317377    0.000000003

Difference to translation invariance:
           :   -0.0000000144    0.0002481376   -0.0000000013

Norm of the cartesian gradient     ...    0.0165010087
RMS gradient                       ...    0.0055003362
MAX gradient                       ...    0.0123867636

-------
TIMINGS
-------

Total SCF gradient time            ...        1.631 sec

One electron gradient       ....       1.087 sec  ( 66.7%)
Prescreening matrices       ....       0.005 sec  (  0.3%)
RI-J Coulomb gradient       ....       0.167 sec  ( 10.3%)
XC gradient                 ....       0.131 sec  (  8.0%)
------------------------------------------------------------------------------
                         ORCA GEOMETRY RELAXATION STEP
------------------------------------------------------------------------------

Reading the OPT-File                    .... done
Getting information on internals        .... done
Copying old internal coords+grads       .... done
Making the new internal coordinates     .... (new redundants).... done
Validating the new internal coordinates .... (new redundants).... done
Calculating the B-matrix                .... done
Calculating the G,G- and P matrices     .... done
Transforming gradient to internals      .... done
Projecting the internal gradient        .... done
Number of atoms                         ....   3
Number of internal coordinates          ....   6
Current Energy                          ....  -440.837294950 Eh
Current gradient norm                   ....     0.016501009 Eh/bohr
Maximum allowed component of the step   ....  0.300
Current trust radius                    ....  0.300
Evaluating the initial hessian          ....  (Almloef) done
Projecting the Hessian                  .... done
Forming the augmented Hessian           .... done
Diagonalizing the augmented Hessian     .... done
Last element of RFO vector              ....  0.999799002
Lowest eigenvalues of augmented Hessian:
 -0.000246836  0.609220075  0.614032056  0.614257277 1000.000000000
Length of the computed step             ....  0.020052881
The final length of the internal step   ....  0.020052881
Converting the step to cartesian space:
 Initial RMS(Int)=    0.0081865543
Transforming coordinates:
 Iter   0:  RMS(Cart)=    0.0050550044 RMS(Int)=    0.0081920318
 Iter   1:  RMS(Cart)=    0.0000041700 RMS(Int)=    0.0000083474
 Iter   2:  RMS(Cart)=    0.0000000032 RMS(Int)=    0.0000000066
done
Storing new coordinates                 .... done

                                .--------------------.
          ----------------------|Geometry convergence|-------------------------
          Item                value                   Tolerance       Converged
          ---------------------------------------------------------------------
          RMS gradient        0.0050252432            0.0001000000      NO
          MAX gradient        0.0069383924            0.0003000000      NO
          RMS step            0.0081865543            0.0020000000      NO
          MAX step            0.0112677325            0.0040000000      NO
          ........................................................
          Max(Bonds)      0.0060      Max(Angles)    0.29
          Max(Dihed)        0.00      Max(Improp)    0.00
          ---------------------------------------------------------------------

The optimization has not yet converged - more geometry cycles are needed


    ---------------------------------------------------------------------------
                         Redundant Internal Coordinates
                            (Angstroem and degrees)

        Definition                    Value    dE/dq     Step     New-Value
    ----------------------------------------------------------------------------
     1. B(Ag  1,Ag  0)                2.6569 -0.006660  0.0058    2.6626   
     2. B(Ag  2,Ag  1)                2.6569  0.006938 -0.0060    2.6509   
     3. B(Ag  2,Ag  0)                2.6569 -0.006660  0.0058    2.6626   
     4. A(Ag  1,Ag  0,Ag  2)           60.00  0.003127   -0.29     59.71   
     5. A(Ag  0,Ag  1,Ag  2)           60.00 -0.001564    0.15     60.15   
     6. A(Ag  0,Ag  2,Ag  1)           60.00 -0.001564    0.15     60.15   
    ----------------------------------------------------------------------------

         *************************************************************
         *                GEOMETRY OPTIMIZATION CYCLE   2            *
         *************************************************************
---------------------------------
CARTESIAN COORDINATES (ANGSTROEM)
---------------------------------
  Ag    -0.000000    1.539521    0.000000
  Ag     1.325459   -0.769761    0.000000
  Ag    -1.325458   -0.769761    0.000000

----------------------------
CARTESIAN COORDINATES (A.U.)
----------------------------
  NO LB      ZA    FRAG     MASS         X           Y           Z
   0 Ag   19.0000*   0   107.870   -0.000000    2.909273    0.000000
   1 Ag   19.0000*   0   107.870    2.504754   -1.454638    0.000000
   2 Ag   19.0000*   0   107.870   -2.504753   -1.454637    0.000000
* core charge reduced due to ECP

--------------------------------
INTERNAL COORDINATES (ANGSTROEM)
--------------------------------
 Ag     0   0   0     0.000000000000     0.00000000     0.00000000
 Ag     1   0   0     2.662634704201     0.00000000     0.00000000
 Ag     2   1   0     2.650916971419    60.14546775     0.00000000

---------------------------
INTERNAL COORDINATES (A.U.)
---------------------------
 Ag     0   0   0     0.000000000000     0.00000000     0.00000000
 Ag     1   0   0     5.031650385615     0.00000000     0.00000000
 Ag     2   1   0     5.009507079745    60.14546775     0.00000000



           ************************************************************
           *        Program running with 24 parallel MPI-processes    *
           *              working on a common directory               *
           ************************************************************
 One Electron integrals                  ... done
 Pre-screening matrix                    ... done


           ************************************************************
           *        Program running with 24 parallel MPI-processes    *
           *              working on a common directory               *
           ************************************************************

Diagonalization of the overlap matrix:
Smallest eigenvalue                        ... 2.919e-03
Time for diagonalization                   ...    0.006 sec
Threshold for overlap eigenvalues          ... 1.000e-08
Number of eigenvalues below threshold      ... 0
Time for construction of square roots      ...    0.003 sec
Total time needed                          ...    0.009 sec

-------------------
DFT GRID GENERATION
-------------------

General Integration Accuracy     IntAcc      ...  4.670
Radial Grid Type                 RadialGrid  ... Gauss-Chebyshev
Angular Grid (max. acc.)         AngularGrid ... Lebedev-302
Angular grid pruning method      GridPruning ... 3 (G Style)
Weight generation scheme         WeightScheme... Becke
Basis function cutoff            BFCut       ...    1.0000e-11
Integration weight cutoff        WCut        ...    1.0000e-14
Grids for H and He will be reduced by one unit

# of grid points (after initial pruning)     ...  31974 (   0.0 sec)
# of grid points (after weights+screening)   ...  31836 (   0.0 sec)
nearest neighbour list constructed           ...    0.0 sec
Grid point re-assignment to atoms done       ...    0.0 sec
Grid point division into batches done        ...    0.3 sec
Reduced shell lists constructed in    0.3 sec

Total number of grid points                  ...    31836
Total number of batches                      ...      499
Average number of points per batch           ...       63
Average number of grid points per atom       ...    10612
Average number of shells per batch           ...     5.14 (10.70%)
Average number of basis functions per batch  ...    11.32 ( 6.74%)
Average number of large shells per batch     ...     3.32 (64.60%)
Average number of large basis fcns per batch ...     6.68 (59.04%)
Maximum spatial batch extension              ...  27.01, 24.03, 31.14 au
Average spatial batch extension              ...   0.74,  0.64,  0.72 au

Time for grid setup =    0.313 sec

--------------
SCF ITERATIONS
--------------
ITER       Energy         Delta-E        Max-DP      RMS-DP      [F,P]     Damp
               ***  Starting incremental Fock matrix formation  ***
  0   -440.8317937028   0.000000000000 0.00007882  0.00000195  0.0062197 0.8500
  1   -440.8317942903  -0.000000587513 0.00010004  0.00000237  0.0052907 0.8500
                               ***Turning on DIIS***
  2   -440.8317948133  -0.000000522914 0.00076593  0.00001550  0.0044976 0.0000
  3   -440.8317976471  -0.000002833831 0.00021548  0.00000265  0.0001550 0.0000
  4   -440.8317976930  -0.000000045876 0.00011008  0.00000128  0.0001374 0.0000
  5   -440.8317977784  -0.000000085431 0.00007121  0.00000075  0.0000248 0.0000
  6   -440.8317977850  -0.000000006578 0.00004046  0.00000043  0.0000178 0.0000
  7   -440.8317977880  -0.000000003000 0.00003089  0.00000031  0.0000090 0.0000
  8   -440.8317977896  -0.000000001603 0.00001885  0.00000019  0.0000041 0.0000
  9   -440.8317977920  -0.000000002407 0.00001227  0.00000013  0.0000029 0.0000
 10   -440.8317977920  -0.000000000064 0.00000816  0.00000008  0.0000020 0.0000
 11   -440.8317977915   0.000000000564 0.00000542  0.00000006  0.0000013 0.0000
                 **** Energy Check signals convergence ****

               *****************************************************
               *                     SUCCESS                       *
               *           SCF CONVERGED AFTER  12 CYCLES          *
               *****************************************************

Total Energy       :         -440.83179779 Eh          -11995.64306 eV
  Last Energy change         ...    5.6502e-11  Tolerance :   1.0000e-08
  Last MAX-Density change    ...    3.4528e-06  Tolerance :   1.0000e-07
             **** THE GBW FILE WAS UPDATED (Ag03N0_D3H.gbw) ****
             **** DENSITY FILE WAS UPDATED (Ag03N0_D3H.scfp) ****
             **** ENERGY FILE WAS UPDATED (Ag03N0_D3H.en.tmp) ****
----------------------
UHF SPIN CONTAMINATION
----------------------

Warning: in a DFT calculation there is little theoretical justification to 
         calculate <S**2> as in Hartree-Fock theory. We will do it anyways
         but you should keep in mind that the values have only limited relevance

Expectation value of <S**2>     :     0.755115
Ideal value S*(S+1) for S=0.5   :     0.750000
Deviation                       :     0.005115

             **** THE GBW FILE WAS UPDATED (Ag03N0_D3H.gbw) ****
             **** DENSITY FILE WAS UPDATED (Ag03N0_D3H.scfp) ****
Total SCF time: 0 days 0 hours 0 min 2 sec 


-------------------------------------------------------------------------------
                          DFT DISPERSION CORRECTION                            
                                                                               
                              DFTD3 V3.1  Rev 1                                
                          USING Becke-Johnson damping                          
-------------------------------------------------------------------------------
-------------------------   ----------------
Dispersion correction           -0.005735220
-------------------------   ----------------


-------------------------   --------------------
FINAL SINGLE POINT ENERGY      -440.837533011253
-------------------------   --------------------



           ************************************************************
           *        Program running with 24 parallel MPI-processes    *
           *              working on a common directory               *
           ************************************************************
------------------------------------------------------------------------------
                         ORCA SCF GRADIENT CALCULATION
------------------------------------------------------------------------------

Gradient of the Kohn-Sham DFT energy:
Kohn-Sham wavefunction type      ... UKS
Hartree-Fock exchange scaling    ...    0.000
Number of operators              ...    2
Number of atoms                  ...    3
Basis set dimensions             ...  168
Integral neglect threshold       ... 2.5e-11
Integral primitive cutoff        ... 2.5e-12

Nuclear repulsion gradient       ... done
One Electron Gradient            
  ECP gradient                   ... done
Pre-screening matrix             ... done
RI-J gradient                    ... done
Exchange-correlation gradient    ... done
Dispersion correction            ... done

------------------
CARTESIAN GRADIENT
------------------

   1   Ag  :    0.000000069   -0.011524356   -0.000000003
   2   Ag  :    0.004182629    0.005884384    0.000000004
   3   Ag  :   -0.004182716    0.005884241    0.000000004

Difference to translation invariance:
           :   -0.0000000177    0.0002442697    0.0000000046

Norm of the cartesian gradient     ...    0.0153964457
RMS gradient                       ...    0.0051321486
MAX gradient                       ...    0.0115243556

-------
TIMINGS
-------

Total SCF gradient time            ...        1.547 sec

One electron gradient       ....       1.071 sec  ( 69.2%)
Prescreening matrices       ....       0.005 sec  (  0.3%)
RI-J Coulomb gradient       ....       0.112 sec  (  7.3%)
XC gradient                 ....       0.126 sec  (  8.1%)
------------------------------------------------------------------------------
                         ORCA GEOMETRY RELAXATION STEP
------------------------------------------------------------------------------

Reading the OPT-File                    .... done
Getting information on internals        .... done
Copying old internal coords+grads       .... done
Making the new internal coordinates     .... (new redundants).... done
Validating the new internal coordinates .... (new redundants).... done
Calculating the B-matrix                .... done
Calculating the G,G- and P matrices     .... done
Transforming gradient to internals      .... done
Projecting the internal gradient        .... done
Number of atoms                         ....   3
Number of internal coordinates          ....   6
Current Energy                          ....  -440.837533011 Eh
Current gradient norm                   ....     0.015396446 Eh/bohr
Maximum allowed component of the step   ....  0.300
Current trust radius                    ....  0.300
Updating the Hessian (BFGS)             .... done
Forming the augmented Hessian           .... done
Diagonalizing the augmented Hessian     .... done
Last element of RFO vector              ....  0.967955851
Lowest eigenvalues of augmented Hessian:
 -0.002978698  0.044256123  0.609772546  0.614032056 998.824999980
Length of the computed step             ....  0.259433765
The final length of the internal step   ....  0.259433765
Converting the step to cartesian space:
 Initial RMS(Int)=    0.1059133909
Transforming coordinates:
 Iter   0:  RMS(Cart)=    0.0653612476 RMS(Int)=    0.1068075916
 Iter   1:  RMS(Cart)=    0.0006762453 RMS(Int)=    0.0013664923
 Iter   2:  RMS(Cart)=    0.0000061146 RMS(Int)=    0.0000128604
 Iter   3:  RMS(Cart)=    0.0000000254 RMS(Int)=    0.0000000526
done
Storing new coordinates                 .... done

                                .--------------------.
          ----------------------|Geometry convergence|-------------------------
          Item                value                   Tolerance       Converged
          ---------------------------------------------------------------------
          Energy change      -0.0002380616            0.0000050000      NO
          RMS gradient        0.0046873312            0.0001000000      NO
          MAX gradient        0.0065145330            0.0003000000      NO
          RMS step            0.1059133909            0.0020000000      NO
          MAX step            0.1466918871            0.0040000000      NO
          ........................................................
          Max(Bonds)      0.0776      Max(Angles)    3.77
          Max(Dihed)        0.00      Max(Improp)    0.00
          ---------------------------------------------------------------------

The optimization has not yet converged - more geometry cycles are needed


    ---------------------------------------------------------------------------
                         Redundant Internal Coordinates
                            (Angstroem and degrees)

        Definition                    Value    dE/dq     Step     New-Value
    ----------------------------------------------------------------------------
     1. B(Ag  1,Ag  0)                2.6626 -0.006194  0.0742    2.7368   
     2. B(Ag  2,Ag  1)                2.6509  0.006515 -0.0776    2.5733   
     3. B(Ag  2,Ag  0)                2.6626 -0.006194  0.0742    2.7368   
     4. A(Ag  1,Ag  0,Ag  2)           59.71  0.002906   -3.77     55.94   
     5. A(Ag  0,Ag  1,Ag  2)           60.15 -0.001453    1.88     62.03   
     6. A(Ag  0,Ag  2,Ag  1)           60.15 -0.001453    1.88     62.03   
    ----------------------------------------------------------------------------

         *************************************************************
         *                GEOMETRY OPTIMIZATION CYCLE   3            *
         *************************************************************
---------------------------------
CARTESIAN COORDINATES (ANGSTROEM)
---------------------------------
  Ag    -0.000001    1.610567    0.000000
  Ag     1.286439   -0.805285    0.000000
  Ag    -1.286438   -0.805284    0.000000

----------------------------
CARTESIAN COORDINATES (A.U.)
----------------------------
  NO LB      ZA    FRAG     MASS         X           Y           Z
   0 Ag   19.0000*   0   107.870   -0.000001    3.043531    0.000000
   1 Ag   19.0000*   0   107.870    2.431017   -1.521767    0.000000
   2 Ag   19.0000*   0   107.870   -2.431015   -1.521765    0.000000
* core charge reduced due to ECP

--------------------------------
INTERNAL COORDINATES (ANGSTROEM)
--------------------------------
 Ag     0   0   0     0.000000000000     0.00000000     0.00000000
 Ag     1   0   0     2.737017509779     0.00000000     0.00000000
 Ag     2   1   0     2.572876470699    61.96470933     0.00000000

---------------------------
INTERNAL COORDINATES (A.U.)
---------------------------
 Ag     0   0   0     0.000000000000     0.00000000     0.00000000
 Ag     1   0   0     5.172213517230     0.00000000     0.00000000
 Ag     2   1   0     4.862031906031    61.96470933     0.00000000



           ************************************************************
           *        Program running with 24 parallel MPI-processes    *
           *              working on a common directory               *
           ************************************************************
 One Electron integrals                  ... done
 Pre-screening matrix                    ... done


           ************************************************************
           *        Program running with 24 parallel MPI-processes    *
           *              working on a common directory               *
           ************************************************************

Diagonalization of the overlap matrix:
Smallest eigenvalue                        ... 2.683e-03
Time for diagonalization                   ...    0.006 sec
Threshold for overlap eigenvalues          ... 1.000e-08
Number of eigenvalues below threshold      ... 0
Time for construction of square roots      ...    0.003 sec
Total time needed                          ...    0.009 sec

-------------------
DFT GRID GENERATION
-------------------

General Integration Accuracy     IntAcc      ...  4.670
Radial Grid Type                 RadialGrid  ... Gauss-Chebyshev
Angular Grid (max. acc.)         AngularGrid ... Lebedev-302
Angular grid pruning method      GridPruning ... 3 (G Style)
Weight generation scheme         WeightScheme... Becke
Basis function cutoff            BFCut       ...    1.0000e-11
Integration weight cutoff        WCut        ...    1.0000e-14
Grids for H and He will be reduced by one unit

# of grid points (after initial pruning)     ...  31974 (   0.0 sec)
# of grid points (after weights+screening)   ...  31844 (   0.0 sec)
nearest neighbour list constructed           ...    0.0 sec
Grid point re-assignment to atoms done       ...    0.0 sec
Grid point division into batches done        ...    0.3 sec
Reduced shell lists constructed in    0.3 sec

Total number of grid points                  ...    31844
Total number of batches                      ...      499
Average number of points per batch           ...       63
Average number of grid points per atom       ...    10615
Average number of shells per batch           ...     4.95 (10.32%)
Average number of basis functions per batch  ...    10.95 ( 6.52%)
Average number of large shells per batch     ...     3.32 (66.97%)
Average number of large basis fcns per batch ...     6.77 (61.83%)
Maximum spatial batch extension              ...  26.86, 23.54, 31.14 au
Average spatial batch extension              ...   0.75,  0.63,  0.71 au

Time for grid setup =    0.320 sec

--------------
SCF ITERATIONS
--------------
ITER       Energy         Delta-E        Max-DP      RMS-DP      [F,P]     Damp
               ***  Starting incremental Fock matrix formation  ***
  0   -440.8327941575   0.000000000000 0.00096083  0.00002350  0.0761009 0.8500
  1   -440.8328878164  -0.000093658898 0.00123367  0.00002882  0.0647343 0.8500
                               ***Turning on DIIS***
  2   -440.8329716547  -0.000083838321 0.00142247  0.00002846  0.0550307 0.8500
  3   -440.8330433450  -0.000071690375 0.00150692  0.00002612  0.0467805 0.8500
  4   -440.8331042760  -0.000060930991 0.00150654  0.00002349  0.0397646 0.8500
[...]
      f0      :     0.000125  f :     0.001637
      f+1     :     0.000093
      f-1     :     0.000297
      f+2     :     0.000078
      f-2     :     0.000162
      f+3     :     0.000592
      f-3     :     0.000289
      g0      :     0.000001  g :     0.000017
      g+1     :     0.000001
      g-1     :     0.000002
      g+2     :     0.000001
      g-2     :     0.000002
      g+3     :     0.000002
      g-3     :     0.000000
      g+4     :     0.000003
      g-4     :     0.000005
  1 Ags       :     2.674821  s :     2.674821
      pz      :     2.018777  p :     6.337517
      px      :     2.095975
      py      :     2.222765
      dz2     :     1.998637  d :     9.949439
      dxz     :     1.988474
      dyz     :     1.994726
      dx2y2   :     1.980741
      dxy     :     1.986860
      f0      :     0.000232  f :     0.002819
      f+1     :     0.000361
      f-1     :     0.000185
      f+2     :     0.000331
      f-2     :     0.000138
      f+3     :     0.001016
      f-3     :     0.000556
      g0      :     0.000002  g :     0.000030
      g+1     :     0.000003
      g-1     :     0.000001
      g+2     :     0.000004
      g-2     :     0.000002
      g+3     :     0.000003
      g-3     :     0.000001
      g+4     :     0.000008
      g-4     :     0.000007
  2 Ags       :     2.674819  s :     2.674819
      pz      :     2.018777  p :     6.337517
      px      :     2.095975
      py      :     2.222765
      dz2     :     1.998637  d :     9.949439
      dxz     :     1.988475
      dyz     :     1.994726
      dx2y2   :     1.980741
      dxy     :     1.986860
      f0      :     0.000232  f :     0.002819
      f+1     :     0.000361
      f-1     :     0.000185
      f+2     :     0.000331
      f-2     :     0.000138
      f+3     :     0.001016
      f-3     :     0.000556
      g0      :     0.000002  g :     0.000030
      g+1     :     0.000003
      g-1     :     0.000001
      g+2     :     0.000004
      g-2     :     0.000002
      g+3     :     0.000003
      g-3     :     0.000001
      g+4     :     0.000008
      g-4     :     0.000007

SPIN
  0 Ags       :     0.351409  s :     0.351409
      pz      :     0.000438  p :     0.137081
      px      :     0.000692
      py      :     0.135951
      dz2     :     0.001655  d :     0.008963
      dxz     :    -0.000093
      dyz     :     0.000261
      dx2y2   :     0.003329
      dxy     :     0.003811
      f0      :     0.000001  f :     0.000060
      f+1     :    -0.000000
      f-1     :     0.000051
      f+2     :     0.000003
      f-2     :     0.000002
      f+3     :    -0.000004
      f-3     :     0.000006
      g0      :     0.000000  g :     0.000000
      g+1     :     0.000000
      g-1     :     0.000000
      g+2     :     0.000000
      g-2     :     0.000000
      g+3     :     0.000000
      g-3     :     0.000000
      g+4     :     0.000000
      g-4     :     0.000000
  1 Ags       :     0.061449  s :     0.061449
      pz      :     0.000227  p :     0.174853
      px      :     0.001346
      py      :     0.173280
      dz2     :     0.001116  d :     0.014791
      dxz     :    -0.000318
      dyz     :    -0.000224
      dx2y2   :     0.007443
      dxy     :     0.006773
      f0      :     0.000003  f :     0.000152
      f+1     :     0.000001
      f-1     :     0.000037
      f+2     :     0.000002
      f-2     :     0.000003
      f+3     :     0.000100
      f-3     :     0.000006
      g0      :     0.000000  g :     0.000001
      g+1     :     0.000000
      g-1     :     0.000000
      g+2     :     0.000000
      g-2     :     0.000000
      g+3     :     0.000000
      g-3     :    -0.000000
      g+4     :     0.000000
      g-4     :     0.000000
  2 Ags       :     0.061444  s :     0.061444
      pz      :     0.000227  p :     0.174853
      px      :     0.001346
      py      :     0.173281
      dz2     :     0.001116  d :     0.014791
      dxz     :    -0.000318
      dyz     :    -0.000224
      dx2y2   :     0.007443
      dxy     :     0.006773
      f0      :     0.000003  f :     0.000152
      f+1     :     0.000001
      f-1     :     0.000037
      f+2     :     0.000002
      f-2     :     0.000003
      f+3     :     0.000100
      f-3     :     0.000006
      g0      :     0.000000  g :     0.000001
      g+1     :     0.000000
      g-1     :     0.000000
      g+2     :     0.000000
      g-2     :     0.000000
      g+3     :     0.000000
      g-3     :    -0.000000
      g+4     :     0.000000
      g-4     :     0.000000


                      *****************************
                      * MAYER POPULATION ANALYSIS *
                      *****************************

  NA   - Mulliken gross atomic population
  ZA   - Total nuclear charge
  QA   - Mulliken gross atomic charge
  VA   - Mayer's total valence
  BVA  - Mayer's bonded valence
  FA   - Mayer's free valence

  ATOM       NA         ZA         QA         VA         BVA        FA
  0 Ag    19.1040    19.0000    -0.1040     1.4657     1.1168     0.3488
  1 Ag    18.9480    19.0000     0.0520     1.4000     1.3418     0.0582
  2 Ag    18.9480    19.0000     0.0520     1.4000     1.3418     0.0582

  Mayer bond orders larger than 0.100000
B(  0-Ag,  1-Ag) :   0.5584 B(  0-Ag,  2-Ag) :   0.5584 B(  1-Ag,  2-Ag) :   0.7834 


-------
TIMINGS
-------

Total SCF time: 0 days 0 hours 0 min 2 sec 

Total time                  ....       2.113 sec
Sum of individual times     ....       1.943 sec  ( 91.9%)

Fock matrix formation       ....       1.490 sec  ( 70.5%)
  Split-RI-J                ....       0.910 sec  ( 61.1% of F)
  XC integration            ....       0.448 sec  ( 30.1% of F)
    Basis function eval.    ....       0.030 sec  (  6.7% of XC)
    Density eval.           ....       0.076 sec  ( 16.9% of XC)
    XC-Functional eval.     ....       0.021 sec  (  4.8% of XC)
    XC-Potential eval.      ....       0.128 sec  ( 28.6% of XC)
Diagonalization             ....       0.064 sec  (  3.0%)
Density matrix formation    ....       0.012 sec  (  0.6%)
Population analysis         ....       0.013 sec  (  0.6%)
Initial guess               ....       0.019 sec  (  0.9%)
Orbital Transformation      ....       0.000 sec  (  0.0%)
Orbital Orthonormalization  ....       0.013 sec  (  0.6%)
DIIS solution               ....       0.022 sec  (  1.0%)
Grid generation             ....       0.324 sec  ( 15.3%)


-------------------------------------------------------------------------------
                          DFT DISPERSION CORRECTION                            
                                                                               
                              DFTD3 V3.1  Rev 1                                
                          USING Becke-Johnson damping                          
-------------------------------------------------------------------------------
The TPSS functional is recognized
Active option DFTDOPT                   ...         4   

molecular C6(AA) [au] = 2417.571874 


            DFT-D V3
 parameters
 s6 scaling factor         :     1.0000 
 a1 scaling factor         :     0.4535 
 s8 scaling factor         :     1.9435 
 a2 scaling factor         :     4.4752 
 ad hoc parameters k1-k3   :    16.0000     1.3333    -4.0000 

 Edisp/kcal,au: -3.590519098943  -0.005721855788 
 E6   /kcal   :  -1.083588046 
 E8   /kcal   :  -2.506931053 
 % E8         :  69.820852736 

-------------------------   ----------------
Dispersion correction           -0.005721856
-------------------------   ----------------


-------------------------   --------------------
FINAL SINGLE POINT ENERGY      -440.839241926903
-------------------------   --------------------

                                *** OPTIMIZATION RUN DONE ***

                            ***************************************
                            *     ORCA property calculations      *
                            ***************************************

                                    ---------------------
                                    Active property flags
                                    ---------------------
   (+) Dipole Moment


------------------------------------------------------------------------------
                       ORCA ELECTRIC PROPERTIES CALCULATION
------------------------------------------------------------------------------

Dipole Moment Calculation                       ... on
Quadrupole Moment Calculation                   ... off
Polarizability Calculation                      ... off
GBWName                                         ... Ag03N0_D3H.gbw
Electron density file                           ... Ag03N0_D3H.scfp
The origin for moment calculation is the CENTER OF MASS  = (-0.000000, -0.000001  0.000000)

-------------
DIPOLE MOMENT
-------------
                                X             Y             Z
Electronic contribution:     -0.00001      -0.46746      -0.00000
Nuclear contribution   :     -0.00000       0.00000       0.00000
                        -----------------------------------------
Total Dipole Moment    :     -0.00001      -0.46746      -0.00000
                        -----------------------------------------
Magnitude (a.u.)       :      0.46746
Magnitude (Debye)      :      1.18818



--------------------
Rotational spectrum 
--------------------
 
Rotational constants in cm-1:     0.047065     0.039424     0.021453 
Rotational constants in MHz :  1410.973866  1181.889911   643.155954 

 Dipole components along the rotational axes: 
x,y,z [a.u.] :     0.467456     0.000009    -0.000000 
x,y,z [Debye]:     1.188179     0.000022    -0.000000 

 

----------------------------------------------------------------------------
                           ORCA NUMERICAL FREQUENCIES
                              (24-process run)
----------------------------------------------------------------------------

Number of atoms                ... 3
Central differences            ... used
Number of displacements        ... 18
Numerical increment            ... 5.000e-03 bohr
IR-spectrum generation         ... on
Raman-spectrum generation      ... off
Surface Crossing Hessian       ... off

 WARNING: There are more processes than displacements to do
  ====> : Reducing number of processes to   9

The output will be reduced. Please look at the following files:
SCF program output             ... >Ag03N0_D3H.lastscf
Integral program output        ... >Ag03N0_D3H.lastint
Gradient program output        ... >Ag03N0_D3H.lastgrad
Dipole moment program output   ... >Ag03N0_D3H.lastmom
AutoCI program output          ... >Ag03N0_D3H.lastautoci


         <<< Energy and Gradient at the input geometry >>>

        <<< Energy and Gradient at displaced geometries >>>
             <<<Displacing   2/coordinate 1 (+)>>>
             <<<Displacing   2/coordinate 2 (+)>>>
             <<<Displacing   3/coordinate 1 (+)>>>
             <<<Displacing   3/coordinate 2 (+)>>>
             <<<Displacing   1/coordinate 1 (+)>>>
             <<<Displacing   3/coordinate 3 (+)>>>
             <<<Displacing   1/coordinate 2 (+)>>>
             <<<Displacing   1/coordinate 3 (+)>>>
             <<<Displacing   2/coordinate 3 (+)>>>
             <<<Displacing   1/coordinate 2 (-)>>>
             <<<Displacing   3/coordinate 1 (-)>>>
             <<<Displacing   1/coordinate 1 (-)>>>
             <<<Displacing   2/coordinate 1 (-)>>>
             <<<Displacing   2/coordinate 2 (-)>>>
             <<<Displacing   3/coordinate 2 (-)>>>
             <<<Displacing   1/coordinate 3 (-)>>>
             <<<Displacing   3/coordinate 3 (-)>>>
             <<<Displacing   2/coordinate 3 (-)>>>

-----------------------
VIBRATIONAL FREQUENCIES
-----------------------

Scaling factor for frequencies =  1.000000000 (already applied!)

   0:         0.00 cm**-1
   1:         0.00 cm**-1
   2:         0.00 cm**-1
   3:         0.00 cm**-1
   4:         0.00 cm**-1
   5:         0.00 cm**-1
   6:        65.17 cm**-1
   7:       123.51 cm**-1
   8:       186.81 cm**-1


------------
NORMAL MODES
------------

These modes are the cartesian displacements weighted by the diagonal matrix
M(i,i)=1/sqrt(m[i]) where m[i] is the mass of the displaced atom
Thus, these vectors are normalized but *not* orthogonal

                  0          1          2          3          4          5    
      0       0.000000   0.000000   0.000000   0.000000   0.000000   0.000000
      1       0.000000   0.000000   0.000000   0.000000   0.000000   0.000000
      2       0.000000   0.000000   0.000000   0.000000   0.000000   0.000000
      3       0.000000   0.000000   0.000000   0.000000   0.000000   0.000000
      4       0.000000   0.000000   0.000000   0.000000   0.000000   0.000000
      5       0.000000   0.000000   0.000000   0.000000   0.000000   0.000000
      6       0.000000   0.000000   0.000000   0.000000   0.000000   0.000000
      7       0.000000   0.000000   0.000000   0.000000   0.000000   0.000000
      8       0.000000   0.000000   0.000000   0.000000   0.000000   0.000000
                   6          7          8    
      0       0.551256   0.000002   0.000002
      1      -0.000004   0.782969   0.231573
      2       0.000000   0.000000   0.000000
      3      -0.275629  -0.200549   0.678070
      4       0.521622  -0.391482  -0.115785
      5       0.000000   0.000000   0.000000
      6      -0.275627   0.200547  -0.678072
      7      -0.521618  -0.391487  -0.115788
      8       0.000000   0.000000   0.000000


-----------
IR SPECTRUM  
-----------

 Mode    freq (cm**-1)   T**2         TX         TY         TZ
-------------------------------------------------------------------
   6:        65.17    0.236013  (  0.485812  -0.000018  -0.000003)
   7:       123.51    0.055624  (  0.000095  -0.235847  -0.000001)
   8:       186.81    0.238708  ( -0.000088  -0.488577   0.000012)

The first frequency considered to be a vibration is 6
The total number of vibrations considered is 3


--------------------------
THERMOCHEMISTRY AT 298.15K
--------------------------

Temperature         ... 298.15 K
Pressure            ... 1.00 atm
Total Mass          ... 323.61 AMU

Throughout the following assumptions are being made:
  (1) The electronic state is orbitally nondegenerate
      but the spin degeneracy is treated
  (2) There are no thermally accessible electronically excited states
  (3) Hindered rotations indicated by low frequency modes are not
      treated as such but are treated as vibrations and this may
      cause some error
  (4) All equations used are the standard statistical mechanics
      equations for an ideal gas
  (5) All vibrations are strictly harmonic

freq.      65.17  E(vib)   ...       0.50 
freq.     123.51  E(vib)   ...       0.43 
freq.     186.81  E(vib)   ...       0.37 

------------
INNER ENERGY
------------

The inner energy is: U= E(el) + E(ZPE) + E(vib) + E(rot) + E(trans)
    E(el)   - is the total energy from the electronic structure calculation
              = E(kin-el) + E(nuc-el) + E(el-el) + E(nuc-nuc)
    E(ZPE)  - the the zero temperature vibrational energy from the frequency calculation
    E(vib)  - the the finite temperature correction to E(ZPE) due to population
              of excited vibrational states
    E(rot)  - is the rotational thermal energy
    E(trans)- is the translational thermal energy

Summary of contributions to the inner energy U:
Electronic energy                ...   -440.83924193 Eh
Zero point energy                ...      0.00085544 Eh       0.54 kcal/mol
Thermal vibrational correction   ...      0.00207584 Eh       1.30 kcal/mol
Thermal rotational correction    ...      0.00141627 Eh       0.89 kcal/mol
Thermal translational correction ...      0.00141627 Eh       0.89 kcal/mol
-----------------------------------------------------------------------
Total thermal energy                   -440.83347811 Eh


Summary of corrections to the electronic energy:
(perhaps to be used in another calculation)
Total thermal correction                  0.00490838 Eh       3.08 kcal/mol
Non-thermal (ZPE) correction              0.00085544 Eh       0.54 kcal/mol
-----------------------------------------------------------------------
Total correction                          0.00576382 Eh       3.62 kcal/mol


--------
ENTHALPY
--------

The enthalpy is H = U + kB*T
                kB is Boltzmann's constant
Total free energy                 ...   -440.83347811 Eh 
Thermal Enthalpy correction       ...      0.00094421 Eh       0.59 kcal/mol
-----------------------------------------------------------------------
Total Enthalpy                    ...   -440.83253390 Eh


Note: Rotational entropy computed according to Herzberg 
Infrared and Raman Spectra, Chapter V,1, Van Nostrand Reinhold, 1945 
Point Group:  Cs, Symmetry Number:   1  
Rotational constants in cm-1:     0.047065     0.039424     0.021453 

Vibrational entropy computed according to the QRRHO of S. Grimme
Chem.Eur.J. 2012 18 9955


-------
ENTROPY
-------

The entropy contributions are T*S = T*(S(el)+S(vib)+S(rot)+S(trans))
     S(el)   - electronic entropy
     S(vib)  - vibrational entropy
     S(rot)  - rotational entropy
     S(trans)- translational entropy
The entropies will be listed as mutliplied by the temperature to get
units of energy

Electronic entropy                ...      0.00065446 Eh      0.41 kcal/mol
Vibrational entropy               ...      0.00409448 Eh      2.57 kcal/mol
Rotational entropy                ...      0.01429379 Eh      8.97 kcal/mol
Translational entropy             ...      0.02053447 Eh     12.89 kcal/mol
-----------------------------------------------------------------------
Final entropy term                ...      0.03957720 Eh     24.84 kcal/mol

In case the symmetry of your molecule has not been determined correctly
or in case you have a reason to use a different symmetry number we print 
out the resulting rotational entropy values for sn=1,12 :
 --------------------------------------------------------
|  sn= 1 | S(rot)=       0.01429379 Eh      8.97 kcal/mol|
|  sn= 2 | S(rot)=       0.01363933 Eh      8.56 kcal/mol|
|  sn= 3 | S(rot)=       0.01325650 Eh      8.32 kcal/mol|
|  sn= 4 | S(rot)=       0.01298488 Eh      8.15 kcal/mol|
|  sn= 5 | S(rot)=       0.01277419 Eh      8.02 kcal/mol|
|  sn= 6 | S(rot)=       0.01260204 Eh      7.91 kcal/mol|
|  sn= 7 | S(rot)=       0.01245650 Eh      7.82 kcal/mol|
|  sn= 8 | S(rot)=       0.01233042 Eh      7.74 kcal/mol|
|  sn= 9 | S(rot)=       0.01221921 Eh      7.67 kcal/mol|
|  sn=10 | S(rot)=       0.01211973 Eh      7.61 kcal/mol|
|  sn=11 | S(rot)=       0.01202974 Eh      7.55 kcal/mol|
|  sn=12 | S(rot)=       0.01194759 Eh      7.50 kcal/mol|
 --------------------------------------------------------


-------------------
GIBBS FREE ENERGY
-------------------

The Gibbs free energy is G = H - T*S

Total enthalpy                    ...   -440.83253390 Eh 
Total entropy correction          ...     -0.03957720 Eh    -24.84 kcal/mol
-----------------------------------------------------------------------
Final Gibbs free energy         ...   -440.87211109 Eh

For completeness - the Gibbs free energy minus the electronic energy
G-E(el)                           ...     -0.03286917 Eh    -20.63 kcal/mol


Total Time for Numerical Frequencies  :        43.938 sec

Timings for individual modules:

Sum of individual times         ...       59.737 sec (=   0.996 min)
GTO integral calculation        ...        9.243 sec (=   0.154 min)  15.5 %
SCF iterations                  ...       32.052 sec (=   0.534 min)  53.7 %
SCF Gradient evaluation         ...       18.182 sec (=   0.303 min)  30.4 %
Geometry relaxation             ...        0.260 sec (=   0.004 min)   0.4 %
                             ****ORCA TERMINATED NORMALLY****
TOTAL RUN TIME: 0 days 0 hours 1 minutes 40 seconds 495 msec
