
                                 *****************
                                 * O   R   C   A *
                                 *****************

           --- An Ab Initio, DFT and Semiempirical electronic structure package ---

                  #######################################################
                  #                        -***-                        #
                  #          Department of theory and spectroscopy      #
                  #               Directorship: Frank Neese             #
                  #        Max Planck Institute fuer Kohlenforschung    #
                  #                Kaiser Wilhelm Platz 1               #
                  #                 D-45470 Muelheim/Ruhr               #
                  #                      Germany                        #
                  #                                                     #
                  #                  All rights reserved                #
                  #                        -***-                        #
                  #######################################################


                         Program Version 4.2.0 -  RELEASE  -


 With contributions from (in alphabetic order):
   Daniel Aravena         : Magnetic Suceptibility
   Michael Atanasov       : Ab Initio Ligand Field Theory (pilot matlab implementation)
   Alexander A. Auer      : GIAO ZORA, VPT2
   Ute Becker             : Parallelization
   Giovanni Bistoni       : ED, misc. LED, open-shell LED, HFLED
   Martin Brehm           : Molecular dynamics
   Dmytro Bykov           : SCF Hessian
   Vijay G. Chilkuri      : MRCI spin determinant printing, contributions to CSF-ICE
   Dipayan Datta          : RHF DLPNO-CCSD density
   Achintya Kumar Dutta   : EOM-CC, STEOM-CC
   Dmitry Ganyushin       : Spin-Orbit,Spin-Spin,Magnetic field MRCI
   Miquel Garcia          : C-PCM Hessian, Gaussian charge scheme
   Yang Guo               : DLPNO-NEVPT2, CIM, IAO-localization
   Andreas Hansen         : Spin unrestricted coupled pair/coupled cluster methods
   Benjamin Helmich-Paris : CASSCF linear response (MC-RPA)
   Lee Huntington         : MR-EOM, pCC
   Robert Izsak           : Overlap fitted RIJCOSX, COSX-SCS-MP3, EOM
   Christian Kollmar      : KDIIS, OOCD, Brueckner-CCSD(T), CCSD density
   Simone Kossmann        : Meta GGA functionals, TD-DFT gradient, OOMP2, MP2 Hessian
   Martin Krupicka        : AUTO-CI
   Lucas Lang             : DCDCAS
   Dagmar Lenk            : GEPOL surface, SMD
   Dimitrios Liakos       : Extrapolation schemes; Compound Job, initial MDCI parallelization
   Dimitrios Manganas     : Further ROCIS development; embedding schemes
   Dimitrios Pantazis     : SARC Basis sets
   Taras Petrenko         : DFT Hessian,TD-DFT gradient, ASA, ECA, R-Raman, ABS, FL, XAS/XES, NRVS
   Peter Pinski           : DLPNO-MP2, DLPNO-MP2 Gradient
   Christoph Reimann      : Effective Core Potentials
   Marius Retegan         : Local ZFS, SOC
   Christoph Riplinger    : Optimizer, TS searches, QM/MM, DLPNO-CCSD(T), (RO)-DLPNO pert. Triples
   Tobias Risthaus        : Range-separated hybrids, TD-DFT gradient, RPA, STAB
   Michael Roemelt        : Original ROCIS implementation
   Masaaki Saitow         : Open-shell DLPNO-CCSD energy and density
   Barbara Sandhoefer     : DKH picture change effects
   Avijit Sen             : IP-ROCIS
   Kantharuban Sivalingam : CASSCF convergence, NEVPT2, FIC-MRCI
   Bernardo de Souza      : ESD, SOC TD-DFT
   Georgi Stoychev        : AutoAux, RI-MP2 NMR
   Willem Van den Heuvel  : Paramagnetic NMR
   Boris Wezisla          : Elementary symmetry handling
   Frank Wennmohs         : Technical directorship


 We gratefully acknowledge several colleagues who have allowed us to
 interface, adapt or use parts of their codes:
   Stefan Grimme, W. Hujo, H. Kruse,             : VdW corrections, initial TS optimization,
                  C. Bannwarth                     DFT functionals, gCP, sTDA/sTD-DF
   Ed Valeev, F. Pavosevic, A. Kumar             : LibInt (2-el integral package), F12 methods
   Garnet Chan, S. Sharma, J. Yang, R. Olivares  : DMRG
   Ulf Ekstrom                                   : XCFun DFT Library
   Mihaly Kallay                                 : mrcc  (arbitrary order and MRCC methods)
   Andreas Klamt, Michael Diedenhofen            : otool_cosmo (COSMO solvation model)
   Jiri Pittner, Ondrej Demel                    : Mk-CCSD
   Frank Weinhold                                : gennbo (NPA and NBO analysis)
   Christopher J. Cramer and Donald G. Truhlar   : smd solvation model
   Lars Goerigk                                  : TD-DFT with DH, B97 family of functionals
   V. Asgeirsson, H. Jonsson                     : NEB implementation
   FAccTs GmbH                                   : IRC, NEB, NEB-TS, Multilevel, MM, QM/MM, CI optimization
   S Lehtola, MJT Oliveira, MAL Marques          : LibXC Library


 Your calculation uses the libint2 library for the computation of 2-el integrals
 For citations please refer to: http://libint.valeyev.net

 Your ORCA version has been built with support for libXC version: 4.2.3
 For citations please refer to: https://tddft.org/programs/libxc/

 This ORCA versions uses:
   CBLAS   interface :  Fast vector & matrix operations
   LAPACKE interface :  Fast linear algebra routines
   SCALAPACK package :  Parallel linear algebra routines


Your calculation utilizes the atom-pairwise dispersion correction
with the Becke-Johnson damping scheme (D3BJ)
Cite in your paper:
S.Grimme, S.Ehrlich, L.Goerigk, J Comput Chem, (2011), 32, 1456–1465 
S.Grimme, J.Antony, S.Ehrlich and H.Krieg, J.Chem.Phys., 132, (2010), 154104 
   

----- Orbital basis set information -----
Your calculation utilizes the basis: def2-TZVPPD
   F. Weigend and R. Ahlrichs, Phys. Chem. Chem. Phys. 7, 3297 (2005).
   D. Rappoport and F. Furche, J. Chem. Phys. 133 134105 (2010).

----- AuxJ basis set information -----
Your calculation utilizes the auxiliary basis: def2/J
   F. Weigend, Phys. Chem. Chem. Phys. 8, 1057 (2006).

cite the ECPs for Au [Def2-ECP] as follows:
Ce-Yb(ecp-28): M. Dolg, H. Stoll, H.Preuss, J. Chem. Phys., 1989, 90, 1730-1734.
Y-Cd(ecp-28), Hf-Hg(ecp-46): D. Andrae,U. Haeussermann, M. Dolg, H. Stoll, H. Preuss, Theor. Chim. Acta, 1990, 77, 123-141.
In-Sb(ecp-28), Tl-Bi(ecp-46): B. Metz, H. Stoll, M. Dolg, J. Chem. Phys., 2000, 113, 2563-2569.
Te-Xe(ecp-28), Po-Rn(ecp-46): K. A. Peterson, D. Figgen, E. Goll, H. Stoll, M. Dolg, J. Chem. Phys., 2003, 119, 11113-11123.
Rb(ecp-28), Cs(ecp-46): T. Leininger, A. Nicklass, W. Kuechle, H. Stoll, M. Dolg, A. Bergner, Chem. Phys. Lett., 1996, 255, 274-280.
Sr(ecp-28), Ba(ecp-46): M. Kaupp, P. V. Schleyer, H. Stoll and H. Preuss, J. Chem. Phys., 1991, 94, 1360-1366.
La(ecp-46): M. Dolg, H. Stoll, A. Savin, H. Preuss, Theor. Chim. Acta, 1989, 75, 173-194.
Lu(ecp-28): X. Cao, M. Dolg, J. Chem. Phys., 2001, 115, 7348-7355.

ECP parameters for Au [Def2-ECP] have been obtained from:
TURBOMOLE (7.0.2)

================================================================================
                                        WARNINGS
                       Please study these warnings very carefully!
================================================================================


WARNING: Geometry Optimization
  ===> : Switching off AutoStart
         For restart on a previous wavefunction, please use MOREAD

INFO   : the flag for use of LIBINT has been found!

================================================================================
                                       INPUT FILE
================================================================================
NAME = Au01N0_H.in
|  1> #
|  2> # Au01N0_H TPSS-D3BJ/Def2-TZVPPD
|  3> #
|  4> ! tpss d3bj def2-tzvppd def2/j grid4 nofinalgrid opt xyzfile numfreq
|  5> 
|  6> *xyz 0 1
|  7> Au       0.000000    0.000000    0.019034 
|  8> H        0.000000    0.000000   -1.503691 
|  9> *
| 10> 
| 11> %maxcore 5000
| 12> 
| 13> %pal
| 14> nprocs = 24
| 15> end
| 16> 
| 17> 
| 18>                          ****END OF INPUT****
================================================================================

                       *****************************
                       * Geometry Optimization Run *
                       *****************************

Geometry optimization settings:
Update method            Update   .... BFGS
Choice of coordinates    CoordSys .... Z-matrix Internals
Initial Hessian          InHess   .... Almoef's Model

Convergence Tolerances:
Energy Change            TolE     ....  5.0000e-06 Eh
Max. Gradient            TolMAXG  ....  3.0000e-04 Eh/bohr
RMS Gradient             TolRMSG  ....  1.0000e-04 Eh/bohr
Max. Displacement        TolMAXD  ....  4.0000e-03 bohr
RMS Displacement         TolRMSD  ....  2.0000e-03 bohr
Strict Convergence                ....  False
------------------------------------------------------------------------------
                        ORCA OPTIMIZATION COORDINATE SETUP
------------------------------------------------------------------------------

The optimization will be done in new redundant internal coordinates
Making redundant internal coordinates   ...  (new redundants) done
Evaluating the initial hessian          ...  (Almloef) done
Evaluating the coordinates              ...  done
Calculating the B-matrix                .... done
Calculating the G-matrix                .... done
Diagonalizing the G-matrix              .... done
The first mode is                       ....    0
The number of degrees of freedom        ....    1

    -----------------------------------------------------------------
                    Redundant Internal Coordinates


    -----------------------------------------------------------------
         Definition                    Initial Value    Approx d2E/dq
    -----------------------------------------------------------------
      1. B(H   1,Au  0)                  1.5227         0.102242   
    -----------------------------------------------------------------

Number of atoms                         .... 2
Number of degrees of freedom            .... 1

         *************************************************************
         *                GEOMETRY OPTIMIZATION CYCLE   1            *
         *************************************************************
---------------------------------
CARTESIAN COORDINATES (ANGSTROEM)
---------------------------------
  Au     0.000000    0.000000    0.019034
  H      0.000000    0.000000   -1.503691

----------------------------
CARTESIAN COORDINATES (A.U.)
----------------------------
  NO LB      ZA    FRAG     MASS         X           Y           Z
   0 Au   19.0000*   0   196.966    0.000000    0.000000    0.035969
   1 H     1.0000    0     1.008    0.000000    0.000000   -2.841564
* core charge reduced due to ECP

--------------------------------
INTERNAL COORDINATES (ANGSTROEM)
--------------------------------
 Au     0   0   0     0.000000000000     0.00000000     0.00000000
 H      1   0   0     1.522725000000     0.00000000     0.00000000

---------------------------
INTERNAL COORDINATES (A.U.)
---------------------------
 Au     0   0   0     0.000000000000     0.00000000     0.00000000
 H      1   0   0     2.877533227275     0.00000000     0.00000000

---------------------
BASIS SET INFORMATION
---------------------
There are 2 groups of distinct atoms

 Group   1 Type Au  : 8s8p6d2f1g contracted to 6s5p3d2f1g pattern {311111/41111/411/11/1}
 Group   2 Type H   : 5s3p1d contracted to 3s3p1d pattern {311/111/1}

Atom   0Au   basis set group =>   1
Atom   1H    basis set group =>   2
---------------------------------
AUXILIARY/J BASIS SET INFORMATION
---------------------------------
There are 2 groups of distinct atoms

 Group   1 Type Au  : 11s5p5d3f3g contracted to 8s5p5d2f3g pattern {41111111/11111/11111/21/111}
 Group   2 Type H   : 5s2p1d contracted to 3s1p1d pattern {311/2/1}

Atom   0Au   basis set group =>   1
Atom   1H    basis set group =>   2
-------------------------
ECP PARAMETER INFORMATION
-------------------------

 Group 1, Type Au ECP Def2-ECP (replacing 60 core electrons, lmax=3)

Atom   0Au   ECP group =>   1



           ************************************************************
           *        Program running with 24 parallel MPI-processes    *
           *              working on a common directory               *
           ************************************************************
------------------------------------------------------------------------------
                           ORCA GTO INTEGRAL CALCULATION
                           -- RI-GTO INTEGRALS CHOSEN --
------------------------------------------------------------------------------

                         BASIS SET STATISTICS AND STARTUP INFO

Gaussian basis set:
 # of primitive gaussian shells          ...   34
 # of primitive gaussian functions       ...  104
 # of contracted shells                  ...   24
 # of contracted basis functions         ...   76
 Highest angular momentum                ...    4
 Maximum contraction depth               ...    4
Auxiliary gaussian basis set:
 # of primitive gaussian shells          ...   35
 # of primitive gaussian functions       ...  115
 # of contracted shells                  ...   28
 # of contracted aux-basis functions     ...  100
 Highest angular momentum                ...    4
 Maximum contraction depth               ...    4
Ratio of auxiliary to basis functions    ...  1.32
Integral package used                  ... LIBINT
 One Electron integrals                  
   ECP integrals                         ... done
 Ordering auxiliary basis shells         ... done
 Integral threshhold             Thresh  ...  2.500e-11
 Primitive cut-off               TCut    ...  2.500e-12
 Pre-screening matrix                    ... done
 Shell pair data                         ... 
 Ordering of the shell pairs             ... done (   0.000 sec) 300 of 300 pairs
 Determination of significant pairs      ... done (   0.000 sec)
 Creation of shell pair data             ... done (   0.000 sec)
 Storage of shell pair data              ... done (   0.017 sec)
 Shell pair data done in (   0.017 sec)
 Computing two index integrals           ... done
 Cholesky decomposition of the V-matrix  ... done


Timings:
 Total evaluation time                   ...   0.190 sec (  0.003 min)
 One electron matrix time                ...   0.058 sec (  0.001 min) = 30.3%
 Schwartz matrix evaluation time         ...   0.088 sec (  0.001 min) = 46.3%
 Two index repulsion integral time       ...   0.000 sec (  0.000 min) =  0.2%
 Cholesky decomposition of V             ...   0.001 sec (  0.000 min) =  0.3%
 Three index repulsion integral time     ...   0.000 sec (  0.000 min) =  0.0%



           ************************************************************
           *        Program running with 24 parallel MPI-processes    *
           *              working on a common directory               *
           ************************************************************
-------------------------------------------------------------------------------
                                 ORCA SCF
-------------------------------------------------------------------------------

------------
SCF SETTINGS
------------
Hamiltonian:
 Density Functional     Method          .... DFT(GTOs)
 Exchange Functional    Exchange        .... TPSS
 Correlation Functional Correlation     .... TPSS
 LDA part of GGA corr.  LDAOpt          .... PW91-LDA
 Gradients option       PostSCFGGA      .... off
   Density functional embedding theory  .... OFF
   NL short-range parameter             ....  5.000000
 RI-approximation to the Coulomb term is turned on
   Number of auxiliary basis functions  .... 100


General Settings:
 Integral files         IntName         .... Au01N0_H
 Hartree-Fock type      HFTyp           .... RHF
 Total Charge           Charge          ....    0
 Multiplicity           Mult            ....    1
 Number of Electrons    NEL             ....   20
 Basis Dimension        Dim             ....   76
 Nuclear Repulsion      ENuc            ....      6.6028777079 Eh

Convergence Acceleration:
 DIIS                   CNVDIIS         .... on
   Start iteration      DIISMaxIt       ....    12
   Startup error        DIISStart       ....  0.200000
   # of expansion vecs  DIISMaxEq       ....     5
   Bias factor          DIISBfac        ....   1.050
   Max. coefficient     DIISMaxC        ....  10.000
 Newton-Raphson         CNVNR           .... off
 SOSCF                  CNVSOSCF        .... off
 Level Shifting         CNVShift        .... on
   Level shift para.    LevelShift      ....    0.2500
   Turn off err/grad.   ShiftErr        ....    0.0010
 Zerner damping         CNVZerner       .... off
 Static damping         CNVDamp         .... on
   Fraction old density DampFac         ....    0.7000
   Max. Damping (<1)    DampMax         ....    0.9800
   Min. Damping (>=0)   DampMin         ....    0.0000
   Turn off err/grad.   DampErr         ....    0.1000
 Fernandez-Rico         CNVRico         .... off

SCF Procedure:
 Maximum # iterations   MaxIter         ....   125
 SCF integral mode      SCFMode         .... Direct
   Integral package                     .... LIBINT
 Reset frequency        DirectResetFreq ....    20
 Integral Threshold     Thresh          ....  2.500e-11 Eh
 Primitive CutOff       TCut            ....  2.500e-12 Eh

Convergence Tolerance:
 Convergence Check Mode ConvCheckMode   .... Total+1el-Energy
 Convergence forced     ConvForced      .... 0
 Energy Change          TolE            ....  1.000e-08 Eh
 1-El. energy change                    ....  1.000e-05 Eh
 DIIS Error             TolErr          ....  5.000e-07


Diagonalization of the overlap matrix:
Smallest eigenvalue                        ... 2.371e-03
Time for diagonalization                   ...    0.003 sec
Threshold for overlap eigenvalues          ... 1.000e-08
Number of eigenvalues below threshold      ... 0
Time for construction of square roots      ...    0.001 sec
Total time needed                          ...    0.004 sec

-------------------
DFT GRID GENERATION
-------------------

General Integration Accuracy     IntAcc      ...  4.670
Radial Grid Type                 RadialGrid  ... Gauss-Chebyshev
Angular Grid (max. acc.)         AngularGrid ... Lebedev-302
Angular grid pruning method      GridPruning ... 3 (G Style)
Weight generation scheme         WeightScheme... Becke
Basis function cutoff            BFCut       ...    1.0000e-11
Integration weight cutoff        WCut        ...    1.0000e-14
Grids for H and He will be reduced by one unit

# of grid points (after initial pruning)     ...  15046 (   0.0 sec)
# of grid points (after weights+screening)   ...  15004 (   0.0 sec)
nearest neighbour list constructed           ...    0.0 sec
Grid point re-assignment to atoms done       ...    0.0 sec
Grid point division into batches done        ...    0.1 sec
Reduced shell lists constructed in    0.1 sec

Total number of grid points                  ...    15004
Total number of batches                      ...      235
Average number of points per batch           ...       63
Average number of grid points per atom       ...     7502
Average number of shells per batch           ...     2.09 ( 8.71%)
Average number of basis functions per batch  ...     4.45 ( 5.86%)
Average number of large shells per batch     ...     1.36 (65.22%)
Average number of large basis fcns per batch ...     3.73 (83.67%)
Maximum spatial batch extension              ...  41.49, 37.74, 22.16 au
Average spatial batch extension              ...   1.25,  1.14,  0.83 au

Time for grid setup =    0.140 sec

------------------------------
INITIAL GUESS: MODEL POTENTIAL
------------------------------
Loading Hartree-Fock densities                     ... done
  calling /sw/apps/orca/orca_4_2_0_linux_x86-64_openmpi314/orca Au01N0_H_atom79.inp > Au01N0_H_atom79.out in order to generate an atomic fitting density for atom 0 (Au with ECP) on-the-fly... 
    atom 0 (Au), assumed electronic state with S=2: 1s2 2s2 2p6 3s2 3p6 4s2 3d10 4p6 5s2 4d10 5p6 6s1 4f14 5d10           ... done
Calculating cut-offs                               ... done
Setting up the integral package                    ... done
Initializing the effective Hamiltonian             ... done
Starting the Coulomb interaction                   ... done (   0.0 sec)
Reading the grid                                   ... done
Mapping shells                                     ... done
Starting the XC term evaluation                    ... done (   0.0 sec)
  promolecular density results
     # of electrons  =     80.002904006
     EX              =   -366.087238892
     EC              =     -4.843832197
     EX+EC           =   -370.931071088
Transforming the Hamiltonian                       ... done (   0.0 sec)
Diagonalizing the Hamiltonian                      ... done (   0.0 sec)
Back transforming the eigenvectors                 ... done (   0.0 sec)
Now organizing SCF variables                       ... done
                      ------------------
                      INITIAL GUESS DONE (   1.2 sec)
                      ------------------
--------------
SCF ITERATIONS
--------------
ITER       Energy         Delta-E        Max-DP      RMS-DP      [F,P]     Damp
               ***  Starting incremental Fock matrix formation  ***
  0   -136.2014307590   0.000000000000 0.25162357  0.00503391  0.5690410 0.7000
  1   -136.2401318333  -0.038701074308 0.16133553  0.00324258  0.3890556 0.7000
  2   -136.2564179872  -0.016286153946 0.09632043  0.00190205  0.2662428 0.7000
                               ***Turning on DIIS***
  3   -136.2669420378  -0.010524050605 0.06292940  0.00123529  0.1844040 0.7000
  4   -136.2745851153  -0.007643077506 0.04532287  0.00086009  0.1287000 0.7000
  5   -136.2799991510  -0.005414035625 0.11016675  0.00204698  0.0901337 0.0000
  6   -136.2926064348  -0.012607283875 0.00187509  0.00008797  0.0019258 0.0000
  7   -136.2926192746  -0.000012839745 0.00252668  0.00005960  0.0010294 0.0000
  8   -136.2926240132  -0.000004738587 0.00319492  0.00008942  0.0004368 0.0000
  9   -136.2926261088  -0.000002095644 0.00068167  0.00002380  0.0004422 0.0000
 10   -136.2926265466  -0.000000437750 0.00042598  0.00001207  0.0002788 0.0000
 11   -136.2926266998  -0.000000153215 0.00015370  0.00000339  0.0000802 0.0000
 12   -136.2926267143  -0.000000014480 0.00001369  0.00000028  0.0000051 0.0000
                 **** Energy Check signals convergence ****

               *****************************************************
               *                     SUCCESS                       *
               *           SCF CONVERGED AFTER  13 CYCLES          *
               *****************************************************


----------------
TOTAL SCF ENERGY
----------------

Total Energy       :         -136.29262671 Eh           -3708.71092 eV

Components:
Nuclear Repulsion  :            6.60287771 Eh             179.67344 eV
Electronic Energy  :         -142.89550442 Eh           -3888.38436 eV
One Electron Energy:         -251.89757493 Eh           -6854.48149 eV
Two Electron Energy:          109.00207051 Eh            2966.09713 eV

Virial components:
Potential Energy   :         -182.56299338 Eh           -4967.79161 eV
Kinetic Energy     :           46.27036667 Eh            1259.08069 eV
Virial Ratio       :            3.94557049


DFT components:
N(Alpha)           :       10.000001211587 electrons
N(Beta)            :       10.000001211587 electrons
N(Total)           :       20.000002423174 electrons
E(X)               :      -12.276261689818 Eh       
E(C)               :       -0.830534822916 Eh       
E(XC)              :      -13.106796512734 Eh       
DFET-embed. en.    :        0.000000000000 Eh       

---------------
SCF CONVERGENCE
---------------

  Last Energy change         ...    1.3210e-10  Tolerance :   1.0000e-08
  Last MAX-Density change    ...    8.6207e-07  Tolerance :   1.0000e-07
  Last RMS-Density change    ...    3.0221e-08  Tolerance :   5.0000e-09
  Last DIIS Error            ...    4.6829e-07  Tolerance :   5.0000e-07

             **** THE GBW FILE WAS UPDATED (Au01N0_H.gbw) ****
             **** DENSITY FILE WAS UPDATED (Au01N0_H.scfp) ****
             **** ENERGY FILE WAS UPDATED (Au01N0_H.en.tmp) ****
             **** THE GBW FILE WAS UPDATED (Au01N0_H.gbw) ****
             **** DENSITY FILE WAS UPDATED (Au01N0_H.scfp) ****
----------------
ORBITAL ENERGIES
----------------

  NO   OCC          E(Eh)            E(eV) 
   0   2.0000      -4.034407      -109.7818 
   1   2.0000      -2.257978       -61.4427 
   2   2.0000      -2.233955       -60.7890 
   3   2.0000      -2.233955       -60.7890 
   4   2.0000      -0.392912       -10.6917 
   5   2.0000      -0.283470        -7.7136 
   6   2.0000      -0.283470        -7.7136 
   7   2.0000      -0.262031        -7.1302 
   8   2.0000      -0.262030        -7.1302 
   9   2.0000      -0.235510        -6.4085 
  10   0.0000      -0.111064        -3.0222 
  11   0.0000      -0.020372        -0.5543 
  12   0.0000      -0.020372        -0.5543 
  13   0.0000       0.065206         1.7744 
  14   0.0000       0.085886         2.3371 
  15   0.0000       0.161539         4.3957 
  16   0.0000       0.161539         4.3957 
  17   0.0000       0.169205         4.6043 
  18   0.0000       0.196146         5.3374 
  19   0.0000       0.196146         5.3374 
  20   0.0000       0.292229         7.9519 
  21   0.0000       0.292229         7.9520 
  22   0.0000       0.357554         9.7295 
  23   0.0000       0.381624        10.3845 
  24   0.0000       0.381624        10.3845 
  25   0.0000       0.419923        11.4267 
  26   0.0000       0.434002        11.8098 
  27   0.0000       0.770793        20.9743 
  28   0.0000       0.770793        20.9743 
  29   0.0000       0.924472        25.1562 
  30   0.0000       1.023303        27.8455 
  31   0.0000       1.023303        27.8455 
  32   0.0000       1.070384        29.1266 
  33   0.0000       1.070392        29.1268 
  34   0.0000       1.090001        29.6604 
  35   0.0000       1.090001        29.6604 
  36   0.0000       1.159856        31.5613 
  37   0.0000       1.259194        34.2644 
  38   0.0000       1.259194        34.2644 
  39   0.0000       1.397622        38.0312 
  40   0.0000       1.432714        38.9861 
  41   0.0000       1.432723        38.9864 
  42   0.0000       1.556498        42.3545 
  43   0.0000       1.556498        42.3545 
  44   0.0000       1.924245        52.3614 
  45   0.0000       2.219449        60.3943 
  46   0.0000       2.585813        70.3635 
  47   0.0000       3.141269        85.4783 
  48   0.0000       3.141312        85.4795 
  49   0.0000       3.310407        90.0808 
  50   0.0000       3.310407        90.0808 
  51   0.0000       3.501935        95.2925 
  52   0.0000       3.502273        95.3017 
  53   0.0000       3.502273        95.3017 
  54   0.0000       3.561975        96.9263 
  55   0.0000       3.561988        96.9266 
  56   0.0000       3.590986        97.7157 
  57   0.0000       3.590986        97.7157 
  58   0.0000       3.736374       101.6719 
  59   0.0000       3.906224       106.2938 
  60   0.0000       3.906224       106.2938 
  61   0.0000       4.059569       110.4665 
  62   0.0000       4.059569       110.4665 
  63   0.0000       4.071579       110.7933 
  64   0.0000       4.071645       110.7951 
  65   0.0000       4.125580       112.2627 
  66   0.0000       4.125583       112.2628 
  67   0.0000       4.552831       123.8888 
  68   0.0000       4.764942       129.6607 
  69   0.0000       4.764942       129.6607 
  70   0.0000       5.488303       149.3443 
  71   0.0000      27.352061       744.2874 
  72   0.0000      27.352061       744.2874 
  73   0.0000      29.794488       810.7492 
  74   0.0000      44.251835      1204.1537 
  75   0.0000     205.204242      5583.8913 

                    ********************************
                    * MULLIKEN POPULATION ANALYSIS *
                    ********************************

-----------------------
MULLIKEN ATOMIC CHARGES
-----------------------
   0 Au:   -0.174169
   1 H :    0.174169
Sum of atomic charges:    0.0000000

--------------------------------
MULLIKEN REDUCED ORBITAL CHARGES
--------------------------------
  0 Aus       :     3.441440  s :     3.441440
      pz      :     2.053798  p :     6.053955
      px      :     2.000079
      py      :     2.000079
      dz2     :     1.710418  d :     9.674815
      dxz     :     1.982450
      dyz     :     1.982450
      dx2y2   :     1.999749
      dxy     :     1.999749
      f0      :     0.003442  f :     0.003586
      f+1     :    -0.000012
      f-1     :    -0.000012
      f+2     :     0.000084
      f-2     :     0.000084
      f+3     :     0.000000
      f-3     :     0.000000
      g0      :     0.000250  g :     0.000373
      g+1     :     0.000050
      g-1     :     0.000050
      g+2     :     0.000012
      g-2     :     0.000012
      g+3     :     0.000000
      g-3     :     0.000000
      g+4     :     0.000000
      g-4     :     0.000000
  1 H s       :     0.804167  s :     0.804167
      pz      :    -0.015023  p :     0.016955
      px      :     0.015989
      py      :     0.015989
      dz2     :     0.001508  d :     0.004708
      dxz     :     0.001445
      dyz     :     0.001445
      dx2y2   :     0.000155
      dxy     :     0.000155


                     *******************************
                     * LOEWDIN POPULATION ANALYSIS *
                     *******************************

----------------------
LOEWDIN ATOMIC CHARGES
----------------------
   0 Au:    0.350331
   1 H :   -0.350331

-------------------------------
LOEWDIN REDUCED ORBITAL CHARGES
-------------------------------
  0 Aus       :     3.021824  s :     3.021824
      pz      :     2.015194  p :     6.009850
      px      :     1.997328
      py      :     1.997328
      dz2     :     1.729111  d :     9.609288
      dxz     :     1.940847
      dyz     :     1.940847
      dx2y2   :     1.999242
      dxy     :     1.999242
      f0      :     0.007330  f :     0.008422
      f+1     :     0.000452
      f-1     :     0.000452
      f+2     :     0.000094
      f-2     :     0.000094
      f+3     :     0.000000
      f-3     :     0.000000
      g0      :     0.000262  g :     0.000286
      g+1     :     0.000002
      g-1     :     0.000002
      g+2     :     0.000010
      g-2     :     0.000010
      g+3     :     0.000000
      g-3     :     0.000000
      g+4     :     0.000000
      g-4     :     0.000000
  1 H s       :     1.039536  s :     1.039536
      pz      :     0.168170  p :     0.269558
      px      :     0.050694
      py      :     0.050694
      dz2     :     0.018574  d :     0.041238
      dxz     :     0.010678
      dyz     :     0.010678
      dx2y2   :     0.000655
      dxy     :     0.000655


                      *****************************
                      * MAYER POPULATION ANALYSIS *
                      *****************************

  NA   - Mulliken gross atomic population
  ZA   - Total nuclear charge
  QA   - Mulliken gross atomic charge
  VA   - Mayer's total valence
  BVA  - Mayer's bonded valence
  FA   - Mayer's free valence

  ATOM       NA         ZA         QA         VA         BVA        FA
  0 Au    19.1742    19.0000    -0.1742     1.0172     1.0172     0.0000
  1 H      0.8258     1.0000     0.1742     1.0172     1.0172     0.0000

  Mayer bond orders larger than 0.100000
B(  0-Au,  1-H ) :   1.0172 

-------
TIMINGS
-------

Total SCF time: 0 days 0 hours 0 min 2 sec 

Total time                  ....       2.696 sec
Sum of individual times     ....       2.608 sec  ( 96.7%)

Fock matrix formation       ....       1.349 sec  ( 50.0%)
  Split-RI-J                ....       0.913 sec  ( 67.7% of F)
  XC integration            ....       0.396 sec  ( 29.3% of F)
    Basis function eval.    ....       0.016 sec  (  4.2% of XC)
    Density eval.           ....       0.021 sec  (  5.2% of XC)
    XC-Functional eval.     ....       0.018 sec  (  4.5% of XC)
    XC-Potential eval.      ....       0.039 sec  (  9.9% of XC)
Diagonalization             ....       0.013 sec  (  0.5%)
Density matrix formation    ....       0.004 sec  (  0.1%)
Population analysis         ....       0.002 sec  (  0.1%)
Initial guess               ....       1.091 sec  ( 40.5%)
Orbital Transformation      ....       0.000 sec  (  0.0%)
Orbital Orthonormalization  ....       0.000 sec  (  0.0%)
DIIS solution               ....       0.009 sec  (  0.3%)
Grid generation             ....       0.140 sec  (  5.2%)


-------------------------------------------------------------------------------
                          DFT DISPERSION CORRECTION                            
                                                                               
                              DFTD3 V3.1  Rev 1                                
                          USING Becke-Johnson damping                          
-------------------------------------------------------------------------------
The TPSS functional is recognized
Active option DFTDOPT                   ...         4   

molecular C6(AA) [au] = 382.853542 


            DFT-D V3
 parameters
 s6 scaling factor         :     1.0000 
 a1 scaling factor         :     0.4535 
 s8 scaling factor         :     1.9435 
 a2 scaling factor         :     4.4752 
 ad hoc parameters k1-k3   :    16.0000     1.3333    -4.0000 

 Edisp/kcal,au: -0.341224517447  -0.000543775824 
 E6   /kcal   :  -0.147259798 
 E8   /kcal   :  -0.193964720 
 % E8         :  56.843723010 

-------------------------   ----------------
Dispersion correction           -0.000543776
-------------------------   ----------------


-------------------------   --------------------
FINAL SINGLE POINT ENERGY      -136.293170489956
-------------------------   --------------------



           ************************************************************
           *        Program running with 24 parallel MPI-processes    *
           *              working on a common directory               *
           ************************************************************
------------------------------------------------------------------------------
                         ORCA SCF GRADIENT CALCULATION
------------------------------------------------------------------------------

Gradient of the Kohn-Sham DFT energy:
Kohn-Sham wavefunction type      ... RKS
Hartree-Fock exchange scaling    ...    0.000
Number of operators              ...    1
Number of atoms                  ...    2
Basis set dimensions             ...   76
Integral neglect threshold       ... 2.5e-11
Integral primitive cutoff        ... 2.5e-12

Nuclear repulsion gradient       ... done
One Electron Gradient            
  ECP gradient                   ... done
Pre-screening matrix             ... done
RI-J gradient                    ... done
Exchange-correlation gradient    ... done
Dispersion correction            ... done

------------------
CARTESIAN GRADIENT
------------------

   1   Au  :    0.000000003    0.000000000   -0.007948838
   2   H   :    0.000000003   -0.000000000    0.006858184

Difference to translation invariance:
           :    0.0000000059   -0.0000000001   -0.0010906544

Norm of the cartesian gradient     ...    0.0104985100
RMS gradient                       ...    0.0042859988
MAX gradient                       ...    0.0079488381

-------
TIMINGS
-------

Total SCF gradient time            ...        0.341 sec

One electron gradient       ....       0.083 sec  ( 24.3%)
Prescreening matrices       ....       0.003 sec  (  0.9%)
RI-J Coulomb gradient       ....       0.060 sec  ( 17.6%)
XC gradient                 ....       0.009 sec  (  2.7%)
------------------------------------------------------------------------------
                         ORCA GEOMETRY RELAXATION STEP
------------------------------------------------------------------------------

Reading the OPT-File                    .... done
Getting information on internals        .... done
Copying old internal coords+grads       .... done
Making the new internal coordinates     .... (new redundants).... done
Validating the new internal coordinates .... (new redundants).... done
Calculating the B-matrix                .... done
Calculating the G,G- and P matrices     .... done
Transforming gradient to internals      .... done
Projecting the internal gradient        .... done
Number of atoms                         ....   2
Number of internal coordinates          ....   1
Current Energy                          ....  -136.293170490 Eh
Current gradient norm                   ....     0.010498510 Eh/bohr
Maximum allowed component of the step   ....  0.300
Current trust radius                    ....  0.300
Evaluating the initial hessian          ....  (Almloef) done
Projecting the Hessian                  .... done
Forming the augmented Hessian           .... done
Diagonalizing the augmented Hessian     .... done
Last element of RFO vector              ....  0.997415446
Lowest eigenvalues of augmented Hessian:
 -0.000533321
Length of the computed step             ....  0.072036227
The final length of the internal step   ....  0.072036227
Converting the step to cartesian space:
 Initial RMS(Int)=    0.0720362268
Transforming coordinates:
 Iter   0:  RMS(Cart)=    0.0207950675 RMS(Int)=    0.0720362268
 Iter   1:  RMS(Cart)=    0.0000000000 RMS(Int)=    0.0000000000
done
Storing new coordinates                 .... done

                                .--------------------.
          ----------------------|Geometry convergence|-------------------------
          Item                value                   Tolerance       Converged
          ---------------------------------------------------------------------
          RMS gradient        0.0074035110            0.0001000000      NO
          MAX gradient        0.0074035110            0.0003000000      NO
          RMS step            0.0720362268            0.0020000000      NO
          MAX step            0.0720362268            0.0040000000      NO
          ........................................................
          Max(Bonds)      0.0381      Max(Angles)    0.00
          Max(Dihed)        0.00      Max(Improp)    0.00
          ---------------------------------------------------------------------

The optimization has not yet converged - more geometry cycles are needed


    ---------------------------------------------------------------------------
                         Redundant Internal Coordinates
                            (Angstroem and degrees)

        Definition                    Value    dE/dq     Step     New-Value
    ----------------------------------------------------------------------------
     1. B(H   1,Au  0)                1.5227 -0.007404  0.0381    1.5608   
    ----------------------------------------------------------------------------

         *************************************************************
         *                GEOMETRY OPTIMIZATION CYCLE   2            *
         *************************************************************
---------------------------------
CARTESIAN COORDINATES (ANGSTROEM)
---------------------------------
  Au     0.000000    0.000000    0.038094
  H      0.000000    0.000000   -1.522751

----------------------------
CARTESIAN COORDINATES (A.U.)
----------------------------
  NO LB      ZA    FRAG     MASS         X           Y           Z
   0 Au   19.0000*   0   196.966    0.000000    0.000000    0.071987
   1 H     1.0000    0     1.008    0.000000    0.000000   -2.877582
* core charge reduced due to ECP

--------------------------------
INTERNAL COORDINATES (ANGSTROEM)
--------------------------------
 Au     0   0   0     0.000000000000     0.00000000     0.00000000
 H      1   0   0     1.560844929376     0.00000000     0.00000000

---------------------------
INTERNAL COORDINATES (A.U.)
---------------------------
 Au     0   0   0     0.000000000000     0.00000000     0.00000000
 H      1   0   0     2.949569454040     0.00000000     0.00000000



           ************************************************************
           *        Program running with 24 parallel MPI-processes    *
           *              working on a common directory               *
           ************************************************************
 One Electron integrals                  ... done
 Pre-screening matrix                    ... done


           ************************************************************
           *        Program running with 24 parallel MPI-processes    *
           *              working on a common directory               *
           ************************************************************

Diagonalization of the overlap matrix:
Smallest eigenvalue                        ... 2.725e-03
Time for diagonalization                   ...    0.003 sec
Threshold for overlap eigenvalues          ... 1.000e-08
Number of eigenvalues below threshold      ... 0
Time for construction of square roots      ...    0.001 sec
Total time needed                          ...    0.004 sec

-------------------
DFT GRID GENERATION
-------------------

General Integration Accuracy     IntAcc      ...  4.670
Radial Grid Type                 RadialGrid  ... Gauss-Chebyshev
Angular Grid (max. acc.)         AngularGrid ... Lebedev-302
Angular grid pruning method      GridPruning ... 3 (G Style)
Weight generation scheme         WeightScheme... Becke
Basis function cutoff            BFCut       ...    1.0000e-11
Integration weight cutoff        WCut        ...    1.0000e-14
Grids for H and He will be reduced by one unit

# of grid points (after initial pruning)     ...  15046 (   0.0 sec)
# of grid points (after weights+screening)   ...  15004 (   0.0 sec)
nearest neighbour list constructed           ...    0.0 sec
Grid point re-assignment to atoms done       ...    0.0 sec
Grid point division into batches done        ...    0.1 sec
Reduced shell lists constructed in    0.1 sec

Total number of grid points                  ...    15004
Total number of batches                      ...      235
Average number of points per batch           ...       63
Average number of grid points per atom       ...     7502
Average number of shells per batch           ...     2.09 ( 8.71%)
Average number of basis functions per batch  ...     4.45 ( 5.86%)
Average number of large shells per batch     ...     1.36 (65.22%)
Average number of large basis fcns per batch ...     3.73 (83.67%)
Maximum spatial batch extension              ...  41.49, 37.74, 22.16 au
Average spatial batch extension              ...   1.24,  1.16,  0.83 au

Time for grid setup =    0.140 sec

--------------
SCF ITERATIONS
--------------
ITER       Energy         Delta-E        Max-DP      RMS-DP      [F,P]     Damp
               ***  Starting incremental Fock matrix formation  ***
  0   -136.2923847889   0.000000000000 0.00488855  0.00010268  0.1029895 0.7000
  1   -136.2924450727  -0.000060283715 0.00549800  0.00011028  0.0721616 0.7000
                               ***Turning on DIIS***
  2   -136.2924912392  -0.000046166521 0.01582200  0.00031659  0.0505177 0.0000
  3   -136.2926044959  -0.000113256712 0.00312741  0.00010424  0.0005068 0.0000
  4   -136.2926069507  -0.000002454794 0.00059289  0.00002103  0.0003962 0.0000
  5   -136.2926074242  -0.000000473561 0.00013559  0.00000548  0.0001425 0.0000
  6   -136.2926074867  -0.000000062437 0.00010317  0.00000215  0.0000280 0.0000
  7   -136.2926074891  -0.000000002397 0.00003264  0.00000067  0.0000080 0.0000
  8   -136.2926074886   0.000000000442 0.00001367  0.00000031  0.0000092 0.0000
                            ***DIIS convergence achieved***

               *****************************************************
               *                     SUCCESS                       *
               *           SCF CONVERGED AFTER   9 CYCLES          *
               *****************************************************

Total Energy       :         -136.29260749 Eh           -3708.71040 eV
  Last Energy change         ...   -1.0820e-10  Tolerance :   1.0000e-08
  Last MAX-Density change    ...    6.4403e-07  Tolerance :   1.0000e-07
             **** THE GBW FILE WAS UPDATED (Au01N0_H.gbw) ****
             **** DENSITY FILE WAS UPDATED (Au01N0_H.scfp) ****
             **** ENERGY FILE WAS UPDATED (Au01N0_H.en.tmp) ****
             **** THE GBW FILE WAS UPDATED (Au01N0_H.gbw) ****
             **** DENSITY FILE WAS UPDATED (Au01N0_H.scfp) ****
Total SCF time: 0 days 0 hours 0 min 1 sec 


-------------------------------------------------------------------------------
                          DFT DISPERSION CORRECTION                            
                                                                               
                              DFTD3 V3.1  Rev 1                                
                          USING Becke-Johnson damping                          
-------------------------------------------------------------------------------
-------------------------   ----------------
Dispersion correction           -0.000543982
-------------------------   ----------------


-------------------------   --------------------
FINAL SINGLE POINT ENERGY      -136.293151470661
-------------------------   --------------------



           ************************************************************
           *        Program running with 24 parallel MPI-processes    *
           *              working on a common directory               *
           ************************************************************
------------------------------------------------------------------------------
                         ORCA SCF GRADIENT CALCULATION
------------------------------------------------------------------------------

Gradient of the Kohn-Sham DFT energy:
Kohn-Sham wavefunction type      ... RKS
Hartree-Fock exchange scaling    ...    0.000
Number of operators              ...    1
Number of atoms                  ...    2
Basis set dimensions             ...   76
Integral neglect threshold       ... 2.5e-11
Integral primitive cutoff        ... 2.5e-12

Nuclear repulsion gradient       ... done
One Electron Gradient            
  ECP gradient                   ... done
Pre-screening matrix             ... done
RI-J gradient                    ... done
Exchange-correlation gradient    ... done
Dispersion correction            ... done

------------------
CARTESIAN GRADIENT
------------------

   1   Au  :   -0.000000002   -0.000000000    0.005873895
   2   H   :    0.000000000    0.000000001   -0.006919392

Difference to translation invariance:
           :   -0.0000000012    0.0000000013   -0.0010454968

Norm of the cartesian gradient     ...    0.0090763777
RMS gradient                       ...    0.0037054157
MAX gradient                       ...    0.0069193921

-------
TIMINGS
-------

Total SCF gradient time            ...        0.340 sec

One electron gradient       ....       0.091 sec  ( 26.8%)
Prescreening matrices       ....       0.003 sec  (  1.0%)
RI-J Coulomb gradient       ....       0.060 sec  ( 17.6%)
XC gradient                 ....       0.009 sec  (  2.6%)
------------------------------------------------------------------------------
                         ORCA GEOMETRY RELAXATION STEP
------------------------------------------------------------------------------

Reading the OPT-File                    .... done
Getting information on internals        .... done
Copying old internal coords+grads       .... done
Making the new internal coordinates     .... (new redundants).... done
Validating the new internal coordinates .... (new redundants).... done
Calculating the B-matrix                .... done
Calculating the G,G- and P matrices     .... done
Transforming gradient to internals      .... done
Projecting the internal gradient        .... done
Number of atoms                         ....   2
Number of internal coordinates          ....   1
Current Energy                          ....  -136.293151471 Eh
Current gradient norm                   ....     0.009076378 Eh/bohr
Maximum allowed component of the step   ....  0.300
Current trust radius                    ....  0.300
Updating the Hessian (BFGS)             .... done
Forming the augmented Hessian           .... done
Diagonalizing the augmented Hessian     .... done
Last element of RFO vector              ....  0.999444250
Lowest eigenvalues of augmented Hessian:
 -0.000213348
Length of the computed step             ....  0.033353067
The final length of the internal step   ....  0.033353067
Converting the step to cartesian space:
 Initial RMS(Int)=    0.0333530668
Transforming coordinates:
 Iter   0:  RMS(Cart)=    0.0096282010 RMS(Int)=    0.0333530668
 Iter   1:  RMS(Cart)=    0.0000000000 RMS(Int)=    0.0000000000
done
Storing new coordinates                 .... done

                                .--------------------.
          ----------------------|Geometry convergence|-------------------------
          Item                value                   Tolerance       Converged
          ---------------------------------------------------------------------
          Energy change       0.0000190193            0.0000050000      NO
          RMS gradient        0.0063966437            0.0001000000      NO
          MAX gradient        0.0063966437            0.0003000000      NO
          RMS step            0.0333530668            0.0020000000      NO
          MAX step            0.0333530668            0.0040000000      NO
          ........................................................
          Max(Bonds)      0.0176      Max(Angles)    0.00
          Max(Dihed)        0.00      Max(Improp)    0.00
          ---------------------------------------------------------------------

The optimization has not yet converged - more geometry cycles are needed


    ---------------------------------------------------------------------------
                         Redundant Internal Coordinates
                            (Angstroem and degrees)

        Definition                    Value    dE/dq     Step     New-Value
    ----------------------------------------------------------------------------
     1. B(H   1,Au  0)                1.5608  0.006397 -0.0176    1.5432   
    ----------------------------------------------------------------------------

         *************************************************************
         *                GEOMETRY OPTIMIZATION CYCLE   3            *
         *************************************************************
---------------------------------
CARTESIAN COORDINATES (ANGSTROEM)
---------------------------------
  Au     0.000000    0.000000    0.029269
  H      0.000000    0.000000   -1.513926

----------------------------
CARTESIAN COORDINATES (A.U.)
----------------------------
  NO LB      ZA    FRAG     MASS         X           Y           Z
   0 Au   19.0000*   0   196.966    0.000000    0.000000    0.055311
   1 H     1.0000    0     1.008    0.000000    0.000000   -2.860906
* core charge reduced due to ECP

--------------------------------
INTERNAL COORDINATES (ANGSTROEM)
--------------------------------
 Au     0   0   0     0.000000000000     0.00000000     0.00000000
 H      1   0   0     1.543195246601     0.00000000     0.00000000

---------------------------
INTERNAL COORDINATES (A.U.)
---------------------------
 Au     0   0   0     0.000000000000     0.00000000     0.00000000
 H      1   0   0     2.916216387244     0.00000000     0.00000000



           ************************************************************
           *        Program running with 24 parallel MPI-processes    *
           *              working on a common directory               *
           ************************************************************
 One Electron integrals                  ... done
 Pre-screening matrix                    ... done


           ************************************************************
           *        Program running with 24 parallel MPI-processes    *
           *              working on a common directory               *
           ************************************************************

Diagonalization of the overlap matrix:
Smallest eigenvalue                        ... 2.559e-03
Time for diagonalization                   ...    0.002 sec
Threshold for overlap eigenvalues          ... 1.000e-08
Number of eigenvalues below threshold      ... 0
Time for construction of square roots      ...    0.001 sec
Total time needed                          ...    0.004 sec

-------------------
DFT GRID GENERATION
-------------------

General Integration Accuracy     IntAcc      ...  4.670
Radial Grid Type                 RadialGrid  ... Gauss-Chebyshev
Angular Grid (max. acc.)         AngularGrid ... Lebedev-302
Angular grid pruning method      GridPruning ... 3 (G Style)
Weight generation scheme         WeightScheme... Becke
Basis function cutoff            BFCut       ...    1.0000e-11
Integration weight cutoff        WCut        ...    1.0000e-14
Grids for H and He will be reduced by one unit

# of grid points (after initial pruning)     ...  15046 (   0.0 sec)
# of grid points (after weights+screening)   ...  15004 (   0.0 sec)
nearest neighbour list constructed           ...    0.0 sec
Grid point re-assignment to atoms done       ...    0.0 sec
Grid point division into batches done        ...    0.1 sec
Reduced shell lists constructed in    0.1 sec

Total number of grid points                  ...    15004
Total number of batches                      ...      236
Average number of points per batch           ...       63
Average number of grid points per atom       ...     7502
Average number of shells per batch           ...     2.09 ( 8.71%)
Average number of basis functions per batch  ...     4.45 ( 5.86%)
Average number of large shells per batch     ...     1.36 (65.22%)
Average number of large basis fcns per batch ...     3.73 (83.67%)
Maximum spatial batch extension              ...  41.49, 37.74, 22.16 au
Average spatial batch extension              ...   1.25,  1.14,  0.83 au

Time for grid setup =    0.143 sec

--------------
SCF ITERATIONS
--------------
ITER       Energy         Delta-E        Max-DP      RMS-DP      [F,P]     Damp
               ***  Starting incremental Fock matrix formation  ***
  0   -136.2926930359   0.000000000000 0.00229316  0.00004782  0.0473392 0.7000
  1   -136.2927055993  -0.000012563443 0.00257227  0.00005136  0.0331695 0.7000
                               ***Turning on DIIS***
  2   -136.2927152003  -0.000009600982 0.00740707  0.00014742  0.0232211 0.0000
  3   -136.2927387501  -0.000023549742 0.00150873  0.00004852  0.0002143 0.0000
  4   -136.2927392489  -0.000000498869 0.00026413  0.00000909  0.0001634 0.0000
  5   -136.2927393622  -0.000000113234 0.00005079  0.00000175  0.0000647 0.0000
  6   -136.2927393691  -0.000000006915 0.00002245  0.00000075  0.0000168 0.0000
  7   -136.2927393698  -0.000000000664 0.00002411  0.00000055  0.0000116 0.0000
  8   -136.2927393699  -0.000000000186 0.00000814  0.00000017  0.0000040 0.0000
                 **** Energy Check signals convergence ****

               *****************************************************
               *                     SUCCESS                       *
               *           SCF CONVERGED AFTER   9 CYCLES          *
               *****************************************************

Total Energy       :         -136.29273937 Eh           -3708.71399 eV
  Last Energy change         ...    3.2637e-10  Tolerance :   1.0000e-08
  Last MAX-Density change    ...    6.2025e-07  Tolerance :   1.0000e-07
             **** THE GBW FILE WAS UPDATED (Au01N0_H.gbw) ****
             **** DENSITY FILE WAS UPDATED (Au01N0_H.scfp) ****
             **** ENERGY FILE WAS UPDATED (Au01N0_H.en.tmp) ****
             **** THE GBW FILE WAS UPDATED (Au01N0_H.gbw) ****
             **** DENSITY FILE WAS UPDATED (Au01N0_H.scfp) ****
Total SCF time: 0 days 0 hours 0 min 1 sec 


-------------------------------------------------------------------------------
                          DFT DISPERSION CORRECTION                            
                                                                               
                              DFTD3 V3.1  Rev 1                                
                          USING Becke-Johnson damping                          
-------------------------------------------------------------------------------
-------------------------   ----------------
Dispersion correction           -0.000543865
-------------------------   ----------------


-------------------------   --------------------
FINAL SINGLE POINT ENERGY      -136.293283234457
-------------------------   --------------------



           ************************************************************
           *        Program running with 24 parallel MPI-processes    *
           *              working on a common directory               *
           ************************************************************
------------------------------------------------------------------------------
                         ORCA SCF GRADIENT CALCULATION
------------------------------------------------------------------------------

Gradient of the Kohn-Sham DFT energy:
Kohn-Sham wavefunction type      ... RKS
Hartree-Fock exchange scaling    ...    0.000
Number of operators              ...    1
Number of atoms                  ...    2
Basis set dimensions             ...   76
Integral neglect threshold       ... 2.5e-11
Integral primitive cutoff        ... 2.5e-12

Nuclear repulsion gradient       ... done
One Electron Gradient            
  ECP gradient                   ... done
Pre-screening matrix             ... done
RI-J gradient                    ... done
Exchange-correlation gradient    ... done
Dispersion correction            ... done

------------------
CARTESIAN GRADIENT
------------------

   1   Au  :    0.000000001   -0.000000001   -0.000203478
   2   H   :   -0.000000001   -0.000000000   -0.000862243

Difference to translation invariance:
           :   -0.0000000000   -0.0000000009   -0.0010657210

Norm of the cartesian gradient     ...    0.0008859267
RMS gradient                       ...    0.0003616781
MAX gradient                       ...    0.0008622429

-------
TIMINGS
-------

Total SCF gradient time            ...        0.344 sec

One electron gradient       ....       0.085 sec  ( 24.8%)
Prescreening matrices       ....       0.003 sec  (  0.8%)
RI-J Coulomb gradient       ....       0.060 sec  ( 17.4%)
XC gradient                 ....       0.009 sec  (  2.6%)
------------------------------------------------------------------------------
                         ORCA GEOMETRY RELAXATION STEP
------------------------------------------------------------------------------

Reading the OPT-File                    .... done
Getting information on internals        .... done
Copying old internal coords+grads       .... done
Making the new internal coordinates     .... (new redundants).... done
Validating the new internal coordinates .... (new redundants).... done
Calculating the B-matrix                .... done
Calculating the G,G- and P matrices     .... done
Transforming gradient to internals      .... done
Projecting the internal gradient        .... done
Number of atoms                         ....   2
Number of internal coordinates          ....   1
Current Energy                          ....  -136.293283234 Eh
Current gradient norm                   ....     0.000885927 Eh/bohr
Maximum allowed component of the step   ....  0.300
Current trust radius                    ....  0.300
Updating the Hessian (BFGS)             .... done
Forming the augmented Hessian           .... done
Diagonalizing the augmented Hessian     .... done
Last element of RFO vector              ....  0.999998361
Lowest eigenvalues of augmented Hessian:
 -0.000000596
Length of the computed step             ....  0.001810681
The final length of the internal step   ....  0.001810681
Converting the step to cartesian space:
 Initial RMS(Int)=    0.0018106815
Transforming coordinates:
 Iter   0:  RMS(Cart)=    0.0005226987 RMS(Int)=    0.0018106815
 Iter   1:  RMS(Cart)=    0.0000000000 RMS(Int)=    0.0000000000
done
Storing new coordinates                 .... done

                                .--------------------.
          ----------------------|Geometry convergence|-------------------------
          Item                value                   Tolerance       Converged
          ---------------------------------------------------------------------
          Energy change      -0.0001317638            0.0000050000      NO
          RMS gradient        0.0003293824            0.0001000000      NO
          MAX gradient        0.0003293824            0.0003000000      NO
          RMS step            0.0018106815            0.0020000000      YES
          MAX step            0.0018106815            0.0040000000      YES
          ........................................................
          Max(Bonds)      0.0010      Max(Angles)    0.00
          Max(Dihed)        0.00      Max(Improp)    0.00
          ---------------------------------------------------------------------

The optimization has not yet converged - more geometry cycles are needed


    ---------------------------------------------------------------------------
                         Redundant Internal Coordinates
                            (Angstroem and degrees)

        Definition                    Value    dE/dq     Step     New-Value
    ----------------------------------------------------------------------------
     1. B(H   1,Au  0)                1.5432  0.000329 -0.0010    1.5422   
    ----------------------------------------------------------------------------

         *************************************************************
         *                GEOMETRY OPTIMIZATION CYCLE   4            *
         *************************************************************
---------------------------------
CARTESIAN COORDINATES (ANGSTROEM)
---------------------------------
  Au     0.000000    0.000000    0.028790
  H      0.000000    0.000000   -1.513447

----------------------------
CARTESIAN COORDINATES (A.U.)
----------------------------
  NO LB      ZA    FRAG     MASS         X           Y           Z
   0 Au   19.0000*   0   196.966    0.000000    0.000000    0.054405
   1 H     1.0000    0     1.008    0.000000    0.000000   -2.860000
* core charge reduced due to ECP

--------------------------------
INTERNAL COORDINATES (ANGSTROEM)
--------------------------------
 Au     0   0   0     0.000000000000     0.00000000     0.00000000
 H      1   0   0     1.542237075244     0.00000000     0.00000000

---------------------------
INTERNAL COORDINATES (A.U.)
---------------------------
 Au     0   0   0     0.000000000000     0.00000000     0.00000000
 H      1   0   0     2.914405705790     0.00000000     0.00000000



           ************************************************************
           *        Program running with 24 parallel MPI-processes    *
           *              working on a common directory               *
           ************************************************************
 One Electron integrals                  ... done
 Pre-screening matrix                    ... done


           ************************************************************
           *        Program running with 24 parallel MPI-processes    *
           *              working on a common directory               *
           ************************************************************

Diagonalization of the overlap matrix:
Smallest eigenvalue                        ... 2.550e-03
Time for diagonalization                   ...    0.002 sec
Threshold for overlap eigenvalues          ... 1.000e-08
Number of eigenvalues below threshold      ... 0
Time for construction of square roots      ...    0.001 sec
Total time needed                          ...    0.004 sec

-------------------
DFT GRID GENERATION
-------------------

General Integration Accuracy     IntAcc      ...  4.670
Radial Grid Type                 RadialGrid  ... Gauss-Chebyshev
Angular Grid (max. acc.)         AngularGrid ... Lebedev-302
Angular grid pruning method      GridPruning ... 3 (G Style)
Weight generation scheme         WeightScheme... Becke
Basis function cutoff            BFCut       ...    1.0000e-11
Integration weight cutoff        WCut        ...    1.0000e-14
Grids for H and He will be reduced by one unit

# of grid points (after initial pruning)     ...  15046 (   0.0 sec)
# of grid points (after weights+screening)   ...  15004 (   0.0 sec)
nearest neighbour list constructed           ...    0.0 sec
Grid point re-assignment to atoms done       ...    0.0 sec
Grid point division into batches done        ...    0.1 sec
Reduced shell lists constructed in    0.1 sec

Total number of grid points                  ...    15004
Total number of batches                      ...      236
Average number of points per batch           ...       63
Average number of grid points per atom       ...     7502
Average number of shells per batch           ...     2.09 ( 8.71%)
Average number of basis functions per batch  ...     4.45 ( 5.86%)
Average number of large shells per batch     ...     1.36 (65.22%)
Average number of large basis fcns per batch ...     3.73 (83.67%)
Maximum spatial batch extension              ...  41.49, 37.74, 22.16 au
Average spatial batch extension              ...   1.25,  1.14,  0.83 au

Time for grid setup =    0.144 sec

--------------
SCF ITERATIONS
--------------
ITER       Energy         Delta-E        Max-DP      RMS-DP      [F,P]     Damp
               ***  Starting incremental Fock matrix formation  ***
  0   -136.2927405072   0.000000000000 0.00012327  0.00000258  0.0026112 0.7000
  1   -136.2927405454  -0.000000038208 0.00013889  0.00000278  0.0018296 0.7000
                               ***Turning on DIIS***
  2   -136.2927405746  -0.000000029206 0.00040033  0.00000799  0.0012808 0.0000
  3   -136.2927406460  -0.000000071374 0.00008004  0.00000263  0.0000122 0.0000
  4   -136.2927406470  -0.000000001064 0.00001455  0.00000051  0.0000095 0.0000
  5   -136.2927406476  -0.000000000567 0.00000287  0.00000011  0.0000035 0.0000
                 **** Energy Check signals convergence ****

               *****************************************************
               *                     SUCCESS                       *
               *           SCF CONVERGED AFTER   6 CYCLES          *
               *****************************************************

Total Energy       :         -136.29274065 Eh           -3708.71402 eV
  Last Energy change         ...    4.9766e-11  Tolerance :   1.0000e-08
  Last MAX-Density change    ...    9.5255e-07  Tolerance :   1.0000e-07
             **** THE GBW FILE WAS UPDATED (Au01N0_H.gbw) ****
             **** DENSITY FILE WAS UPDATED (Au01N0_H.scfp) ****
             **** ENERGY FILE WAS UPDATED (Au01N0_H.en.tmp) ****
             **** THE GBW FILE WAS UPDATED (Au01N0_H.gbw) ****
             **** DENSITY FILE WAS UPDATED (Au01N0_H.scfp) ****
Total SCF time: 0 days 0 hours 0 min 1 sec 


-------------------------------------------------------------------------------
                          DFT DISPERSION CORRECTION                            
                                                                               
                              DFTD3 V3.1  Rev 1                                
                          USING Becke-Johnson damping                          
-------------------------------------------------------------------------------
-------------------------   ----------------
Dispersion correction           -0.000543860
-------------------------   ----------------


-------------------------   --------------------
FINAL SINGLE POINT ENERGY      -136.293284507204
-------------------------   --------------------



           ************************************************************
           *        Program running with 24 parallel MPI-processes    *
           *              working on a common directory               *
           ************************************************************
------------------------------------------------------------------------------
                         ORCA SCF GRADIENT CALCULATION
------------------------------------------------------------------------------

Gradient of the Kohn-Sham DFT energy:
Kohn-Sham wavefunction type      ... RKS
Hartree-Fock exchange scaling    ...    0.000
Number of operators              ...    1
Number of atoms                  ...    2
Basis set dimensions             ...   76
Integral neglect threshold       ... 2.5e-11
Integral primitive cutoff        ... 2.5e-12

Nuclear repulsion gradient       ... done
One Electron Gradient            
  ECP gradient                   ... done
Pre-screening matrix             ... done
RI-J gradient                    ... done
Exchange-correlation gradient    ... done
Dispersion correction            ... done

------------------
CARTESIAN GRADIENT
------------------

   1   Au  :    0.000000002    0.000000001   -0.000548912
   2   H   :   -0.000000001    0.000000001   -0.000517963

Difference to translation invariance:
           :    0.0000000003    0.0000000018   -0.0010668753

Norm of the cartesian gradient     ...    0.0007547121
RMS gradient                       ...    0.0003081099
MAX gradient                       ...    0.0005489121

-------
TIMINGS
-------

Total SCF gradient time            ...        0.339 sec

One electron gradient       ....       0.080 sec  ( 23.6%)
Prescreening matrices       ....       0.002 sec  (  0.7%)
RI-J Coulomb gradient       ....       0.060 sec  ( 17.6%)
XC gradient                 ....       0.009 sec  (  2.7%)
------------------------------------------------------------------------------
                         ORCA GEOMETRY RELAXATION STEP
------------------------------------------------------------------------------

Reading the OPT-File                    .... done
Getting information on internals        .... done
Copying old internal coords+grads       .... done
Making the new internal coordinates     .... (new redundants).... done
Validating the new internal coordinates .... (new redundants).... done
Calculating the B-matrix                .... done
Calculating the G,G- and P matrices     .... done
Transforming gradient to internals      .... done
Projecting the internal gradient        .... done
Number of atoms                         ....   2
Number of internal coordinates          ....   1
Current Energy                          ....  -136.293284507 Eh
Current gradient norm                   ....     0.000754712 Eh/bohr
Maximum allowed component of the step   ....  0.300
Current trust radius                    ....  0.300
Updating the Hessian (BFGS)             .... done
Forming the augmented Hessian           .... done
Diagonalizing the augmented Hessian     .... done
Last element of RFO vector              ....  0.999999997
Lowest eigenvalues of augmented Hessian:
 -0.000000001
Length of the computed step             ....  0.000081249
The final length of the internal step   ....  0.000081249
Converting the step to cartesian space:
 Initial RMS(Int)=    0.0000812491
Transforming coordinates:
 Iter   0:  RMS(Cart)=    0.0000234546 RMS(Int)=    0.0000812491
 Iter   1:  RMS(Cart)=    0.0000000000 RMS(Int)=    0.0000000000
done
Storing new coordinates                 .... done

                                .--------------------.
          ----------------------|Geometry convergence|-------------------------
          Item                value                   Tolerance       Converged
          ---------------------------------------------------------------------
          Energy change      -0.0000012727            0.0000050000      YES
          RMS gradient        0.0000154745            0.0001000000      YES
          MAX gradient        0.0000154745            0.0003000000      YES
          RMS step            0.0000812491            0.0020000000      YES
          MAX step            0.0000812491            0.0040000000      YES
          ........................................................
          Max(Bonds)      0.0000      Max(Angles)    0.00
          Max(Dihed)        0.00      Max(Improp)    0.00
          ---------------------------------------------------------------------

                    ***********************HURRAY********************
                    ***        THE OPTIMIZATION HAS CONVERGED     ***
                    *************************************************


    ---------------------------------------------------------------------------
                         Redundant Internal Coordinates

                          --- Optimized Parameters ---  
                            (Angstroem and degrees)

        Definition                    OldVal   dE/dq     Step     FinalVal
    ----------------------------------------------------------------------------
     1. B(H   1,Au  0)                1.5422 -0.000015  0.0000    1.5423   
    ----------------------------------------------------------------------------
                 *******************************************************
                 *** FINAL ENERGY EVALUATION AT THE STATIONARY POINT ***
                 ***               (AFTER    4 CYCLES)               ***
                 *******************************************************
---------------------------------
CARTESIAN COORDINATES (ANGSTROEM)
---------------------------------
  Au     0.000000    0.000000    0.028812
  H      0.000000    0.000000   -1.513469

----------------------------
CARTESIAN COORDINATES (A.U.)
----------------------------
  NO LB      ZA    FRAG     MASS         X           Y           Z
   0 Au   19.0000*   0   196.966    0.000000    0.000000    0.054446
   1 H     1.0000    0     1.008    0.000000    0.000000   -2.860041
* core charge reduced due to ECP

--------------------------------
INTERNAL COORDINATES (ANGSTROEM)
--------------------------------
 Au     0   0   0     0.000000000000     0.00000000     0.00000000
 H      1   0   0     1.542280070437     0.00000000     0.00000000

---------------------------
INTERNAL COORDINATES (A.U.)
---------------------------
 Au     0   0   0     0.000000000000     0.00000000     0.00000000
 H      1   0   0     2.914486954931     0.00000000     0.00000000

---------------------
BASIS SET INFORMATION
---------------------
There are 2 groups of distinct atoms

 Group   1 Type Au  : 8s8p6d2f1g contracted to 6s5p3d2f1g pattern {311111/41111/411/11/1}
 Group   2 Type H   : 5s3p1d contracted to 3s3p1d pattern {311/111/1}

Atom   0Au   basis set group =>   1
Atom   1H    basis set group =>   2
---------------------------------
AUXILIARY/J BASIS SET INFORMATION
---------------------------------
There are 2 groups of distinct atoms

 Group   1 Type Au  : 11s5p5d3f3g contracted to 8s5p5d2f3g pattern {41111111/11111/11111/21/111}
 Group   2 Type H   : 5s2p1d contracted to 3s1p1d pattern {311/2/1}

Atom   0Au   basis set group =>   1
Atom   1H    basis set group =>   2
-------------------------
ECP PARAMETER INFORMATION
-------------------------

 Group 1, Type Au ECP Def2-ECP (replacing 60 core electrons, lmax=3)

Atom   0Au   ECP group =>   1



           ************************************************************
           *        Program running with 24 parallel MPI-processes    *
           *              working on a common directory               *
           ************************************************************
------------------------------------------------------------------------------
                           ORCA GTO INTEGRAL CALCULATION
                           -- RI-GTO INTEGRALS CHOSEN --
------------------------------------------------------------------------------

                         BASIS SET STATISTICS AND STARTUP INFO

Gaussian basis set:
 # of primitive gaussian shells          ...   34
 # of primitive gaussian functions       ...  104
 # of contracted shells                  ...   24
 # of contracted basis functions         ...   76
 Highest angular momentum                ...    4
 Maximum contraction depth               ...    4
Auxiliary gaussian basis set:
 # of primitive gaussian shells          ...   35
 # of primitive gaussian functions       ...  115
 # of contracted shells                  ...   28
 # of contracted aux-basis functions     ...  100
 Highest angular momentum                ...    4
 Maximum contraction depth               ...    4
Ratio of auxiliary to basis functions    ...  1.32
Integral package used                  ... LIBINT
 One Electron integrals                  
   ECP integrals                         ... done
 Ordering auxiliary basis shells         ... done
 Integral threshhold             Thresh  ...  2.500e-11
 Primitive cut-off               TCut    ...  2.500e-12
 Pre-screening matrix                    ... done
 Shell pair data                         ... 
 Ordering of the shell pairs             ... done (   0.000 sec) 300 of 300 pairs
 Determination of significant pairs      ... done (   0.000 sec)
 Creation of shell pair data             ... done (   0.000 sec)
 Storage of shell pair data              ... done (   0.015 sec)
 Shell pair data done in (   0.015 sec)
 Computing two index integrals           ... done
 Cholesky decomposition of the V-matrix  ... done


Timings:
 Total evaluation time                   ...   0.193 sec (  0.003 min)
 One electron matrix time                ...   0.052 sec (  0.001 min) = 27.1%
 Schwartz matrix evaluation time         ...   0.091 sec (  0.002 min) = 47.0%
 Two index repulsion integral time       ...   0.000 sec (  0.000 min) =  0.2%
 Cholesky decomposition of V             ...   0.001 sec (  0.000 min) =  0.3%
 Three index repulsion integral time     ...   0.000 sec (  0.000 min) =  0.0%



           ************************************************************
           *        Program running with 24 parallel MPI-processes    *
           *              working on a common directory               *
           ************************************************************
-------------------------------------------------------------------------------
                                 ORCA SCF
-------------------------------------------------------------------------------

------------
SCF SETTINGS
------------
Hamiltonian:
 Density Functional     Method          .... DFT(GTOs)
 Exchange Functional    Exchange        .... TPSS
 Correlation Functional Correlation     .... TPSS
 LDA part of GGA corr.  LDAOpt          .... PW91-LDA
 Gradients option       PostSCFGGA      .... off
   Density functional embedding theory  .... OFF
   NL short-range parameter             ....  5.000000
 RI-approximation to the Coulomb term is turned on
   Number of auxiliary basis functions  .... 100


General Settings:
 Integral files         IntName         .... Au01N0_H
[...]
  11   0.0000      -0.020258        -0.5513 
  12   0.0000      -0.020258        -0.5513 
  13   0.0000       0.065638         1.7861 
  14   0.0000       0.084551         2.3008 
  15   0.0000       0.161569         4.3965 
  16   0.0000       0.161569         4.3965 
  17   0.0000       0.168354         4.5812 
  18   0.0000       0.195504         5.3199 
  19   0.0000       0.195504         5.3199 
  20   0.0000       0.292347         7.9552 
  21   0.0000       0.292348         7.9552 
  22   0.0000       0.355371         9.6701 
  23   0.0000       0.380923        10.3654 
  24   0.0000       0.380923        10.3654 
  25   0.0000       0.419528        11.4159 
  26   0.0000       0.432623        11.7723 
  27   0.0000       0.770579        20.9685 
  28   0.0000       0.770579        20.9685 
  29   0.0000       0.922273        25.0963 
  30   0.0000       1.022719        27.8296 
  31   0.0000       1.022719        27.8296 
  32   0.0000       1.071106        29.1463 
  33   0.0000       1.071114        29.1465 
  34   0.0000       1.090261        29.6675 
  35   0.0000       1.090261        29.6675 
  36   0.0000       1.158120        31.5140 
  37   0.0000       1.255122        34.1536 
  38   0.0000       1.255122        34.1536 
  39   0.0000       1.392672        37.8965 
  40   0.0000       1.433081        38.9961 
  41   0.0000       1.433088        38.9963 
  42   0.0000       1.552106        42.2350 
  43   0.0000       1.552106        42.2350 
  44   0.0000       1.911492        52.0143 
  45   0.0000       2.223193        60.4962 
  46   0.0000       2.593790        70.5806 
  47   0.0000       3.144985        85.5794 
  48   0.0000       3.145036        85.5808 
  49   0.0000       3.305543        89.9484 
  50   0.0000       3.305543        89.9484 
  51   0.0000       3.502772        95.3153 
  52   0.0000       3.502772        95.3153 
  53   0.0000       3.508964        95.4838 
  54   0.0000       3.562663        96.9450 
  55   0.0000       3.562688        96.9457 
  56   0.0000       3.596508        97.8660 
  57   0.0000       3.596508        97.8660 
  58   0.0000       3.726722       101.4093 
  59   0.0000       3.904461       106.2458 
  60   0.0000       3.904461       106.2458 
  61   0.0000       4.060191       110.4834 
  62   0.0000       4.060191       110.4834 
  63   0.0000       4.071963       110.8038 
  64   0.0000       4.072043       110.8059 
  65   0.0000       4.116959       112.0282 
  66   0.0000       4.116960       112.0282 
  67   0.0000       4.521330       123.0316 
  68   0.0000       4.726197       128.6064 
  69   0.0000       4.726197       128.6064 
  70   0.0000       5.476343       149.0189 
  71   0.0000      27.348183       744.1819 
  72   0.0000      27.348183       744.1819 
  73   0.0000      29.775101       810.2217 
  74   0.0000      44.226981      1203.4773 
  75   0.0000     205.194448      5583.6248 

                    ********************************
                    * MULLIKEN POPULATION ANALYSIS *
                    ********************************

-----------------------
MULLIKEN ATOMIC CHARGES
-----------------------
   0 Au:   -0.169401
   1 H :    0.169401
Sum of atomic charges:   -0.0000000

--------------------------------
MULLIKEN REDUCED ORBITAL CHARGES
--------------------------------
  0 Aus       :     3.426769  s :     3.426769
      pz      :     2.055096  p :     6.055306
      px      :     2.000105
      py      :     2.000105
      dz2     :     1.717483  d :     9.683472
      dxz     :     1.983233
      dyz     :     1.983233
      dx2y2   :     1.999762
      dxy     :     1.999762
      f0      :     0.003338  f :     0.003503
      f+1     :    -0.000004
      f-1     :    -0.000004
      f+2     :     0.000087
      f-2     :     0.000087
      f+3     :     0.000000
      f-3     :     0.000000
      g0      :     0.000235  g :     0.000350
      g+1     :     0.000047
      g-1     :     0.000047
      g+2     :     0.000011
      g-2     :     0.000011
      g+3     :     0.000000
      g-3     :     0.000000
      g+4     :     0.000000
      g-4     :     0.000000
  1 H s       :     0.810375  s :     0.810375
      pz      :    -0.014770  p :     0.015791
      px      :     0.015281
      py      :     0.015281
      dz2     :     0.001475  d :     0.004433
      dxz     :     0.001339
      dyz     :     0.001339
      dx2y2   :     0.000140
      dxy     :     0.000140


                     *******************************
                     * LOEWDIN POPULATION ANALYSIS *
                     *******************************

----------------------
LOEWDIN ATOMIC CHARGES
----------------------
   0 Au:    0.334046
   1 H :   -0.334046

-------------------------------
LOEWDIN REDUCED ORBITAL CHARGES
-------------------------------
  0 Aus       :     3.020124  s :     3.020124
      pz      :     2.019017  p :     6.014267
      px      :     1.997625
      py      :     1.997625
      dz2     :     1.736289  d :     9.623226
      dxz     :     1.944152
      dyz     :     1.944152
      dx2y2   :     1.999316
      dxy     :     1.999316
      f0      :     0.007036  f :     0.008072
      f+1     :     0.000423
      f-1     :     0.000423
      f+2     :     0.000095
      f-2     :     0.000095
      f+3     :     0.000000
      f-3     :     0.000000
      g0      :     0.000242  g :     0.000266
      g+1     :     0.000003
      g-1     :     0.000003
      g+2     :     0.000010
      g-2     :     0.000010
      g+3     :     0.000000
      g-3     :     0.000000
      g+4     :     0.000000
      g-4     :     0.000000
  1 H s       :     1.036677  s :     1.036677
      pz      :     0.163873  p :     0.260240
      px      :     0.048184
      py      :     0.048184
      dz2     :     0.016743  d :     0.037128
      dxz     :     0.009614
      dyz     :     0.009614
      dx2y2   :     0.000578
      dxy     :     0.000578


                      *****************************
                      * MAYER POPULATION ANALYSIS *
                      *****************************

  NA   - Mulliken gross atomic population
  ZA   - Total nuclear charge
  QA   - Mulliken gross atomic charge
  VA   - Mayer's total valence
  BVA  - Mayer's bonded valence
  FA   - Mayer's free valence

  ATOM       NA         ZA         QA         VA         BVA        FA
  0 Au    19.1694    19.0000    -0.1694     1.0187     1.0187     0.0000
  1 H      0.8306     1.0000     0.1694     1.0187     1.0187     0.0000

  Mayer bond orders larger than 0.100000
B(  0-Au,  1-H ) :   1.0187 

-------
TIMINGS
-------

Total SCF time: 0 days 0 hours 0 min 0 sec 

Total time                  ....       0.460 sec
Sum of individual times     ....       0.361 sec  ( 78.3%)

Fock matrix formation       ....       0.209 sec  ( 45.5%)
  Split-RI-J                ....       0.157 sec  ( 75.0% of F)
  XC integration            ....       0.021 sec  ( 10.1% of F)
    Basis function eval.    ....       0.002 sec  ( 10.6% of XC)
    Density eval.           ....       0.003 sec  ( 15.5% of XC)
    XC-Functional eval.     ....       0.002 sec  ( 11.0% of XC)
    XC-Potential eval.      ....       0.004 sec  ( 21.2% of XC)
Diagonalization             ....       0.002 sec  (  0.4%)
Density matrix formation    ....       0.001 sec  (  0.2%)
Population analysis         ....       0.002 sec  (  0.5%)
Initial guess               ....       0.004 sec  (  0.9%)
Orbital Transformation      ....       0.000 sec  (  0.0%)
Orbital Orthonormalization  ....       0.001 sec  (  0.3%)
DIIS solution               ....       0.000 sec  (  0.0%)
Grid generation             ....       0.142 sec  ( 30.9%)


-------------------------------------------------------------------------------
                          DFT DISPERSION CORRECTION                            
                                                                               
                              DFTD3 V3.1  Rev 1                                
                          USING Becke-Johnson damping                          
-------------------------------------------------------------------------------
The TPSS functional is recognized
Active option DFTDOPT                   ...         4   

molecular C6(AA) [au] = 382.891168 


            DFT-D V3
 parameters
 s6 scaling factor         :     1.0000 
 a1 scaling factor         :     0.4535 
 s8 scaling factor         :     1.9435 
 a2 scaling factor         :     4.4752 
 ad hoc parameters k1-k3   :    16.0000     1.3333    -4.0000 

 Edisp/kcal,au: -0.341277266652  -0.000543859885 
 E6   /kcal   :  -0.147260297 
 E8   /kcal   :  -0.194016969 
 % E8         :  56.850247056 

-------------------------   ----------------
Dispersion correction           -0.000543860
-------------------------   ----------------


-------------------------   --------------------
FINAL SINGLE POINT ENERGY      -136.293284461673
-------------------------   --------------------

                                *** OPTIMIZATION RUN DONE ***

                            ***************************************
                            *     ORCA property calculations      *
                            ***************************************

                                    ---------------------
                                    Active property flags
                                    ---------------------
   (+) Dipole Moment


------------------------------------------------------------------------------
                       ORCA ELECTRIC PROPERTIES CALCULATION
------------------------------------------------------------------------------

Dipole Moment Calculation                       ... on
Quadrupole Moment Calculation                   ... off
Polarizability Calculation                      ... off
GBWName                                         ... Au01N0_H.gbw
Electron density file                           ... Au01N0_H.scfp
The origin for moment calculation is the CENTER OF MASS  = ( 0.000000,  0.000000  0.039607)

-------------
DIPOLE MOMENT
-------------
                                X             Y             Z
Electronic contribution:     -0.00000       0.00000       3.12450
Nuclear contribution   :      0.00000       0.00000      -2.61770
                        -----------------------------------------
Total Dipole Moment    :     -0.00000       0.00000       0.50680
                        -----------------------------------------
Magnitude (a.u.)       :      0.50680
Magnitude (Debye)      :      1.28818



--------------------
Rotational spectrum 
--------------------
 
Rotational constants in cm-1:     0.000000     7.066864     7.066864 
Rotational constants in MHz :     0.000000 211859.267140 211859.267140 

 Dipole components along the rotational axes: 
x,y,z [a.u.] :     0.506800     0.000000    -0.000000 
x,y,z [Debye]:     1.288183     0.000000    -0.000000 

 

----------------------------------------------------------------------------
                           ORCA NUMERICAL FREQUENCIES
                              (24-process run)
----------------------------------------------------------------------------

Number of atoms                ... 2
Central differences            ... used
Number of displacements        ... 12
Numerical increment            ... 5.000e-03 bohr
IR-spectrum generation         ... on
Raman-spectrum generation      ... off
Surface Crossing Hessian       ... off

 WARNING: There are more processes than displacements to do
  ====> : Reducing number of processes to   6

The output will be reduced. Please look at the following files:
SCF program output             ... >Au01N0_H.lastscf
Integral program output        ... >Au01N0_H.lastint
Gradient program output        ... >Au01N0_H.lastgrad
Dipole moment program output   ... >Au01N0_H.lastmom
AutoCI program output          ... >Au01N0_H.lastautoci


         <<< Energy and Gradient at the input geometry >>>

        <<< Energy and Gradient at displaced geometries >>>
             <<<Displacing   1/coordinate 2 (+)>>>
             <<<Displacing   2/coordinate 1 (+)>>>
             <<<Displacing   1/coordinate 1 (+)>>>
             <<<Displacing   2/coordinate 3 (+)>>>
             <<<Displacing   2/coordinate 2 (+)>>>
             <<<Displacing   1/coordinate 3 (+)>>>
             <<<Displacing   1/coordinate 2 (-)>>>
             <<<Displacing   1/coordinate 1 (-)>>>
             <<<Displacing   2/coordinate 1 (-)>>>
             <<<Displacing   2/coordinate 2 (-)>>>
             <<<Displacing   1/coordinate 3 (-)>>>
             <<<Displacing   2/coordinate 3 (-)>>>
Warning: T+R mode no 5 is zero 

-----------------------
VIBRATIONAL FREQUENCIES
-----------------------

Scaling factor for frequencies =  1.000000000 (already applied!)

   0:         0.00 cm**-1
   1:         0.00 cm**-1
   2:         0.00 cm**-1
   3:         0.00 cm**-1
   4:         0.00 cm**-1
   5:      2240.65 cm**-1


------------
NORMAL MODES
------------

These modes are the cartesian displacements weighted by the diagonal matrix
M(i,i)=1/sqrt(m[i]) where m[i] is the mass of the displaced atom
Thus, these vectors are normalized but *not* orthogonal

                  0          1          2          3          4          5    
      0       0.000000   0.000000   0.000000   0.000000   0.000000   0.000000
      1       0.000000   0.000000   0.000000   0.000000   0.000000   0.000000
      2       0.000000   0.000000   0.000000   0.000000   0.000000   0.005118
      3       0.000000   0.000000   0.000000   0.000000   0.000000   0.000000
      4       0.000000   0.000000   0.000000   0.000000   0.000000   0.000000
      5       0.000000   0.000000   0.000000   0.000000   0.000000  -0.999987


-----------
IR SPECTRUM  
-----------

 Mode    freq (cm**-1)   T**2         TX         TY         TZ
-------------------------------------------------------------------
   5:      2240.65    9.174016  ( -0.000017   0.000055   3.028864)

The first frequency considered to be a vibration is 5
The total number of vibrations considered is 1


--------------------------
THERMOCHEMISTRY AT 298.15K
--------------------------

Temperature         ... 298.15 K
Pressure            ... 1.00 atm
Total Mass          ... 197.97 AMU
The molecule is recognized as being linear

Throughout the following assumptions are being made:
  (1) The electronic state is orbitally nondegenerate
  (2) There are no thermally accessible electronically excited states
  (3) Hindered rotations indicated by low frequency modes are not
      treated as such but are treated as vibrations and this may
      cause some error
  (4) All equations used are the standard statistical mechanics
      equations for an ideal gas
  (5) All vibrations are strictly harmonic

freq.    2240.65  E(vib)   ...       0.00 

------------
INNER ENERGY
------------

The inner energy is: U= E(el) + E(ZPE) + E(vib) + E(rot) + E(trans)
    E(el)   - is the total energy from the electronic structure calculation
              = E(kin-el) + E(nuc-el) + E(el-el) + E(nuc-nuc)
    E(ZPE)  - the the zero temperature vibrational energy from the frequency calculation
    E(vib)  - the the finite temperature correction to E(ZPE) due to population
              of excited vibrational states
    E(rot)  - is the rotational thermal energy
    E(trans)- is the translational thermal energy

Summary of contributions to the inner energy U:
Electronic energy                ...   -136.29328446 Eh
Zero point energy                ...      0.00510458 Eh       3.20 kcal/mol
Thermal vibrational correction   ...      0.00000021 Eh       0.00 kcal/mol
Thermal rotational correction    ...      0.00094418 Eh       0.59 kcal/mol
Thermal translational correction ...      0.00141627 Eh       0.89 kcal/mol
-----------------------------------------------------------------------
Total thermal energy                   -136.28581923 Eh


Summary of corrections to the electronic energy:
(perhaps to be used in another calculation)
Total thermal correction                  0.00236066 Eh       1.48 kcal/mol
Non-thermal (ZPE) correction              0.00510458 Eh       3.20 kcal/mol
-----------------------------------------------------------------------
Total correction                          0.00746524 Eh       4.68 kcal/mol


--------
ENTHALPY
--------

The enthalpy is H = U + kB*T
                kB is Boltzmann's constant
Total free energy                 ...   -136.28581923 Eh 
Thermal Enthalpy correction       ...      0.00094421 Eh       0.59 kcal/mol
-----------------------------------------------------------------------
Total Enthalpy                    ...   -136.28487502 Eh


Note: Rotational entropy computed according to Herzberg 
Infrared and Raman Spectra, Chapter V,1, Van Nostrand Reinhold, 1945 
Point Group:  Cinfv, Symmetry Number:   1  
Rotational constants in cm-1:     0.000000     7.066864     7.066864 

Vibrational entropy computed according to the QRRHO of S. Grimme
Chem.Eur.J. 2012 18 9955


-------
ENTROPY
-------

The entropy contributions are T*S = T*(S(el)+S(vib)+S(rot)+S(trans))
     S(el)   - electronic entropy
     S(vib)  - vibrational entropy
     S(rot)  - rotational entropy
     S(trans)- translational entropy
The entropies will be listed as mutliplied by the temperature to get
units of energy

Electronic entropy                ...      0.00000000 Eh      0.00 kcal/mol
Vibrational entropy               ...      0.00000022 Eh      0.00 kcal/mol
Rotational entropy                ...      0.00413400 Eh      2.59 kcal/mol
Translational entropy             ...      0.01983851 Eh     12.45 kcal/mol
-----------------------------------------------------------------------
Final entropy term                ...      0.02397273 Eh     15.04 kcal/mol

In case the symmetry of your molecule has not been determined correctly
or in case you have a reason to use a different symmetry number we print 
out the resulting rotational entropy values for sn=1,12 :
 --------------------------------------------------------
|  sn= 1 | S(rot)=             -inf Eh      -inf kcal/mol|
|  sn= 2 | S(rot)=             -inf Eh      -inf kcal/mol|
|  sn= 3 | S(rot)=             -inf Eh      -inf kcal/mol|
|  sn= 4 | S(rot)=             -inf Eh      -inf kcal/mol|
|  sn= 5 | S(rot)=             -inf Eh      -inf kcal/mol|
|  sn= 6 | S(rot)=             -inf Eh      -inf kcal/mol|
|  sn= 7 | S(rot)=             -inf Eh      -inf kcal/mol|
|  sn= 8 | S(rot)=             -inf Eh      -inf kcal/mol|
|  sn= 9 | S(rot)=             -inf Eh      -inf kcal/mol|
|  sn=10 | S(rot)=             -inf Eh      -inf kcal/mol|
|  sn=11 | S(rot)=             -inf Eh      -inf kcal/mol|
|  sn=12 | S(rot)=             -inf Eh      -inf kcal/mol|
 --------------------------------------------------------


-------------------
GIBBS FREE ENERGY
-------------------

The Gibbs free energy is G = H - T*S

Total enthalpy                    ...   -136.28487502 Eh 
Total entropy correction          ...     -0.02397273 Eh    -15.04 kcal/mol
-----------------------------------------------------------------------
Final Gibbs free energy         ...   -136.30884775 Eh

For completeness - the Gibbs free energy minus the electronic energy
G-E(el)                           ...     -0.01556328 Eh     -9.77 kcal/mol


Total Time for Numerical Frequencies  :        10.089 sec

Timings for individual modules:

Sum of individual times         ...       16.623 sec (=   0.277 min)
GTO integral calculation        ...        3.411 sec (=   0.057 min)  20.5 %
SCF iterations                  ...        9.449 sec (=   0.157 min)  56.8 %
SCF Gradient evaluation         ...        3.630 sec (=   0.060 min)  21.8 %
Geometry relaxation             ...        0.133 sec (=   0.002 min)   0.8 %
                             ****ORCA TERMINATED NORMALLY****
TOTAL RUN TIME: 0 days 0 hours 0 minutes 25 seconds 358 msec
