
                                 *****************
                                 * O   R   C   A *
                                 *****************

           --- An Ab Initio, DFT and Semiempirical electronic structure package ---

                  #######################################################
                  #                        -***-                        #
                  #          Department of theory and spectroscopy      #
                  #               Directorship: Frank Neese             #
                  #        Max Planck Institute fuer Kohlenforschung    #
                  #                Kaiser Wilhelm Platz 1               #
                  #                 D-45470 Muelheim/Ruhr               #
                  #                      Germany                        #
                  #                                                     #
                  #                  All rights reserved                #
                  #                        -***-                        #
                  #######################################################


                         Program Version 4.2.0 -  RELEASE  -


 With contributions from (in alphabetic order):
   Daniel Aravena         : Magnetic Suceptibility
   Michael Atanasov       : Ab Initio Ligand Field Theory (pilot matlab implementation)
   Alexander A. Auer      : GIAO ZORA, VPT2
   Ute Becker             : Parallelization
   Giovanni Bistoni       : ED, misc. LED, open-shell LED, HFLED
   Martin Brehm           : Molecular dynamics
   Dmytro Bykov           : SCF Hessian
   Vijay G. Chilkuri      : MRCI spin determinant printing, contributions to CSF-ICE
   Dipayan Datta          : RHF DLPNO-CCSD density
   Achintya Kumar Dutta   : EOM-CC, STEOM-CC
   Dmitry Ganyushin       : Spin-Orbit,Spin-Spin,Magnetic field MRCI
   Miquel Garcia          : C-PCM Hessian, Gaussian charge scheme
   Yang Guo               : DLPNO-NEVPT2, CIM, IAO-localization
   Andreas Hansen         : Spin unrestricted coupled pair/coupled cluster methods
   Benjamin Helmich-Paris : CASSCF linear response (MC-RPA)
   Lee Huntington         : MR-EOM, pCC
   Robert Izsak           : Overlap fitted RIJCOSX, COSX-SCS-MP3, EOM
   Christian Kollmar      : KDIIS, OOCD, Brueckner-CCSD(T), CCSD density
   Simone Kossmann        : Meta GGA functionals, TD-DFT gradient, OOMP2, MP2 Hessian
   Martin Krupicka        : AUTO-CI
   Lucas Lang             : DCDCAS
   Dagmar Lenk            : GEPOL surface, SMD
   Dimitrios Liakos       : Extrapolation schemes; Compound Job, initial MDCI parallelization
   Dimitrios Manganas     : Further ROCIS development; embedding schemes
   Dimitrios Pantazis     : SARC Basis sets
   Taras Petrenko         : DFT Hessian,TD-DFT gradient, ASA, ECA, R-Raman, ABS, FL, XAS/XES, NRVS
   Peter Pinski           : DLPNO-MP2, DLPNO-MP2 Gradient
   Christoph Reimann      : Effective Core Potentials
   Marius Retegan         : Local ZFS, SOC
   Christoph Riplinger    : Optimizer, TS searches, QM/MM, DLPNO-CCSD(T), (RO)-DLPNO pert. Triples
   Tobias Risthaus        : Range-separated hybrids, TD-DFT gradient, RPA, STAB
   Michael Roemelt        : Original ROCIS implementation
   Masaaki Saitow         : Open-shell DLPNO-CCSD energy and density
   Barbara Sandhoefer     : DKH picture change effects
   Avijit Sen             : IP-ROCIS
   Kantharuban Sivalingam : CASSCF convergence, NEVPT2, FIC-MRCI
   Bernardo de Souza      : ESD, SOC TD-DFT
   Georgi Stoychev        : AutoAux, RI-MP2 NMR
   Willem Van den Heuvel  : Paramagnetic NMR
   Boris Wezisla          : Elementary symmetry handling
   Frank Wennmohs         : Technical directorship


 We gratefully acknowledge several colleagues who have allowed us to
 interface, adapt or use parts of their codes:
   Stefan Grimme, W. Hujo, H. Kruse,             : VdW corrections, initial TS optimization,
                  C. Bannwarth                     DFT functionals, gCP, sTDA/sTD-DF
   Ed Valeev, F. Pavosevic, A. Kumar             : LibInt (2-el integral package), F12 methods
   Garnet Chan, S. Sharma, J. Yang, R. Olivares  : DMRG
   Ulf Ekstrom                                   : XCFun DFT Library
   Mihaly Kallay                                 : mrcc  (arbitrary order and MRCC methods)
   Andreas Klamt, Michael Diedenhofen            : otool_cosmo (COSMO solvation model)
   Jiri Pittner, Ondrej Demel                    : Mk-CCSD
   Frank Weinhold                                : gennbo (NPA and NBO analysis)
   Christopher J. Cramer and Donald G. Truhlar   : smd solvation model
   Lars Goerigk                                  : TD-DFT with DH, B97 family of functionals
   V. Asgeirsson, H. Jonsson                     : NEB implementation
   FAccTs GmbH                                   : IRC, NEB, NEB-TS, Multilevel, MM, QM/MM, CI optimization
   S Lehtola, MJT Oliveira, MAL Marques          : LibXC Library


 Your calculation uses the libint2 library for the computation of 2-el integrals
 For citations please refer to: http://libint.valeyev.net

 Your ORCA version has been built with support for libXC version: 4.2.3
 For citations please refer to: https://tddft.org/programs/libxc/

 This ORCA versions uses:
   CBLAS   interface :  Fast vector & matrix operations
   LAPACKE interface :  Fast linear algebra routines
   SCALAPACK package :  Parallel linear algebra routines


Your calculation utilizes the atom-pairwise dispersion correction
with the Becke-Johnson damping scheme (D3BJ)
Cite in your paper:
S.Grimme, S.Ehrlich, L.Goerigk, J Comput Chem, (2011), 32, 1456–1465 
S.Grimme, J.Antony, S.Ehrlich and H.Krieg, J.Chem.Phys., 132, (2010), 154104 
   

----- Orbital basis set information -----
Your calculation utilizes the basis: def2-TZVPPD
   F. Weigend and R. Ahlrichs, Phys. Chem. Chem. Phys. 7, 3297 (2005).
   D. Rappoport and F. Furche, J. Chem. Phys. 133 134105 (2010).

----- AuxJ basis set information -----
Your calculation utilizes the auxiliary basis: def2/J
   F. Weigend, Phys. Chem. Chem. Phys. 8, 1057 (2006).

cite the ECPs for Au [Def2-ECP] as follows:
Ce-Yb(ecp-28): M. Dolg, H. Stoll, H.Preuss, J. Chem. Phys., 1989, 90, 1730-1734.
Y-Cd(ecp-28), Hf-Hg(ecp-46): D. Andrae,U. Haeussermann, M. Dolg, H. Stoll, H. Preuss, Theor. Chim. Acta, 1990, 77, 123-141.
In-Sb(ecp-28), Tl-Bi(ecp-46): B. Metz, H. Stoll, M. Dolg, J. Chem. Phys., 2000, 113, 2563-2569.
Te-Xe(ecp-28), Po-Rn(ecp-46): K. A. Peterson, D. Figgen, E. Goll, H. Stoll, M. Dolg, J. Chem. Phys., 2003, 119, 11113-11123.
Rb(ecp-28), Cs(ecp-46): T. Leininger, A. Nicklass, W. Kuechle, H. Stoll, M. Dolg, A. Bergner, Chem. Phys. Lett., 1996, 255, 274-280.
Sr(ecp-28), Ba(ecp-46): M. Kaupp, P. V. Schleyer, H. Stoll and H. Preuss, J. Chem. Phys., 1991, 94, 1360-1366.
La(ecp-46): M. Dolg, H. Stoll, A. Savin, H. Preuss, Theor. Chim. Acta, 1989, 75, 173-194.
Lu(ecp-28): X. Cao, M. Dolg, J. Chem. Phys., 2001, 115, 7348-7355.

ECP parameters for Au [Def2-ECP] have been obtained from:
TURBOMOLE (7.0.2)

================================================================================
                                        WARNINGS
                       Please study these warnings very carefully!
================================================================================


WARNING: Geometry Optimization
  ===> : Switching off AutoStart
         For restart on a previous wavefunction, please use MOREAD

INFO   : the flag for use of LIBINT has been found!

================================================================================
                                       INPUT FILE
================================================================================
NAME = Au01N0_F.in
|  1> #
|  2> # Au01N0_F TPSS-D3BJ/Def2-TZVPPD
|  3> #
|  4> ! tpss d3bj def2-tzvppd def2/j grid4 nofinalgrid opt xyzfile numfreq
|  5> 
|  6> *xyz 0 1
|  7> Au       0.000000    0.000000    0.196853 
|  8> F        0.000000    0.000000   -1.727931 
|  9> *
| 10> 
| 11> %maxcore 5000
| 12> 
| 13> %pal
| 14> nprocs = 24
| 15> end
| 16> 
| 17> 
| 18>                          ****END OF INPUT****
================================================================================

                       *****************************
                       * Geometry Optimization Run *
                       *****************************

Geometry optimization settings:
Update method            Update   .... BFGS
Choice of coordinates    CoordSys .... Z-matrix Internals
Initial Hessian          InHess   .... Almoef's Model

Convergence Tolerances:
Energy Change            TolE     ....  5.0000e-06 Eh
Max. Gradient            TolMAXG  ....  3.0000e-04 Eh/bohr
RMS Gradient             TolRMSG  ....  1.0000e-04 Eh/bohr
Max. Displacement        TolMAXD  ....  4.0000e-03 bohr
RMS Displacement         TolRMSD  ....  2.0000e-03 bohr
Strict Convergence                ....  False
------------------------------------------------------------------------------
                        ORCA OPTIMIZATION COORDINATE SETUP
------------------------------------------------------------------------------

The optimization will be done in new redundant internal coordinates
Making redundant internal coordinates   ...  (new redundants) done
Evaluating the initial hessian          ...  (Almloef) done
Evaluating the coordinates              ...  done
Calculating the B-matrix                .... done
Calculating the G-matrix                .... done
Diagonalizing the G-matrix              .... done
The first mode is                       ....    0
The number of degrees of freedom        ....    1

    -----------------------------------------------------------------
                    Redundant Internal Coordinates


    -----------------------------------------------------------------
         Definition                    Initial Value    Approx d2E/dq
    -----------------------------------------------------------------
      1. B(F   1,Au  0)                  1.9248         0.101471   
    -----------------------------------------------------------------

Number of atoms                         .... 2
Number of degrees of freedom            .... 1

         *************************************************************
         *                GEOMETRY OPTIMIZATION CYCLE   1            *
         *************************************************************
---------------------------------
CARTESIAN COORDINATES (ANGSTROEM)
---------------------------------
  Au     0.000000    0.000000    0.196853
  F      0.000000    0.000000   -1.727931

----------------------------
CARTESIAN COORDINATES (A.U.)
----------------------------
  NO LB      ZA    FRAG     MASS         X           Y           Z
   0 Au   19.0000*   0   196.966    0.000000    0.000000    0.371998
   1 F     9.0000    0    18.998    0.000000    0.000000   -3.265316
* core charge reduced due to ECP

--------------------------------
INTERNAL COORDINATES (ANGSTROEM)
--------------------------------
 Au     0   0   0     0.000000000000     0.00000000     0.00000000
 F      1   0   0     1.924784000000     0.00000000     0.00000000

---------------------------
INTERNAL COORDINATES (A.U.)
---------------------------
 Au     0   0   0     0.000000000000     0.00000000     0.00000000
 F      1   0   0     3.637314626953     0.00000000     0.00000000

---------------------
BASIS SET INFORMATION
---------------------
There are 2 groups of distinct atoms

 Group   1 Type Au  : 8s8p6d2f1g contracted to 6s5p3d2f1g pattern {311111/41111/411/11/1}
 Group   2 Type F   : 12s7p3d1f contracted to 6s4p3d1f pattern {621111/4111/111/1}

Atom   0Au   basis set group =>   1
Atom   1F    basis set group =>   2
---------------------------------
AUXILIARY/J BASIS SET INFORMATION
---------------------------------
There are 2 groups of distinct atoms

 Group   1 Type Au  : 11s5p5d3f3g contracted to 8s5p5d2f3g pattern {41111111/11111/11111/21/111}
 Group   2 Type F   : 12s5p4d2f1g contracted to 6s4p3d1f1g pattern {711111/2111/211/2/1}

Atom   0Au   basis set group =>   1
Atom   1F    basis set group =>   2
-------------------------
ECP PARAMETER INFORMATION
-------------------------

 Group 1, Type Au ECP Def2-ECP (replacing 60 core electrons, lmax=3)

Atom   0Au   ECP group =>   1



           ************************************************************
           *        Program running with 24 parallel MPI-processes    *
           *              working on a common directory               *
           ************************************************************
------------------------------------------------------------------------------
                           ORCA GTO INTEGRAL CALCULATION
                           -- RI-GTO INTEGRALS CHOSEN --
------------------------------------------------------------------------------

                         BASIS SET STATISTICS AND STARTUP INFO

Gaussian basis set:
 # of primitive gaussian shells          ...   48
 # of primitive gaussian functions       ...  140
 # of contracted shells                  ...   31
 # of contracted basis functions         ...   99
 Highest angular momentum                ...    4
 Maximum contraction depth               ...    6
Auxiliary gaussian basis set:
 # of primitive gaussian shells          ...   51
 # of primitive gaussian functions       ...  169
 # of contracted shells                  ...   38
 # of contracted aux-basis functions     ...  138
 Highest angular momentum                ...    4
 Maximum contraction depth               ...    7
Ratio of auxiliary to basis functions    ...  1.39
Integral package used                  ... LIBINT
 One Electron integrals                  
   ECP integrals                         ... done
 Ordering auxiliary basis shells         ... done
 Integral threshhold             Thresh  ...  2.500e-11
 Primitive cut-off               TCut    ...  2.500e-12
 Pre-screening matrix                    ... done
 Shell pair data                         ... 
 Ordering of the shell pairs             ... done (   0.000 sec) 491 of 496 pairs
 Determination of significant pairs      ... done (   0.000 sec)
 Creation of shell pair data             ... done (   0.000 sec)
 Storage of shell pair data              ... done (   0.010 sec)
 Shell pair data done in (   0.010 sec)
 Computing two index integrals           ... done
 Cholesky decomposition of the V-matrix  ... done


Timings:
 Total evaluation time                   ...   0.212 sec (  0.004 min)
 One electron matrix time                ...   0.081 sec (  0.001 min) = 38.2%
 Schwartz matrix evaluation time         ...   0.093 sec (  0.002 min) = 43.7%
 Two index repulsion integral time       ...   0.000 sec (  0.000 min) =  0.2%
 Cholesky decomposition of V             ...   0.001 sec (  0.000 min) =  0.4%
 Three index repulsion integral time     ...   0.000 sec (  0.000 min) =  0.0%



           ************************************************************
           *        Program running with 24 parallel MPI-processes    *
           *              working on a common directory               *
           ************************************************************
-------------------------------------------------------------------------------
                                 ORCA SCF
-------------------------------------------------------------------------------

------------
SCF SETTINGS
------------
Hamiltonian:
 Density Functional     Method          .... DFT(GTOs)
 Exchange Functional    Exchange        .... TPSS
 Correlation Functional Correlation     .... TPSS
 LDA part of GGA corr.  LDAOpt          .... PW91-LDA
 Gradients option       PostSCFGGA      .... off
   Density functional embedding theory  .... OFF
   NL short-range parameter             ....  5.000000
 RI-approximation to the Coulomb term is turned on
   Number of auxiliary basis functions  .... 138


General Settings:
 Integral files         IntName         .... Au01N0_F
 Hartree-Fock type      HFTyp           .... RHF
 Total Charge           Charge          ....    0
 Multiplicity           Mult            ....    1
 Number of Electrons    NEL             ....   28
 Basis Dimension        Dim             ....   99
 Nuclear Repulsion      ENuc            ....     47.0127051240 Eh

Convergence Acceleration:
 DIIS                   CNVDIIS         .... on
   Start iteration      DIISMaxIt       ....    12
   Startup error        DIISStart       ....  0.200000
   # of expansion vecs  DIISMaxEq       ....     5
   Bias factor          DIISBfac        ....   1.050
   Max. coefficient     DIISMaxC        ....  10.000
 Newton-Raphson         CNVNR           .... off
 SOSCF                  CNVSOSCF        .... off
 Level Shifting         CNVShift        .... on
   Level shift para.    LevelShift      ....    0.2500
   Turn off err/grad.   ShiftErr        ....    0.0010
 Zerner damping         CNVZerner       .... off
 Static damping         CNVDamp         .... on
   Fraction old density DampFac         ....    0.7000
   Max. Damping (<1)    DampMax         ....    0.9800
   Min. Damping (>=0)   DampMin         ....    0.0000
   Turn off err/grad.   DampErr         ....    0.1000
 Fernandez-Rico         CNVRico         .... off

SCF Procedure:
 Maximum # iterations   MaxIter         ....   125
 SCF integral mode      SCFMode         .... Direct
   Integral package                     .... LIBINT
 Reset frequency        DirectResetFreq ....    20
 Integral Threshold     Thresh          ....  2.500e-11 Eh
 Primitive CutOff       TCut            ....  2.500e-12 Eh

Convergence Tolerance:
 Convergence Check Mode ConvCheckMode   .... Total+1el-Energy
 Convergence forced     ConvForced      .... 0
 Energy Change          TolE            ....  1.000e-08 Eh
 1-El. energy change                    ....  1.000e-05 Eh
 DIIS Error             TolErr          ....  5.000e-07


Diagonalization of the overlap matrix:
Smallest eigenvalue                        ... 3.091e-03
Time for diagonalization                   ...    0.003 sec
Threshold for overlap eigenvalues          ... 1.000e-08
Number of eigenvalues below threshold      ... 0
Time for construction of square roots      ...    0.001 sec
Total time needed                          ...    0.004 sec

-------------------
DFT GRID GENERATION
-------------------

General Integration Accuracy     IntAcc      ...  4.670
Radial Grid Type                 RadialGrid  ... Gauss-Chebyshev
Angular Grid (max. acc.)         AngularGrid ... Lebedev-302
Angular grid pruning method      GridPruning ... 3 (G Style)
Weight generation scheme         WeightScheme... Becke
Basis function cutoff            BFCut       ...    1.0000e-11
Integration weight cutoff        WCut        ...    1.0000e-14
Grids for H and He will be reduced by one unit

# of grid points (after initial pruning)     ...  17924 (   0.0 sec)
# of grid points (after weights+screening)   ...  17875 (   0.0 sec)
nearest neighbour list constructed           ...    0.0 sec
Grid point re-assignment to atoms done       ...    0.0 sec
Grid point division into batches done        ...    0.1 sec
Reduced shell lists constructed in    0.1 sec

Total number of grid points                  ...    17875
Total number of batches                      ...      280
Average number of points per batch           ...       63
Average number of grid points per atom       ...     8938
Average number of shells per batch           ...     2.92 ( 9.43%)
Average number of basis functions per batch  ...     7.08 ( 7.15%)
Average number of large shells per batch     ...     1.31 (44.74%)
Average number of large basis fcns per batch ...     3.46 (48.91%)
Maximum spatial batch extension              ...  37.74, 41.49, 24.29 au
Average spatial batch extension              ...   1.13,  1.18,  0.84 au

Time for grid setup =    0.174 sec

------------------------------
INITIAL GUESS: MODEL POTENTIAL
------------------------------
Loading Hartree-Fock densities                     ... done
  calling /sw/apps/orca/orca_4_2_0_linux_x86-64_openmpi314/orca Au01N0_F_atom79.inp > Au01N0_F_atom79.out in order to generate an atomic fitting density for atom 0 (Au with ECP) on-the-fly... 
    atom 0 (Au), assumed electronic state with S=2: 1s2 2s2 2p6 3s2 3p6 4s2 3d10 4p6 5s2 4d10 5p6 6s1 4f14 5d10           ... done
Calculating cut-offs                               ... done
Setting up the integral package                    ... done
Initializing the effective Hamiltonian             ... done
Starting the Coulomb interaction                   ... done (   0.0 sec)
Reading the grid                                   ... done
Mapping shells                                     ... done
Starting the XC term evaluation                    ... done (   0.0 sec)
  promolecular density results
     # of electrons  =     88.003404550
     EX              =   -375.738490989
     EC              =     -5.127393332
     EX+EC           =   -380.865884321
Transforming the Hamiltonian                       ... done (   0.0 sec)
Diagonalizing the Hamiltonian                      ... done (   0.0 sec)
Back transforming the eigenvectors                 ... done (   0.0 sec)
Now organizing SCF variables                       ... done
                      ------------------
                      INITIAL GUESS DONE (   1.3 sec)
                      ------------------
--------------
SCF ITERATIONS
--------------
ITER       Energy         Delta-E        Max-DP      RMS-DP      [F,P]     Damp
               ***  Starting incremental Fock matrix formation  ***
  0   -235.4414355798   0.000000000000 0.17491392  0.00358328  0.5912825 0.7000
  1   -235.4986292615  -0.057193681693 0.12105211  0.00225086  0.4063505 0.7000
  2   -235.5156790182  -0.017049756721 0.08693892  0.00128871  0.2782670 0.7000
                               ***Turning on DIIS***
  3   -235.5295791852  -0.013900166943 0.06254314  0.00087571  0.1919059 0.7000
  4   -235.5399151556  -0.010335970454 0.03890247  0.00055544  0.1334094 0.7000
  5   -235.5469695992  -0.007054443630 0.10464403  0.00146949  0.0937659 0.0000
  6   -235.5637013620  -0.016731762709 0.00747387  0.00012896  0.0016752 0.0000
  7   -235.5637304469  -0.000029084963 0.00339182  0.00007129  0.0012364 0.0000
  8   -235.5637431201  -0.000012673143 0.00777829  0.00015934  0.0007779 0.0000
  9   -235.5637514831  -0.000008363031 0.00144957  0.00003141  0.0006100 0.0000
 10   -235.5637522141  -0.000000730974 0.00059144  0.00001109  0.0003423 0.0000
 11   -235.5637524009  -0.000000186861 0.00017483  0.00000364  0.0001956 0.0000
 12   -235.5637524232  -0.000000022273 0.00009627  0.00000205  0.0000792 0.0000
 13   -235.5637524356  -0.000000012431 0.00004097  0.00000067  0.0000183 0.0000
 14   -235.5637524358  -0.000000000164 0.00000828  0.00000016  0.0000059 0.0000
 15   -235.5637524356   0.000000000216 0.00000141  0.00000003  0.0000018 0.0000
                 **** Energy Check signals convergence ****

               *****************************************************
               *                     SUCCESS                       *
               *           SCF CONVERGED AFTER  16 CYCLES          *
               *****************************************************


----------------
TOTAL SCF ENERGY
----------------

Total Energy       :         -235.56375244 Eh           -6410.01558 eV

Components:
Nuclear Repulsion  :           47.01270512 Eh            1279.28074 eV
Electronic Energy  :         -282.57645756 Eh           -7689.29633 eV
One Electron Energy:         -471.84490180 Eh          -12839.55253 eV
Two Electron Energy:          189.26844424 Eh            5150.25620 eV

Virial components:
Potential Energy   :         -380.97045617 Eh          -10366.73315 eV
Kinetic Energy     :          145.40670373 Eh            3956.71756 eV
Virial Ratio       :            2.62003365


DFT components:
N(Alpha)           :       14.000001313964 electrons
N(Beta)            :       14.000001313964 electrons
N(Total)           :       28.000002627928 electrons
E(X)               :      -22.118195981760 Eh       
E(C)               :       -1.116529209229 Eh       
E(XC)              :      -23.234725190990 Eh       
DFET-embed. en.    :        0.000000000000 Eh       

---------------
SCF CONVERGENCE
---------------

  Last Energy change         ...   -2.1885e-11  Tolerance :   1.0000e-08
  Last MAX-Density change    ...    7.8152e-07  Tolerance :   1.0000e-07
  Last RMS-Density change    ...    1.4881e-08  Tolerance :   5.0000e-09
  Last DIIS Error            ...    4.0696e-07  Tolerance :   5.0000e-07

             **** THE GBW FILE WAS UPDATED (Au01N0_F.gbw) ****
             **** DENSITY FILE WAS UPDATED (Au01N0_F.scfp) ****
             **** ENERGY FILE WAS UPDATED (Au01N0_F.en.tmp) ****
             **** THE GBW FILE WAS UPDATED (Au01N0_F.gbw) ****
             **** DENSITY FILE WAS UPDATED (Au01N0_F.scfp) ****
----------------
ORBITAL ENERGIES
----------------

  NO   OCC          E(Eh)            E(eV) 
   0   2.0000     -24.371241      -663.1752 
   1   2.0000      -4.055525      -110.3564 
   2   2.0000      -2.279343       -62.0241 
   3   2.0000      -2.256628       -61.4060 
   4   2.0000      -2.256628       -61.4060 
   5   2.0000      -1.036310       -28.1994 
   6   2.0000      -0.409231       -11.1358 
   7   2.0000      -0.352533        -9.5929 
   8   2.0000      -0.352533        -9.5929 
   9   2.0000      -0.286278        -7.7900 
  10   2.0000      -0.286277        -7.7900 
  11   2.0000      -0.262988        -7.1563 
  12   2.0000      -0.262988        -7.1563 
  13   2.0000      -0.259752        -7.0682 
  14   0.0000      -0.177341        -4.8257 
  15   0.0000      -0.018348        -0.4993 
  16   0.0000      -0.018348        -0.4993 
  17   0.0000       0.021925         0.5966 
  18   0.0000       0.079451         2.1620 
  19   0.0000       0.134025         3.6470 
  20   0.0000       0.134025         3.6470 
  21   0.0000       0.146446         3.9850 
  22   0.0000       0.173829         4.7301 
  23   0.0000       0.173829         4.7301 
  24   0.0000       0.216446         5.8898 
  25   0.0000       0.279361         7.6018 
  26   0.0000       0.279361         7.6018 
  27   0.0000       0.302046         8.2191 
  28   0.0000       0.347521         9.4565 
  29   0.0000       0.347521         9.4565 
  30   0.0000       0.399854        10.8806 
  31   0.0000       0.509280        13.8582 
  32   0.0000       0.509288        13.8584 
  33   0.0000       0.625693        17.0260 
  34   0.0000       0.625693        17.0260 
  35   0.0000       0.629419        17.1274 
  36   0.0000       0.737108        20.0577 
  37   0.0000       0.737108        20.0577 
  38   0.0000       0.918256        24.9870 
  39   0.0000       0.998168        27.1615 
  40   0.0000       0.998168        27.1615 
  41   0.0000       1.021874        27.8066 
  42   0.0000       1.063618        28.9425 
  43   0.0000       1.063618        28.9425 
  44   0.0000       1.095354        29.8061 
  45   0.0000       1.095354        29.8061 
  46   0.0000       1.211520        32.9671 
  47   0.0000       1.254468        34.1358 
  48   0.0000       1.254468        34.1358 
  49   0.0000       1.311118        35.6773 
  50   0.0000       1.412025        38.4231 
  51   0.0000       1.412027        38.4232 
  52   0.0000       1.465841        39.8876 
  53   0.0000       1.465841        39.8876 
  54   0.0000       1.626518        44.2598 
  55   0.0000       2.148040        58.4511 
  56   0.0000       2.232387        60.7463 
  57   0.0000       2.232403        60.7468 
  58   0.0000       2.300059        62.5878 
  59   0.0000       2.300059        62.5878 
  60   0.0000       2.733076        74.3708 
  61   0.0000       3.285565        89.4048 
  62   0.0000       3.285565        89.4048 
  63   0.0000       3.424789        93.1932 
  64   0.0000       3.479002        94.6685 
  65   0.0000       3.479002        94.6685 
  66   0.0000       3.493299        95.0575 
  67   0.0000       3.493316        95.0580 
  68   0.0000       3.624303        98.6223 
  69   0.0000       3.624303        98.6223 
  70   0.0000       3.745225       101.9128 
  71   0.0000       3.947797       107.4250 
  72   0.0000       4.025104       109.5286 
  73   0.0000       4.025108       109.5288 
  74   0.0000       4.032815       109.7385 
  75   0.0000       4.032815       109.7385 
  76   0.0000       4.045111       110.0731 
  77   0.0000       4.045141       110.0739 
  78   0.0000       4.065333       110.6233 
  79   0.0000       4.065333       110.6233 
  80   0.0000       4.647535       126.4658 
  81   0.0000       6.899779       187.7525 
  82   0.0000       6.900470       187.7713 
  83   0.0000       6.917810       188.2432 
  84   0.0000       6.917810       188.2432 
  85   0.0000       6.981470       189.9755 
  86   0.0000       6.981470       189.9755 
  87   0.0000       7.109101       193.4485 
  88   0.0000       8.418564       229.0808 
  89   0.0000       8.418686       229.0841 
  90   0.0000       8.487640       230.9604 
  91   0.0000       8.487640       230.9604 
  92   0.0000       8.833569       240.3736 
  93   0.0000      27.244910       741.3717 
  94   0.0000      27.244910       741.3717 
  95   0.0000      30.268558       823.6493 
  96   0.0000      43.986894      1196.9442 
  97   0.0000      56.871926      1547.5638 
  98   0.0000     205.083390      5580.6028 

                    ********************************
                    * MULLIKEN POPULATION ANALYSIS *
                    ********************************

-----------------------
MULLIKEN ATOMIC CHARGES
-----------------------
   0 Au:    0.403021
   1 F :   -0.403021
Sum of atomic charges:   -0.0000000

--------------------------------
MULLIKEN REDUCED ORBITAL CHARGES
--------------------------------
  0 Aus       :     2.794967  s :     2.794967
      pz      :     2.040460  p :     6.092753
      px      :     2.026147
      py      :     2.026147
      dz2     :     1.705471  d :     9.686823
      dxz     :     1.990846
      dyz     :     1.990846
      dx2y2   :     1.999830
      dxy     :     1.999830
      f0      :     0.009370  f :     0.021834
      f+1     :     0.006140
      f-1     :     0.006140
      f+2     :     0.000091
      f-2     :     0.000091
      f+3     :     0.000000
      f-3     :     0.000000
      g0      :     0.000295  g :     0.000602
      g+1     :     0.000143
      g-1     :     0.000143
      g+2     :     0.000011
      g-2     :     0.000011
      g+3     :     0.000000
      g-3     :     0.000000
      g+4     :     0.000000
      g-4     :     0.000000
  1 F s       :     3.949898  s :     3.949898
      pz      :     1.496716  p :     5.444430
      px      :     1.973857
      py      :     1.973857
      dz2     :     0.002684  d :     0.008404
      dxz     :     0.002798
      dyz     :     0.002798
      dx2y2   :     0.000062
      dxy     :     0.000063
      f0      :     0.000140  f :     0.000289
      f+1     :     0.000069
      f-1     :     0.000069
      f+2     :     0.000005
      f-2     :     0.000005
      f+3     :     0.000000
      f-3     :     0.000000


                     *******************************
                     * LOEWDIN POPULATION ANALYSIS *
                     *******************************

----------------------
LOEWDIN ATOMIC CHARGES
----------------------
   0 Au:    0.579783
   1 F :   -0.579783

-------------------------------
LOEWDIN REDUCED ORBITAL CHARGES
-------------------------------
  0 Aus       :     2.521567  s :     2.521567
      pz      :     2.054624  p :     6.134272
      px      :     2.039824
      py      :     2.039824
      dz2     :     1.765151  d :     9.716251
      dxz     :     1.980862
      dyz     :     1.980862
      dx2y2   :     1.994689
      dxy     :     1.994689
      f0      :     0.022053  f :     0.047045
      f+1     :     0.012363
      f-1     :     0.012363
      f+2     :     0.000133
      f-2     :     0.000133
      f+3     :     0.000000
      f-3     :     0.000000
      g0      :     0.000586  g :     0.001082
      g+1     :     0.000239
      g-1     :     0.000239
      g+2     :     0.000009
      g-2     :     0.000009
      g+3     :     0.000000
      g-3     :     0.000000
      g+4     :     0.000000
      g-4     :     0.000000
  1 F s       :     3.876646  s :     3.876646
      pz      :     1.697372  p :     5.566213
      px      :     1.934421
      py      :     1.934421
      dz2     :     0.061731  d :     0.136328
      dxz     :     0.032140
      dyz     :     0.032140
      dx2y2   :     0.005159
      dxy     :     0.005159
      f0      :     0.000271  f :     0.000596
      f+1     :     0.000152
      f-1     :     0.000152
      f+2     :     0.000011
      f-2     :     0.000011
      f+3     :     0.000000
      f-3     :     0.000000


                      *****************************
                      * MAYER POPULATION ANALYSIS *
                      *****************************

  NA   - Mulliken gross atomic population
  ZA   - Total nuclear charge
  QA   - Mulliken gross atomic charge
  VA   - Mayer's total valence
  BVA  - Mayer's bonded valence
  FA   - Mayer's free valence

  ATOM       NA         ZA         QA         VA         BVA        FA
  0 Au    18.5970    19.0000     0.4030     0.8940     0.8940    -0.0000
  1 F      9.4030     9.0000    -0.4030     0.8940     0.8940    -0.0000

  Mayer bond orders larger than 0.100000
B(  0-Au,  1-F ) :   0.8940 

-------
TIMINGS
-------

Total SCF time: 0 days 0 hours 0 min 2 sec 

Total time                  ....       2.954 sec
Sum of individual times     ....       2.862 sec  ( 96.9%)

Fock matrix formation       ....       1.556 sec  ( 52.7%)
  Split-RI-J                ....       1.127 sec  ( 72.5% of F)
  XC integration            ....       0.392 sec  ( 25.2% of F)
    Basis function eval.    ....       0.026 sec  (  6.6% of XC)
    Density eval.           ....       0.033 sec  (  8.4% of XC)
    XC-Functional eval.     ....       0.024 sec  (  6.1% of XC)
    XC-Potential eval.      ....       0.064 sec  ( 16.3% of XC)
Diagonalization             ....       0.023 sec  (  0.8%)
Density matrix formation    ....       0.005 sec  (  0.2%)
Population analysis         ....       0.003 sec  (  0.1%)
Initial guess               ....       1.087 sec  ( 36.8%)
Orbital Transformation      ....       0.000 sec  (  0.0%)
Orbital Orthonormalization  ....       0.000 sec  (  0.0%)
DIIS solution               ....       0.014 sec  (  0.5%)
Grid generation             ....       0.174 sec  (  5.9%)


-------------------------------------------------------------------------------
                          DFT DISPERSION CORRECTION                            
                                                                               
                              DFTD3 V3.1  Rev 1                                
                          USING Becke-Johnson damping                          
-------------------------------------------------------------------------------
The TPSS functional is recognized
Active option DFTDOPT                   ...         4   

molecular C6(AA) [au] = 411.174902 


            DFT-D V3
 parameters
 s6 scaling factor         :     1.0000 
 a1 scaling factor         :     0.4535 
 s8 scaling factor         :     1.9435 
 a2 scaling factor         :     4.4752 
 ad hoc parameters k1-k3   :    16.0000     1.3333    -4.0000 

 Edisp/kcal,au: -0.410917533437  -0.000654838702 
 E6   /kcal   :  -0.165904918 
 E8   /kcal   :  -0.245012615 
 % E8         :  59.625738828 

-------------------------   ----------------
Dispersion correction           -0.000654839
-------------------------   ----------------


-------------------------   --------------------
FINAL SINGLE POINT ENERGY      -235.564407274306
-------------------------   --------------------



           ************************************************************
           *        Program running with 24 parallel MPI-processes    *
           *              working on a common directory               *
           ************************************************************
------------------------------------------------------------------------------
                         ORCA SCF GRADIENT CALCULATION
------------------------------------------------------------------------------

Gradient of the Kohn-Sham DFT energy:
Kohn-Sham wavefunction type      ... RKS
Hartree-Fock exchange scaling    ...    0.000
Number of operators              ...    1
Number of atoms                  ...    2
Basis set dimensions             ...   99
Integral neglect threshold       ... 2.5e-11
Integral primitive cutoff        ... 2.5e-12

Nuclear repulsion gradient       ... done
One Electron Gradient            
  ECP gradient                   ... done
Pre-screening matrix             ... done
RI-J gradient                    ... done
Exchange-correlation gradient    ... done
Dispersion correction            ... done

------------------
CARTESIAN GRADIENT
------------------

   1   Au  :    0.000000004    0.000000003   -0.006080319
   2   F   :   -0.000000003   -0.000000001    0.004630219

Difference to translation invariance:
           :    0.0000000014    0.0000000021   -0.0014500999

Norm of the cartesian gradient     ...    0.0076425917
RMS gradient                       ...    0.0031200750
MAX gradient                       ...    0.0060803190

-------
TIMINGS
-------

Total SCF gradient time            ...        0.436 sec

One electron gradient       ....       0.159 sec  ( 36.4%)
Prescreening matrices       ....       0.004 sec  (  0.8%)
RI-J Coulomb gradient       ....       0.070 sec  ( 16.1%)
XC gradient                 ....       0.012 sec  (  2.8%)
------------------------------------------------------------------------------
                         ORCA GEOMETRY RELAXATION STEP
------------------------------------------------------------------------------

Reading the OPT-File                    .... done
Getting information on internals        .... done
Copying old internal coords+grads       .... done
Making the new internal coordinates     .... (new redundants).... done
Validating the new internal coordinates .... (new redundants).... done
Calculating the B-matrix                .... done
Calculating the G,G- and P matrices     .... done
Transforming gradient to internals      .... done
Projecting the internal gradient        .... done
Number of atoms                         ....   2
Number of internal coordinates          ....   1
Current Energy                          ....  -235.564407274 Eh
Current gradient norm                   ....     0.007642592 Eh/bohr
Maximum allowed component of the step   ....  0.300
Current trust radius                    ....  0.300
Evaluating the initial hessian          ....  (Almloef) done
Projecting the Hessian                  .... done
Forming the augmented Hessian           .... done
Diagonalizing the augmented Hessian     .... done
Last element of RFO vector              ....  0.998617905
Lowest eigenvalues of augmented Hessian:
 -0.000281848
Length of the computed step             ....  0.052630126
The final length of the internal step   ....  0.052630126
Converting the step to cartesian space:
 Initial RMS(Int)=    0.0526301262
Transforming coordinates:
 Iter   0:  RMS(Cart)=    0.0151930088 RMS(Int)=    0.0526301262
 Iter   1:  RMS(Cart)=    0.0000000000 RMS(Int)=    0.0000000000
done
Storing new coordinates                 .... done

                                .--------------------.
          ----------------------|Geometry convergence|-------------------------
          Item                value                   Tolerance       Converged
          ---------------------------------------------------------------------
          RMS gradient        0.0053552690            0.0001000000      NO
          MAX gradient        0.0053552690            0.0003000000      NO
          RMS step            0.0526301262            0.0020000000      NO
          MAX step            0.0526301262            0.0040000000      NO
          ........................................................
          Max(Bonds)      0.0279      Max(Angles)    0.00
          Max(Dihed)        0.00      Max(Improp)    0.00
          ---------------------------------------------------------------------

The optimization has not yet converged - more geometry cycles are needed


    ---------------------------------------------------------------------------
                         Redundant Internal Coordinates
                            (Angstroem and degrees)

        Definition                    Value    dE/dq     Step     New-Value
    ----------------------------------------------------------------------------
     1. B(F   1,Au  0)                1.9248 -0.005355  0.0279    1.9526   
    ----------------------------------------------------------------------------

         *************************************************************
         *                GEOMETRY OPTIMIZATION CYCLE   2            *
         *************************************************************
---------------------------------
CARTESIAN COORDINATES (ANGSTROEM)
---------------------------------
  Au     0.000000    0.000000    0.210778
  F      0.000000    0.000000   -1.741856

----------------------------
CARTESIAN COORDINATES (A.U.)
----------------------------
  NO LB      ZA    FRAG     MASS         X           Y           Z
   0 Au   19.0000*   0   196.966    0.000000    0.000000    0.398313
   1 F     9.0000    0    18.998    0.000000    0.000000   -3.291631
* core charge reduced due to ECP

--------------------------------
INTERNAL COORDINATES (ANGSTROEM)
--------------------------------
 Au     0   0   0     0.000000000000     0.00000000     0.00000000
 F      1   0   0     1.952634663266     0.00000000     0.00000000

---------------------------
INTERNAL COORDINATES (A.U.)
---------------------------
 Au     0   0   0     0.000000000000     0.00000000     0.00000000
 F      1   0   0     3.689944753174     0.00000000     0.00000000



           ************************************************************
           *        Program running with 24 parallel MPI-processes    *
           *              working on a common directory               *
           ************************************************************
 One Electron integrals                  ... done
 Pre-screening matrix                    ... done


           ************************************************************
           *        Program running with 24 parallel MPI-processes    *
           *              working on a common directory               *
           ************************************************************

Diagonalization of the overlap matrix:
Smallest eigenvalue                        ... 3.282e-03
Time for diagonalization                   ...    0.003 sec
Threshold for overlap eigenvalues          ... 1.000e-08
Number of eigenvalues below threshold      ... 0
Time for construction of square roots      ...    0.001 sec
Total time needed                          ...    0.005 sec

-------------------
DFT GRID GENERATION
-------------------

General Integration Accuracy     IntAcc      ...  4.670
Radial Grid Type                 RadialGrid  ... Gauss-Chebyshev
Angular Grid (max. acc.)         AngularGrid ... Lebedev-302
Angular grid pruning method      GridPruning ... 3 (G Style)
Weight generation scheme         WeightScheme... Becke
Basis function cutoff            BFCut       ...    1.0000e-11
Integration weight cutoff        WCut        ...    1.0000e-14
Grids for H and He will be reduced by one unit

# of grid points (after initial pruning)     ...  17924 (   0.0 sec)
# of grid points (after weights+screening)   ...  17875 (   0.0 sec)
nearest neighbour list constructed           ...    0.0 sec
Grid point re-assignment to atoms done       ...    0.0 sec
Grid point division into batches done        ...    0.1 sec
Reduced shell lists constructed in    0.1 sec

Total number of grid points                  ...    17875
Total number of batches                      ...      280
Average number of points per batch           ...       63
Average number of grid points per atom       ...     8938
Average number of shells per batch           ...     2.92 ( 9.43%)
Average number of basis functions per batch  ...     7.08 ( 7.15%)
Average number of large shells per batch     ...     1.31 (44.74%)
Average number of large basis fcns per batch ...     3.46 (48.91%)
Maximum spatial batch extension              ...  37.74, 41.49, 24.29 au
Average spatial batch extension              ...   1.14,  1.17,  0.85 au

Time for grid setup =    0.160 sec

--------------
SCF ITERATIONS
--------------
ITER       Energy         Delta-E        Max-DP      RMS-DP      [F,P]     Damp
               ***  Starting incremental Fock matrix formation  ***
  0   -235.5636059988   0.000000000000 0.00231066  0.00006239  0.0455571 0.7000
  1   -235.5636487340  -0.000042735159 0.00335370  0.00006911  0.0319526 0.7000
                               ***Turning on DIIS***
  2   -235.5636812893  -0.000032555287 0.01217694  0.00022315  0.0223897 0.0000
  3   -235.5637591280  -0.000077838719 0.00429677  0.00007966  0.0008475 0.0000
  4   -235.5637619034  -0.000002775405 0.00155710  0.00003415  0.0008267 0.0000
  5   -235.5637626166  -0.000000713207 0.00089374  0.00002024  0.0005904 0.0000
  6   -235.5637634661  -0.000000849512 0.00041796  0.00000733  0.0000743 0.0000
  7   -235.5637634623   0.000000003836 0.00020678  0.00000356  0.0001609 0.0000
  8   -235.5637634924  -0.000000030121 0.00004338  0.00000074  0.0000326 0.0000
  9   -235.5637634927  -0.000000000309 0.00001695  0.00000029  0.0000122 0.0000
                            ***DIIS convergence achieved***

               *****************************************************
               *                     SUCCESS                       *
               *           SCF CONVERGED AFTER  10 CYCLES          *
               *****************************************************

Total Energy       :         -235.56376349 Eh           -6410.01588 eV
  Last Energy change         ...    6.8025e-10  Tolerance :   1.0000e-08
  Last MAX-Density change    ...    6.5916e-07  Tolerance :   1.0000e-07
             **** THE GBW FILE WAS UPDATED (Au01N0_F.gbw) ****
             **** DENSITY FILE WAS UPDATED (Au01N0_F.scfp) ****
             **** ENERGY FILE WAS UPDATED (Au01N0_F.en.tmp) ****
             **** THE GBW FILE WAS UPDATED (Au01N0_F.gbw) ****
             **** DENSITY FILE WAS UPDATED (Au01N0_F.scfp) ****
Total SCF time: 0 days 0 hours 0 min 1 sec 


-------------------------------------------------------------------------------
                          DFT DISPERSION CORRECTION                            
                                                                               
                              DFTD3 V3.1  Rev 1                                
                          USING Becke-Johnson damping                          
-------------------------------------------------------------------------------
-------------------------   ----------------
Dispersion correction           -0.000654554
-------------------------   ----------------


-------------------------   --------------------
FINAL SINGLE POINT ENERGY      -235.564418046203
-------------------------   --------------------



           ************************************************************
           *        Program running with 24 parallel MPI-processes    *
           *              working on a common directory               *
           ************************************************************
------------------------------------------------------------------------------
                         ORCA SCF GRADIENT CALCULATION
------------------------------------------------------------------------------

Gradient of the Kohn-Sham DFT energy:
Kohn-Sham wavefunction type      ... RKS
Hartree-Fock exchange scaling    ...    0.000
Number of operators              ...    1
Number of atoms                  ...    2
Basis set dimensions             ...   99
Integral neglect threshold       ... 2.5e-11
Integral primitive cutoff        ... 2.5e-12

Nuclear repulsion gradient       ... done
One Electron Gradient            
  ECP gradient                   ... done
Pre-screening matrix             ... done
RI-J gradient                    ... done
Exchange-correlation gradient    ... done
Dispersion correction            ... done

------------------
CARTESIAN GRADIENT
------------------

   1   Au  :   -0.000000000    0.000000001    0.003940288
   2   F   :    0.000000002   -0.000000001   -0.005344436

Difference to translation invariance:
           :    0.0000000016   -0.0000000003   -0.0014041477

Norm of the cartesian gradient     ...    0.0066399447
RMS gradient                       ...    0.0027107461
MAX gradient                       ...    0.0053444359

-------
TIMINGS
-------

Total SCF gradient time            ...        0.427 sec

One electron gradient       ....       0.160 sec  ( 37.6%)
Prescreening matrices       ....       0.004 sec  (  0.9%)
RI-J Coulomb gradient       ....       0.070 sec  ( 16.4%)
XC gradient                 ....       0.012 sec  (  2.9%)
------------------------------------------------------------------------------
                         ORCA GEOMETRY RELAXATION STEP
------------------------------------------------------------------------------

Reading the OPT-File                    .... done
Getting information on internals        .... done
Copying old internal coords+grads       .... done
Making the new internal coordinates     .... (new redundants).... done
Validating the new internal coordinates .... (new redundants).... done
Calculating the B-matrix                .... done
Calculating the G,G- and P matrices     .... done
Transforming gradient to internals      .... done
Projecting the internal gradient        .... done
Number of atoms                         ....   2
Number of internal coordinates          ....   1
Current Energy                          ....  -235.564418046 Eh
Current gradient norm                   ....     0.006639945 Eh/bohr
Maximum allowed component of the step   ....  0.300
Current trust radius                    ....  0.300
Updating the Hessian (BFGS)             .... done
Forming the augmented Hessian           .... done
Diagonalizing the augmented Hessian     .... done
Last element of RFO vector              ....  0.999701867
Lowest eigenvalues of augmented Hessian:
 -0.000113385
Length of the computed step             ....  0.024424021
The final length of the internal step   ....  0.024424021
Converting the step to cartesian space:
 Initial RMS(Int)=    0.0244240208
Transforming coordinates:
 Iter   0:  RMS(Cart)=    0.0070506075 RMS(Int)=    0.0244240208
 Iter   1:  RMS(Cart)=    0.0000000000 RMS(Int)=    0.0000000000
done
Storing new coordinates                 .... done

                                .--------------------.
          ----------------------|Geometry convergence|-------------------------
          Item                value                   Tolerance       Converged
          ---------------------------------------------------------------------
          Energy change      -0.0000107719            0.0000050000      NO
          RMS gradient        0.0046423620            0.0001000000      NO
          MAX gradient        0.0046423620            0.0003000000      NO
          RMS step            0.0244240208            0.0020000000      NO
          MAX step            0.0244240208            0.0040000000      NO
          ........................................................
          Max(Bonds)      0.0129      Max(Angles)    0.00
          Max(Dihed)        0.00      Max(Improp)    0.00
          ---------------------------------------------------------------------

The optimization has not yet converged - more geometry cycles are needed


    ---------------------------------------------------------------------------
                         Redundant Internal Coordinates
                            (Angstroem and degrees)

        Definition                    Value    dE/dq     Step     New-Value
    ----------------------------------------------------------------------------
     1. B(F   1,Au  0)                1.9526  0.004642 -0.0129    1.9397   
    ----------------------------------------------------------------------------

         *************************************************************
         *                GEOMETRY OPTIMIZATION CYCLE   3            *
         *************************************************************
---------------------------------
CARTESIAN COORDINATES (ANGSTROEM)
---------------------------------
  Au     0.000000    0.000000    0.204316
  F      0.000000    0.000000   -1.735394

----------------------------
CARTESIAN COORDINATES (A.U.)
----------------------------
  NO LB      ZA    FRAG     MASS         X           Y           Z
   0 Au   19.0000*   0   196.966    0.000000    0.000000    0.386101
   1 F     9.0000    0    18.998    0.000000    0.000000   -3.279419
* core charge reduced due to ECP

--------------------------------
INTERNAL COORDINATES (ANGSTROEM)
--------------------------------
 Au     0   0   0     0.000000000000     0.00000000     0.00000000
 F      1   0   0     1.939710028112     0.00000000     0.00000000

---------------------------
INTERNAL COORDINATES (A.U.)
---------------------------
 Au     0   0   0     0.000000000000     0.00000000     0.00000000
 F      1   0   0     3.665520732352     0.00000000     0.00000000



           ************************************************************
           *        Program running with 24 parallel MPI-processes    *
           *              working on a common directory               *
           ************************************************************
 One Electron integrals                  ... done
 Pre-screening matrix                    ... done


           ************************************************************
           *        Program running with 24 parallel MPI-processes    *
           *              working on a common directory               *
           ************************************************************

Diagonalization of the overlap matrix:
Smallest eigenvalue                        ... 3.194e-03
Time for diagonalization                   ...    0.004 sec
Threshold for overlap eigenvalues          ... 1.000e-08
Number of eigenvalues below threshold      ... 0
Time for construction of square roots      ...    0.002 sec
Total time needed                          ...    0.005 sec

-------------------
DFT GRID GENERATION
-------------------

General Integration Accuracy     IntAcc      ...  4.670
Radial Grid Type                 RadialGrid  ... Gauss-Chebyshev
Angular Grid (max. acc.)         AngularGrid ... Lebedev-302
Angular grid pruning method      GridPruning ... 3 (G Style)
Weight generation scheme         WeightScheme... Becke
Basis function cutoff            BFCut       ...    1.0000e-11
Integration weight cutoff        WCut        ...    1.0000e-14
Grids for H and He will be reduced by one unit

# of grid points (after initial pruning)     ...  17924 (   0.0 sec)
# of grid points (after weights+screening)   ...  17875 (   0.0 sec)
nearest neighbour list constructed           ...    0.0 sec
Grid point re-assignment to atoms done       ...    0.0 sec
Grid point division into batches done        ...    0.2 sec
Reduced shell lists constructed in    0.2 sec

Total number of grid points                  ...    17875
Total number of batches                      ...      280
Average number of points per batch           ...       63
Average number of grid points per atom       ...     8938
Average number of shells per batch           ...     2.92 ( 9.43%)
Average number of basis functions per batch  ...     7.08 ( 7.15%)
Average number of large shells per batch     ...     1.31 (44.74%)
Average number of large basis fcns per batch ...     3.46 (48.91%)
Maximum spatial batch extension              ...  37.74, 41.49, 24.29 au
Average spatial batch extension              ...   1.13,  1.18,  0.84 au

Time for grid setup =    0.177 sec

--------------
SCF ITERATIONS
--------------
ITER       Energy         Delta-E        Max-DP      RMS-DP      [F,P]     Damp
               ***  Starting incremental Fock matrix formation  ***
  0   -235.5637899379   0.000000000000 0.00105391  0.00002854  0.0222407 0.7000
  1   -235.5637990098  -0.000009071992 0.00152514  0.00003157  0.0155975 0.7000
                               ***Turning on DIIS***
  2   -235.5638058989  -0.000006889051 0.00554498  0.00010191  0.0109287 0.0000
  3   -235.5638223405  -0.000016441624 0.00201332  0.00003698  0.0003950 0.0000
  4   -235.5638229045  -0.000000563985 0.00072868  0.00001581  0.0003927 0.0000
  5   -235.5638230709  -0.000000166403 0.00038261  0.00000792  0.0002773 0.0000
  6   -235.5638232566  -0.000000185710 0.00008161  0.00000165  0.0000591 0.0000
  7   -235.5638232556   0.000000001065 0.00011117  0.00000190  0.0000758 0.0000
  8   -235.5638232602  -0.000000004691 0.00001813  0.00000035  0.0000134 0.0000
  9   -235.5638232610  -0.000000000775 0.00000157  0.00000005  0.0000037 0.0000
                 **** Energy Check signals convergence ****

               *****************************************************
               *                     SUCCESS                       *
               *           SCF CONVERGED AFTER  10 CYCLES          *
               *****************************************************

Total Energy       :         -235.56382326 Eh           -6410.01751 eV
  Last Energy change         ...    1.3915e-09  Tolerance :   1.0000e-08
  Last MAX-Density change    ...    4.6463e-07  Tolerance :   1.0000e-07
             **** THE GBW FILE WAS UPDATED (Au01N0_F.gbw) ****
             **** DENSITY FILE WAS UPDATED (Au01N0_F.scfp) ****
             **** ENERGY FILE WAS UPDATED (Au01N0_F.en.tmp) ****
             **** THE GBW FILE WAS UPDATED (Au01N0_F.gbw) ****
             **** DENSITY FILE WAS UPDATED (Au01N0_F.scfp) ****
Total SCF time: 0 days 0 hours 0 min 1 sec 


-------------------------------------------------------------------------------
                          DFT DISPERSION CORRECTION                            
                                                                               
                              DFTD3 V3.1  Rev 1                                
                          USING Becke-Johnson damping                          
-------------------------------------------------------------------------------
-------------------------   ----------------
Dispersion correction           -0.000654683
-------------------------   ----------------


-------------------------   --------------------
FINAL SINGLE POINT ENERGY      -235.564477942776
-------------------------   --------------------



           ************************************************************
           *        Program running with 24 parallel MPI-processes    *
           *              working on a common directory               *
           ************************************************************
------------------------------------------------------------------------------
                         ORCA SCF GRADIENT CALCULATION
------------------------------------------------------------------------------

Gradient of the Kohn-Sham DFT energy:
Kohn-Sham wavefunction type      ... RKS
Hartree-Fock exchange scaling    ...    0.000
Number of operators              ...    1
Number of atoms                  ...    2
Basis set dimensions             ...   99
Integral neglect threshold       ... 2.5e-11
Integral primitive cutoff        ... 2.5e-12

Nuclear repulsion gradient       ... done
One Electron Gradient            
  ECP gradient                   ... done
Pre-screening matrix             ... done
RI-J gradient                    ... done
Exchange-correlation gradient    ... done
Dispersion correction            ... done

------------------
CARTESIAN GRADIENT
------------------

   1   Au  :   -0.000000003    0.000000003   -0.000517431
   2   F   :    0.000000003   -0.000000001   -0.000908941

Difference to translation invariance:
           :   -0.0000000001    0.0000000022   -0.0014263721

Norm of the cartesian gradient     ...    0.0010459008
RMS gradient                       ...    0.0004269872
MAX gradient                       ...    0.0009089406

-------
TIMINGS
-------

Total SCF gradient time            ...        0.434 sec

One electron gradient       ....       0.152 sec  ( 35.0%)
Prescreening matrices       ....       0.004 sec  (  0.9%)
RI-J Coulomb gradient       ....       0.070 sec  ( 16.1%)
XC gradient                 ....       0.013 sec  (  2.9%)
------------------------------------------------------------------------------
                         ORCA GEOMETRY RELAXATION STEP
------------------------------------------------------------------------------

Reading the OPT-File                    .... done
Getting information on internals        .... done
Copying old internal coords+grads       .... done
Making the new internal coordinates     .... (new redundants).... done
Validating the new internal coordinates .... (new redundants).... done
Calculating the B-matrix                .... done
Calculating the G,G- and P matrices     .... done
Transforming gradient to internals      .... done
Projecting the internal gradient        .... done
Number of atoms                         ....   2
Number of internal coordinates          ....   1
Current Energy                          ....  -235.564477943 Eh
Current gradient norm                   ....     0.001045901 Eh/bohr
Maximum allowed component of the step   ....  0.300
Current trust radius                    ....  0.300
Updating the Hessian (BFGS)             .... done
Forming the augmented Hessian           .... done
Diagonalizing the augmented Hessian     .... done
Last element of RFO vector              ....  0.999999422
Lowest eigenvalues of augmented Hessian:
 -0.000000210
Length of the computed step             ....  0.001075226
The final length of the internal step   ....  0.001075226
Converting the step to cartesian space:
 Initial RMS(Int)=    0.0010752261
Transforming coordinates:
 Iter   0:  RMS(Cart)=    0.0003103910 RMS(Int)=    0.0010752261
 Iter   1:  RMS(Cart)=    0.0000000000 RMS(Int)=    0.0000000000
done
Storing new coordinates                 .... done

                                .--------------------.
          ----------------------|Geometry convergence|-------------------------
          Item                value                   Tolerance       Converged
          ---------------------------------------------------------------------
          Energy change      -0.0000598966            0.0000050000      NO
          RMS gradient        0.0001957546            0.0001000000      NO
          MAX gradient        0.0001957546            0.0003000000      YES
          RMS step            0.0010752261            0.0020000000      YES
          MAX step            0.0010752261            0.0040000000      YES
          ........................................................
          Max(Bonds)      0.0006      Max(Angles)    0.00
          Max(Dihed)        0.00      Max(Improp)    0.00
          ---------------------------------------------------------------------

The optimization has not yet converged - more geometry cycles are needed


    ---------------------------------------------------------------------------
                         Redundant Internal Coordinates
                            (Angstroem and degrees)

        Definition                    Value    dE/dq     Step     New-Value
    ----------------------------------------------------------------------------
     1. B(F   1,Au  0)                1.9397  0.000196 -0.0006    1.9391   
    ----------------------------------------------------------------------------

         *************************************************************
         *                GEOMETRY OPTIMIZATION CYCLE   4            *
         *************************************************************
---------------------------------
CARTESIAN COORDINATES (ANGSTROEM)
---------------------------------
  Au     0.000000    0.000000    0.204032
  F      0.000000    0.000000   -1.735110

----------------------------
CARTESIAN COORDINATES (A.U.)
----------------------------
  NO LB      ZA    FRAG     MASS         X           Y           Z
   0 Au   19.0000*   0   196.966    0.000000    0.000000    0.385564
   1 F     9.0000    0    18.998    0.000000    0.000000   -3.278882
* core charge reduced due to ECP

--------------------------------
INTERNAL COORDINATES (ANGSTROEM)
--------------------------------
 Au     0   0   0     0.000000000000     0.00000000     0.00000000
 F      1   0   0     1.939141042964     0.00000000     0.00000000

---------------------------
INTERNAL COORDINATES (A.U.)
---------------------------
 Au     0   0   0     0.000000000000     0.00000000     0.00000000
 F      1   0   0     3.664445506249     0.00000000     0.00000000



           ************************************************************
           *        Program running with 24 parallel MPI-processes    *
           *              working on a common directory               *
           ************************************************************
 One Electron integrals                  ... done
 Pre-screening matrix                    ... done


           ************************************************************
           *        Program running with 24 parallel MPI-processes    *
           *              working on a common directory               *
           ************************************************************

Diagonalization of the overlap matrix:
Smallest eigenvalue                        ... 3.190e-03
Time for diagonalization                   ...    0.003 sec
Threshold for overlap eigenvalues          ... 1.000e-08
Number of eigenvalues below threshold      ... 0
Time for construction of square roots      ...    0.001 sec
Total time needed                          ...    0.004 sec

-------------------
DFT GRID GENERATION
-------------------

General Integration Accuracy     IntAcc      ...  4.670
Radial Grid Type                 RadialGrid  ... Gauss-Chebyshev
Angular Grid (max. acc.)         AngularGrid ... Lebedev-302
Angular grid pruning method      GridPruning ... 3 (G Style)
Weight generation scheme         WeightScheme... Becke
Basis function cutoff            BFCut       ...    1.0000e-11
Integration weight cutoff        WCut        ...    1.0000e-14
Grids for H and He will be reduced by one unit

# of grid points (after initial pruning)     ...  17924 (   0.0 sec)
# of grid points (after weights+screening)   ...  17875 (   0.0 sec)
nearest neighbour list constructed           ...    0.0 sec
Grid point re-assignment to atoms done       ...    0.0 sec
Grid point division into batches done        ...    0.1 sec
Reduced shell lists constructed in    0.1 sec

Total number of grid points                  ...    17875
Total number of batches                      ...      280
Average number of points per batch           ...       63
Average number of grid points per atom       ...     8938
Average number of shells per batch           ...     2.92 ( 9.43%)
Average number of basis functions per batch  ...     7.08 ( 7.15%)
Average number of large shells per batch     ...     1.31 (44.74%)
Average number of large basis fcns per batch ...     3.46 (48.91%)
Maximum spatial batch extension              ...  37.74, 41.49, 24.29 au
Average spatial batch extension              ...   1.13,  1.18,  0.84 au

Time for grid setup =    0.166 sec

--------------
SCF ITERATIONS
--------------
ITER       Energy         Delta-E        Max-DP      RMS-DP      [F,P]     Damp
               ***  Starting incremental Fock matrix formation  ***
  0   -235.5638233126   0.000000000000 0.00004742  0.00000127  0.0009641 0.7000
  1   -235.5638233314  -0.000000018795 0.00006837  0.00000141  0.0006761 0.7000
                               ***Turning on DIIS***
  2   -235.5638233444  -0.000000012956 0.00044157  0.00000777  0.0004737 0.0000
  3   -235.5638233702  -0.000000025839 0.00037433  0.00000689  0.0000608 0.0000
  4   -235.5638233206   0.000000049558 0.00025152  0.00000443  0.0002186 0.0000
  5   -235.5638233753  -0.000000054624 0.00004096  0.00000083  0.0000217 0.0000
  6   -235.5638233768  -0.000000001500 0.00001113  0.00000031  0.0000107 0.0000
                 **** Energy Check signals convergence ****

               *****************************************************
               *                     SUCCESS                       *
               *           SCF CONVERGED AFTER   7 CYCLES          *
               *****************************************************

Total Energy       :         -235.56382338 Eh           -6410.01751 eV
  Last Energy change         ...    2.7777e-10  Tolerance :   1.0000e-08
  Last MAX-Density change    ...    1.4691e-06  Tolerance :   1.0000e-07
             **** THE GBW FILE WAS UPDATED (Au01N0_F.gbw) ****
             **** DENSITY FILE WAS UPDATED (Au01N0_F.scfp) ****
             **** ENERGY FILE WAS UPDATED (Au01N0_F.en.tmp) ****
             **** THE GBW FILE WAS UPDATED (Au01N0_F.gbw) ****
             **** DENSITY FILE WAS UPDATED (Au01N0_F.scfp) ****
Total SCF time: 0 days 0 hours 0 min 1 sec 


-------------------------------------------------------------------------------
                          DFT DISPERSION CORRECTION                            
                                                                               
                              DFTD3 V3.1  Rev 1                                
                          USING Becke-Johnson damping                          
-------------------------------------------------------------------------------
-------------------------   ----------------
Dispersion correction           -0.000654689
-------------------------   ----------------


-------------------------   --------------------
FINAL SINGLE POINT ENERGY      -235.564478065450
-------------------------   --------------------



           ************************************************************
           *        Program running with 24 parallel MPI-processes    *
           *              working on a common directory               *
           ************************************************************
------------------------------------------------------------------------------
                         ORCA SCF GRADIENT CALCULATION
------------------------------------------------------------------------------

Gradient of the Kohn-Sham DFT energy:
Kohn-Sham wavefunction type      ... RKS
Hartree-Fock exchange scaling    ...    0.000
Number of operators              ...    1
Number of atoms                  ...    2
Basis set dimensions             ...   99
Integral neglect threshold       ... 2.5e-11
Integral primitive cutoff        ... 2.5e-12

Nuclear repulsion gradient       ... done
One Electron Gradient            
  ECP gradient                   ... done
Pre-screening matrix             ... done
RI-J gradient                    ... done
Exchange-correlation gradient    ... done
Dispersion correction            ... done

------------------
CARTESIAN GRADIENT
------------------

   1   Au  :   -0.000000001    0.000000003   -0.000721293
   2   F   :   -0.000000003   -0.000000005   -0.000706011

Difference to translation invariance:
           :   -0.0000000038   -0.0000000014   -0.0014273049

Norm of the cartesian gradient     ...    0.0010093148
RMS gradient                       ...    0.0004120511
MAX gradient                       ...    0.0007212935

-------
TIMINGS
-------

Total SCF gradient time            ...        0.430 sec

One electron gradient       ....       0.163 sec  ( 38.0%)
Prescreening matrices       ....       0.004 sec  (  0.9%)
RI-J Coulomb gradient       ....       0.070 sec  ( 16.3%)
XC gradient                 ....       0.013 sec  (  2.9%)
------------------------------------------------------------------------------
                         ORCA GEOMETRY RELAXATION STEP
------------------------------------------------------------------------------

Reading the OPT-File                    .... done
Getting information on internals        .... done
Copying old internal coords+grads       .... done
Making the new internal coordinates     .... (new redundants).... done
Validating the new internal coordinates .... (new redundants).... done
Calculating the B-matrix                .... done
Calculating the G,G- and P matrices     .... done
Transforming gradient to internals      .... done
Projecting the internal gradient        .... done
Number of atoms                         ....   2
Number of internal coordinates          ....   1
Current Energy                          ....  -235.564478065 Eh
Current gradient norm                   ....     0.001009315 Eh/bohr
Maximum allowed component of the step   ....  0.300
Current trust radius                    ....  0.300
Updating the Hessian (BFGS)             .... done
Forming the augmented Hessian           .... done
Diagonalizing the augmented Hessian     .... done
Last element of RFO vector              ....  0.999999999
Lowest eigenvalues of augmented Hessian:
 -0.000000000
Length of the computed step             ....  0.000040393
The final length of the internal step   ....  0.000040393
Converting the step to cartesian space:
 Initial RMS(Int)=    0.0000403933
Transforming coordinates:
 Iter   0:  RMS(Cart)=    0.0000116605 RMS(Int)=    0.0000403933
 Iter   1:  RMS(Cart)=    0.0000000000 RMS(Int)=    0.0000000000
done
Storing new coordinates                 .... done

                                .--------------------.
          ----------------------|Geometry convergence|-------------------------
          Item                value                   Tolerance       Converged
          ---------------------------------------------------------------------
          Energy change      -0.0000001227            0.0000050000      YES
          RMS gradient        0.0000076410            0.0001000000      YES
          MAX gradient        0.0000076410            0.0003000000      YES
          RMS step            0.0000403933            0.0020000000      YES
          MAX step            0.0000403933            0.0040000000      YES
          ........................................................
          Max(Bonds)      0.0000      Max(Angles)    0.00
          Max(Dihed)        0.00      Max(Improp)    0.00
          ---------------------------------------------------------------------

                    ***********************HURRAY********************
                    ***        THE OPTIMIZATION HAS CONVERGED     ***
                    *************************************************


    ---------------------------------------------------------------------------
                         Redundant Internal Coordinates

                          --- Optimized Parameters ---  
                            (Angstroem and degrees)

        Definition                    OldVal   dE/dq     Step     FinalVal
    ----------------------------------------------------------------------------
     1. B(F   1,Au  0)                1.9391 -0.000008  0.0000    1.9392   
    ----------------------------------------------------------------------------
                 *******************************************************
                 *** FINAL ENERGY EVALUATION AT THE STATIONARY POINT ***
                 ***               (AFTER    4 CYCLES)               ***
                 *******************************************************
---------------------------------
CARTESIAN COORDINATES (ANGSTROEM)
---------------------------------
  Au     0.000000    0.000000    0.204042
  F      0.000000    0.000000   -1.735120

----------------------------
CARTESIAN COORDINATES (A.U.)
----------------------------
  NO LB      ZA    FRAG     MASS         X           Y           Z
   0 Au   19.0000*   0   196.966    0.000000    0.000000    0.385584
   1 F     9.0000    0    18.998    0.000000    0.000000   -3.278902
* core charge reduced due to ECP

--------------------------------
INTERNAL COORDINATES (ANGSTROEM)
--------------------------------
 Au     0   0   0     0.000000000000     0.00000000     0.00000000
 F      1   0   0     1.939162418176     0.00000000     0.00000000

---------------------------
INTERNAL COORDINATES (A.U.)
---------------------------
 Au     0   0   0     0.000000000000     0.00000000     0.00000000
 F      1   0   0     3.664485899545     0.00000000     0.00000000

---------------------
BASIS SET INFORMATION
---------------------
There are 2 groups of distinct atoms

 Group   1 Type Au  : 8s8p6d2f1g contracted to 6s5p3d2f1g pattern {311111/41111/411/11/1}
 Group   2 Type F   : 12s7p3d1f contracted to 6s4p3d1f pattern {621111/4111/111/1}

Atom   0Au   basis set group =>   1
Atom   1F    basis set group =>   2
---------------------------------
AUXILIARY/J BASIS SET INFORMATION
---------------------------------
There are 2 groups of distinct atoms

 Group   1 Type Au  : 11s5p5d3f3g contracted to 8s5p5d2f3g pattern {41111111/11111/11111/21/111}
 Group   2 Type F   : 12s5p4d2f1g contracted to 6s4p3d1f1g pattern {711111/2111/211/2/1}

Atom   0Au   basis set group =>   1
Atom   1F    basis set group =>   2
-------------------------
ECP PARAMETER INFORMATION
-------------------------

 Group 1, Type Au ECP Def2-ECP (replacing 60 core electrons, lmax=3)

Atom   0Au   ECP group =>   1



           ************************************************************
           *        Program running with 24 parallel MPI-processes    *
           *              working on a common directory               *
           ************************************************************
------------------------------------------------------------------------------
                           ORCA GTO INTEGRAL CALCULATION
                           -- RI-GTO INTEGRALS CHOSEN --
------------------------------------------------------------------------------

                         BASIS SET STATISTICS AND STARTUP INFO

Gaussian basis set:
 # of primitive gaussian shells          ...   48
 # of primitive gaussian functions       ...  140
 # of contracted shells                  ...   31
 # of contracted basis functions         ...   99
 Highest angular momentum                ...    4
 Maximum contraction depth               ...    6
Auxiliary gaussian basis set:
 # of primitive gaussian shells          ...   51
 # of primitive gaussian functions       ...  169
 # of contracted shells                  ...   38
 # of contracted aux-basis functions     ...  138
 Highest angular momentum                ...    4
 Maximum contraction depth               ...    7
Ratio of auxiliary to basis functions    ...  1.39
Integral package used                  ... LIBINT
 One Electron integrals                  
   ECP integrals                         ... done
 Ordering auxiliary basis shells         ... done
 Integral threshhold             Thresh  ...  2.500e-11
 Primitive cut-off               TCut    ...  2.500e-12
 Pre-screening matrix                    ... done
[...]
  44   0.0000       1.094098        29.7719 
  45   0.0000       1.094098        29.7719 
  46   0.0000       1.211120        32.9562 
  47   0.0000       1.253512        34.1098 
  48   0.0000       1.253512        34.1098 
  49   0.0000       1.306602        35.5545 
  50   0.0000       1.411985        38.4221 
  51   0.0000       1.411987        38.4221 
  52   0.0000       1.464734        39.8574 
  53   0.0000       1.464734        39.8574 
  54   0.0000       1.621936        44.1351 
  55   0.0000       2.146131        58.3992 
  56   0.0000       2.234338        60.7994 
  57   0.0000       2.234362        60.8001 
  58   0.0000       2.298651        62.5495 
  59   0.0000       2.298651        62.5495 
  60   0.0000       2.720529        74.0293 
  61   0.0000       3.287577        89.4595 
  62   0.0000       3.287577        89.4595 
  63   0.0000       3.422233        93.1237 
  64   0.0000       3.478943        94.6668 
  65   0.0000       3.478943        94.6668 
  66   0.0000       3.492755        95.0427 
  67   0.0000       3.492776        95.0433 
  68   0.0000       3.621236        98.5388 
  69   0.0000       3.621236        98.5388 
  70   0.0000       3.749566       102.0309 
  71   0.0000       3.950050       107.4863 
  72   0.0000       4.025367       109.5358 
  73   0.0000       4.025371       109.5359 
  74   0.0000       4.032831       109.7389 
  75   0.0000       4.032831       109.7389 
  76   0.0000       4.044822       110.0652 
  77   0.0000       4.044860       110.0662 
  78   0.0000       4.060882       110.5022 
  79   0.0000       4.060882       110.5022 
  80   0.0000       4.614680       125.5718 
  81   0.0000       6.901461       187.7983 
  82   0.0000       6.902223       187.8190 
  83   0.0000       6.920007       188.3030 
  84   0.0000       6.920007       188.3030 
  85   0.0000       6.977509       189.8677 
  86   0.0000       6.977509       189.8677 
  87   0.0000       7.105026       193.3376 
  88   0.0000       8.420413       229.1311 
  89   0.0000       8.420431       229.1316 
  90   0.0000       8.484476       230.8743 
  91   0.0000       8.484476       230.8743 
  92   0.0000       8.816904       239.9202 
  93   0.0000      27.241821       741.2876 
  94   0.0000      27.241821       741.2876 
  95   0.0000      30.146904       820.3390 
  96   0.0000      43.987946      1196.9729 
  97   0.0000      56.867734      1547.4497 
  98   0.0000     205.083942      5580.6178 

                    ********************************
                    * MULLIKEN POPULATION ANALYSIS *
                    ********************************

-----------------------
MULLIKEN ATOMIC CHARGES
-----------------------
   0 Au:    0.409581
   1 F :   -0.409581
Sum of atomic charges:   -0.0000000

--------------------------------
MULLIKEN REDUCED ORBITAL CHARGES
--------------------------------
  0 Aus       :     2.780713  s :     2.780713
      pz      :     2.039432  p :     6.090511
      px      :     2.025539
      py      :     2.025539
      dz2     :     1.715596  d :     9.697771
      dxz     :     1.991236
      dyz     :     1.991236
      dx2y2   :     1.999851
      dxy     :     1.999851
      f0      :     0.009044  f :     0.020864
      f+1     :     0.005816
      f-1     :     0.005816
      f+2     :     0.000094
      f-2     :     0.000094
      f+3     :     0.000000
      f-3     :     0.000000
      g0      :     0.000276  g :     0.000560
      g+1     :     0.000132
      g-1     :     0.000132
      g+2     :     0.000010
      g-2     :     0.000010
      g+3     :     0.000000
      g-3     :     0.000000
      g+4     :     0.000000
      g-4     :     0.000000
  1 F s       :     3.952644  s :     3.952644
      pz      :     1.499565  p :     5.448629
      px      :     1.974532
      py      :     1.974532
      dz2     :     0.002598  d :     0.008038
      dxz     :     0.002681
      dyz     :     0.002681
      dx2y2   :     0.000039
      dxy     :     0.000039
      f0      :     0.000132  f :     0.000270
      f+1     :     0.000064
      f-1     :     0.000064
      f+2     :     0.000005
      f-2     :     0.000005
      f+3     :     0.000000
      f-3     :     0.000000


                     *******************************
                     * LOEWDIN POPULATION ANALYSIS *
                     *******************************

----------------------
LOEWDIN ATOMIC CHARGES
----------------------
   0 Au:    0.579817
   1 F :   -0.579817

-------------------------------
LOEWDIN REDUCED ORBITAL CHARGES
-------------------------------
  0 Aus       :     2.516023  s :     2.516023
      pz      :     2.053642  p :     6.131444
      px      :     2.038901
      py      :     2.038901
      dz2     :     1.774318  d :     9.727053
      dxz     :     1.981426
      dyz     :     1.981426
      dx2y2   :     1.994942
      dxy     :     1.994942
      f0      :     0.021068  f :     0.044670
      f+1     :     0.011667
      f-1     :     0.011667
      f+2     :     0.000134
      f-2     :     0.000134
      f+3     :     0.000000
      f-3     :     0.000000
      g0      :     0.000538  g :     0.000994
      g+1     :     0.000220
      g-1     :     0.000220
      g+2     :     0.000008
      g-2     :     0.000008
      g+3     :     0.000000
      g-3     :     0.000000
      g+4     :     0.000000
      g-4     :     0.000000
  1 F s       :     3.879236  s :     3.879236
      pz      :     1.694870  p :     5.567383
      px      :     1.936257
      py      :     1.936257
      dz2     :     0.060056  d :     0.132651
      dxz     :     0.031392
      dyz     :     0.031392
      dx2y2   :     0.004905
      dxy     :     0.004906
      f0      :     0.000250  f :     0.000547
      f+1     :     0.000139
      f-1     :     0.000139
      f+2     :     0.000010
      f-2     :     0.000010
      f+3     :     0.000000
      f-3     :     0.000000


                      *****************************
                      * MAYER POPULATION ANALYSIS *
                      *****************************

  NA   - Mulliken gross atomic population
  ZA   - Total nuclear charge
  QA   - Mulliken gross atomic charge
  VA   - Mayer's total valence
  BVA  - Mayer's bonded valence
  FA   - Mayer's free valence

  ATOM       NA         ZA         QA         VA         BVA        FA
  0 Au    18.5904    19.0000     0.4096     0.8851     0.8851     0.0000
  1 F      9.4096     9.0000    -0.4096     0.8851     0.8851     0.0000

  Mayer bond orders larger than 0.100000
B(  0-Au,  1-F ) :   0.8851 

-------
TIMINGS
-------

Total SCF time: 0 days 0 hours 0 min 0 sec 

Total time                  ....       0.497 sec
Sum of individual times     ....       0.397 sec  ( 79.7%)

Fock matrix formation       ....       0.216 sec  ( 43.3%)
  Split-RI-J                ....       0.162 sec  ( 75.2% of F)
  XC integration            ....       0.028 sec  ( 12.9% of F)
    Basis function eval.    ....       0.003 sec  ( 10.7% of XC)
    Density eval.           ....       0.004 sec  ( 15.6% of XC)
    XC-Functional eval.     ....       0.003 sec  (  9.5% of XC)
    XC-Potential eval.      ....       0.006 sec  ( 21.3% of XC)
Diagonalization             ....       0.003 sec  (  0.6%)
Density matrix formation    ....       0.001 sec  (  0.2%)
Population analysis         ....       0.003 sec  (  0.6%)
Initial guess               ....       0.005 sec  (  1.1%)
Orbital Transformation      ....       0.000 sec  (  0.0%)
Orbital Orthonormalization  ....       0.002 sec  (  0.5%)
DIIS solution               ....       0.000 sec  (  0.1%)
Grid generation             ....       0.169 sec  ( 34.0%)


-------------------------------------------------------------------------------
                          DFT DISPERSION CORRECTION                            
                                                                               
                              DFTD3 V3.1  Rev 1                                
                          USING Becke-Johnson damping                          
-------------------------------------------------------------------------------
The TPSS functional is recognized
Active option DFTDOPT                   ...         4   

molecular C6(AA) [au] = 411.206700 


            DFT-D V3
 parameters
 s6 scaling factor         :     1.0000 
 a1 scaling factor         :     0.4535 
 s8 scaling factor         :     1.9435 
 a2 scaling factor         :     4.4752 
 ad hoc parameters k1-k3   :    16.0000     1.3333    -4.0000 

 Edisp/kcal,au: -0.410823431884  -0.000654688742 
 E6   /kcal   :  -0.165824034 
 E8   /kcal   :  -0.244999397 
 % E8         :  59.636179059 

-------------------------   ----------------
Dispersion correction           -0.000654689
-------------------------   ----------------


-------------------------   --------------------
FINAL SINGLE POINT ENERGY      -235.564478066911
-------------------------   --------------------

                                *** OPTIMIZATION RUN DONE ***

                            ***************************************
                            *     ORCA property calculations      *
                            ***************************************

                                    ---------------------
                                    Active property flags
                                    ---------------------
   (+) Dipole Moment


------------------------------------------------------------------------------
                       ORCA ELECTRIC PROPERTIES CALCULATION
------------------------------------------------------------------------------

Dipole Moment Calculation                       ... on
Quadrupole Moment Calculation                   ... off
Polarizability Calculation                      ... off
GBWName                                         ... Au01N0_F.gbw
Electron density file                           ... Au01N0_F.scfp
The origin for moment calculation is the CENTER OF MASS  = ( 0.000000,  0.000000  0.063226)

-------------
DIPOLE MOMENT
-------------
                                X             Y             Z
Electronic contribution:     -0.00000      -0.00000      25.45382
Nuclear contribution   :      0.00000       0.00000     -23.95435
                        -----------------------------------------
Total Dipole Moment    :     -0.00000      -0.00000       1.49947
                        -----------------------------------------
Magnitude (a.u.)       :      1.49947
Magnitude (Debye)      :      3.81136



--------------------
Rotational spectrum 
--------------------
 
Rotational constants in cm-1:     0.000000     0.258732     0.258732 
Rotational constants in MHz :     0.000000  7756.599172  7756.599172 

 Dipole components along the rotational axes: 
x,y,z [a.u.] :     1.499473    -0.000000    -0.000000 
x,y,z [Debye]:     3.811358    -0.000000    -0.000000 

 

----------------------------------------------------------------------------
                           ORCA NUMERICAL FREQUENCIES
                              (24-process run)
----------------------------------------------------------------------------

Number of atoms                ... 2
Central differences            ... used
Number of displacements        ... 12
Numerical increment            ... 5.000e-03 bohr
IR-spectrum generation         ... on
Raman-spectrum generation      ... off
Surface Crossing Hessian       ... off

 WARNING: There are more processes than displacements to do
  ====> : Reducing number of processes to   6

The output will be reduced. Please look at the following files:
SCF program output             ... >Au01N0_F.lastscf
Integral program output        ... >Au01N0_F.lastint
Gradient program output        ... >Au01N0_F.lastgrad
Dipole moment program output   ... >Au01N0_F.lastmom
AutoCI program output          ... >Au01N0_F.lastautoci


         <<< Energy and Gradient at the input geometry >>>

        <<< Energy and Gradient at displaced geometries >>>
             <<<Displacing   1/coordinate 2 (+)>>>
             <<<Displacing   2/coordinate 3 (+)>>>
             <<<Displacing   2/coordinate 2 (+)>>>
             <<<Displacing   1/coordinate 1 (+)>>>
             <<<Displacing   2/coordinate 1 (+)>>>
             <<<Displacing   1/coordinate 3 (+)>>>
             <<<Displacing   1/coordinate 2 (-)>>>
             <<<Displacing   2/coordinate 2 (-)>>>
             <<<Displacing   2/coordinate 1 (-)>>>
             <<<Displacing   1/coordinate 1 (-)>>>
             <<<Displacing   1/coordinate 3 (-)>>>
             <<<Displacing   2/coordinate 3 (-)>>>
Warning: T+R mode no 5 is zero 

-----------------------
VIBRATIONAL FREQUENCIES
-----------------------

Scaling factor for frequencies =  1.000000000 (already applied!)

   0:         0.00 cm**-1
   1:         0.00 cm**-1
   2:         0.00 cm**-1
   3:         0.00 cm**-1
   4:         0.00 cm**-1
   5:       536.81 cm**-1


------------
NORMAL MODES
------------

These modes are the cartesian displacements weighted by the diagonal matrix
M(i,i)=1/sqrt(m[i]) where m[i] is the mass of the displaced atom
Thus, these vectors are normalized but *not* orthogonal

                  0          1          2          3          4          5    
      0       0.000000   0.000000   0.000000   0.000000   0.000000   0.000000
      1       0.000000   0.000000   0.000000   0.000000   0.000000   0.000000
      2       0.000000   0.000000   0.000000   0.000000   0.000000   0.096007
      3       0.000000   0.000000   0.000000   0.000000   0.000000   0.000000
      4       0.000000   0.000000   0.000000   0.000000   0.000000   0.000000
      5       0.000000   0.000000   0.000000   0.000000   0.000000  -0.995381


-----------
IR SPECTRUM  
-----------

 Mode    freq (cm**-1)   T**2         TX         TY         TZ
-------------------------------------------------------------------
   5:       536.81   38.712125  ( -0.000001  -0.000000   6.221907)

The first frequency considered to be a vibration is 5
The total number of vibrations considered is 1


--------------------------
THERMOCHEMISTRY AT 298.15K
--------------------------

Temperature         ... 298.15 K
Pressure            ... 1.00 atm
Total Mass          ... 215.96 AMU
The molecule is recognized as being linear

Throughout the following assumptions are being made:
  (1) The electronic state is orbitally nondegenerate
  (2) There are no thermally accessible electronically excited states
  (3) Hindered rotations indicated by low frequency modes are not
      treated as such but are treated as vibrations and this may
      cause some error
  (4) All equations used are the standard statistical mechanics
      equations for an ideal gas
  (5) All vibrations are strictly harmonic

freq.     536.81  E(vib)   ...       0.12 

------------
INNER ENERGY
------------

The inner energy is: U= E(el) + E(ZPE) + E(vib) + E(rot) + E(trans)
    E(el)   - is the total energy from the electronic structure calculation
              = E(kin-el) + E(nuc-el) + E(el-el) + E(nuc-nuc)
    E(ZPE)  - the the zero temperature vibrational energy from the frequency calculation
    E(vib)  - the the finite temperature correction to E(ZPE) due to population
              of excited vibrational states
    E(rot)  - is the rotational thermal energy
    E(trans)- is the translational thermal energy

Summary of contributions to the inner energy U:
Electronic energy                ...   -235.56447807 Eh
Zero point energy                ...      0.00122295 Eh       0.77 kcal/mol
Thermal vibrational correction   ...      0.00019828 Eh       0.12 kcal/mol
Thermal rotational correction    ...      0.00094418 Eh       0.59 kcal/mol
Thermal translational correction ...      0.00141627 Eh       0.89 kcal/mol
-----------------------------------------------------------------------
Total thermal energy                   -235.56069638 Eh


Summary of corrections to the electronic energy:
(perhaps to be used in another calculation)
Total thermal correction                  0.00255873 Eh       1.61 kcal/mol
Non-thermal (ZPE) correction              0.00122295 Eh       0.77 kcal/mol
-----------------------------------------------------------------------
Total correction                          0.00378169 Eh       2.37 kcal/mol


--------
ENTHALPY
--------

The enthalpy is H = U + kB*T
                kB is Boltzmann's constant
Total free energy                 ...   -235.56069638 Eh 
Thermal Enthalpy correction       ...      0.00094421 Eh       0.59 kcal/mol
-----------------------------------------------------------------------
Total Enthalpy                    ...   -235.55975217 Eh


Note: Rotational entropy computed according to Herzberg 
Infrared and Raman Spectra, Chapter V,1, Van Nostrand Reinhold, 1945 
Point Group:  Cinfv, Symmetry Number:   1  
Rotational constants in cm-1:     0.000000     0.258732     0.258732 

Vibrational entropy computed according to the QRRHO of S. Grimme
Chem.Eur.J. 2012 18 9955


-------
ENTROPY
-------

The entropy contributions are T*S = T*(S(el)+S(vib)+S(rot)+S(trans))
     S(el)   - electronic entropy
     S(vib)  - vibrational entropy
     S(rot)  - rotational entropy
     S(trans)- translational entropy
The entropies will be listed as mutliplied by the temperature to get
units of energy

Electronic entropy                ...      0.00000000 Eh      0.00 kcal/mol
Vibrational entropy               ...      0.00027222 Eh      0.17 kcal/mol
Rotational entropy                ...      0.00725676 Eh      4.55 kcal/mol
Translational entropy             ...      0.01996169 Eh     12.53 kcal/mol
-----------------------------------------------------------------------
Final entropy term                ...      0.02749068 Eh     17.25 kcal/mol

In case the symmetry of your molecule has not been determined correctly
or in case you have a reason to use a different symmetry number we print 
out the resulting rotational entropy values for sn=1,12 :
 --------------------------------------------------------
|  sn= 1 | S(rot)=             -inf Eh      -inf kcal/mol|
|  sn= 2 | S(rot)=             -inf Eh      -inf kcal/mol|
|  sn= 3 | S(rot)=             -inf Eh      -inf kcal/mol|
|  sn= 4 | S(rot)=             -inf Eh      -inf kcal/mol|
|  sn= 5 | S(rot)=             -inf Eh      -inf kcal/mol|
|  sn= 6 | S(rot)=             -inf Eh      -inf kcal/mol|
|  sn= 7 | S(rot)=             -inf Eh      -inf kcal/mol|
|  sn= 8 | S(rot)=             -inf Eh      -inf kcal/mol|
|  sn= 9 | S(rot)=             -inf Eh      -inf kcal/mol|
|  sn=10 | S(rot)=             -inf Eh      -inf kcal/mol|
|  sn=11 | S(rot)=             -inf Eh      -inf kcal/mol|
|  sn=12 | S(rot)=             -inf Eh      -inf kcal/mol|
 --------------------------------------------------------


-------------------
GIBBS FREE ENERGY
-------------------

The Gibbs free energy is G = H - T*S

Total enthalpy                    ...   -235.55975217 Eh 
Total entropy correction          ...     -0.02749068 Eh    -17.25 kcal/mol
-----------------------------------------------------------------------
Final Gibbs free energy         ...   -235.58724285 Eh

For completeness - the Gibbs free energy minus the electronic energy
G-E(el)                           ...     -0.02276478 Eh    -14.29 kcal/mol


Total Time for Numerical Frequencies  :        12.925 sec

Timings for individual modules:

Sum of individual times         ...       17.929 sec (=   0.299 min)
GTO integral calculation        ...        3.612 sec (=   0.060 min)  20.1 %
SCF iterations                  ...       10.177 sec (=   0.170 min)  56.8 %
SCF Gradient evaluation         ...        4.005 sec (=   0.067 min)  22.3 %
Geometry relaxation             ...        0.134 sec (=   0.002 min)   0.7 %
                             ****ORCA TERMINATED NORMALLY****
TOTAL RUN TIME: 0 days 0 hours 0 minutes 29 seconds 469 msec
