
                                 *****************
                                 * O   R   C   A *
                                 *****************

           --- An Ab Initio, DFT and Semiempirical electronic structure package ---

                  #######################################################
                  #                        -***-                        #
                  #          Department of theory and spectroscopy      #
                  #               Directorship: Frank Neese             #
                  #        Max Planck Institute fuer Kohlenforschung    #
                  #                Kaiser Wilhelm Platz 1               #
                  #                 D-45470 Muelheim/Ruhr               #
                  #                      Germany                        #
                  #                                                     #
                  #                  All rights reserved                #
                  #                        -***-                        #
                  #######################################################


                         Program Version 4.2.0 -  RELEASE  -


 With contributions from (in alphabetic order):
   Daniel Aravena         : Magnetic Suceptibility
   Michael Atanasov       : Ab Initio Ligand Field Theory (pilot matlab implementation)
   Alexander A. Auer      : GIAO ZORA, VPT2
   Ute Becker             : Parallelization
   Giovanni Bistoni       : ED, misc. LED, open-shell LED, HFLED
   Martin Brehm           : Molecular dynamics
   Dmytro Bykov           : SCF Hessian
   Vijay G. Chilkuri      : MRCI spin determinant printing, contributions to CSF-ICE
   Dipayan Datta          : RHF DLPNO-CCSD density
   Achintya Kumar Dutta   : EOM-CC, STEOM-CC
   Dmitry Ganyushin       : Spin-Orbit,Spin-Spin,Magnetic field MRCI
   Miquel Garcia          : C-PCM Hessian, Gaussian charge scheme
   Yang Guo               : DLPNO-NEVPT2, CIM, IAO-localization
   Andreas Hansen         : Spin unrestricted coupled pair/coupled cluster methods
   Benjamin Helmich-Paris : CASSCF linear response (MC-RPA)
   Lee Huntington         : MR-EOM, pCC
   Robert Izsak           : Overlap fitted RIJCOSX, COSX-SCS-MP3, EOM
   Christian Kollmar      : KDIIS, OOCD, Brueckner-CCSD(T), CCSD density
   Simone Kossmann        : Meta GGA functionals, TD-DFT gradient, OOMP2, MP2 Hessian
   Martin Krupicka        : AUTO-CI
   Lucas Lang             : DCDCAS
   Dagmar Lenk            : GEPOL surface, SMD
   Dimitrios Liakos       : Extrapolation schemes; Compound Job, initial MDCI parallelization
   Dimitrios Manganas     : Further ROCIS development; embedding schemes
   Dimitrios Pantazis     : SARC Basis sets
   Taras Petrenko         : DFT Hessian,TD-DFT gradient, ASA, ECA, R-Raman, ABS, FL, XAS/XES, NRVS
   Peter Pinski           : DLPNO-MP2, DLPNO-MP2 Gradient
   Christoph Reimann      : Effective Core Potentials
   Marius Retegan         : Local ZFS, SOC
   Christoph Riplinger    : Optimizer, TS searches, QM/MM, DLPNO-CCSD(T), (RO)-DLPNO pert. Triples
   Tobias Risthaus        : Range-separated hybrids, TD-DFT gradient, RPA, STAB
   Michael Roemelt        : Original ROCIS implementation
   Masaaki Saitow         : Open-shell DLPNO-CCSD energy and density
   Barbara Sandhoefer     : DKH picture change effects
   Avijit Sen             : IP-ROCIS
   Kantharuban Sivalingam : CASSCF convergence, NEVPT2, FIC-MRCI
   Bernardo de Souza      : ESD, SOC TD-DFT
   Georgi Stoychev        : AutoAux, RI-MP2 NMR
   Willem Van den Heuvel  : Paramagnetic NMR
   Boris Wezisla          : Elementary symmetry handling
   Frank Wennmohs         : Technical directorship


 We gratefully acknowledge several colleagues who have allowed us to
 interface, adapt or use parts of their codes:
   Stefan Grimme, W. Hujo, H. Kruse,             : VdW corrections, initial TS optimization,
                  C. Bannwarth                     DFT functionals, gCP, sTDA/sTD-DF
   Ed Valeev, F. Pavosevic, A. Kumar             : LibInt (2-el integral package), F12 methods
   Garnet Chan, S. Sharma, J. Yang, R. Olivares  : DMRG
   Ulf Ekstrom                                   : XCFun DFT Library
   Mihaly Kallay                                 : mrcc  (arbitrary order and MRCC methods)
   Andreas Klamt, Michael Diedenhofen            : otool_cosmo (COSMO solvation model)
   Jiri Pittner, Ondrej Demel                    : Mk-CCSD
   Frank Weinhold                                : gennbo (NPA and NBO analysis)
   Christopher J. Cramer and Donald G. Truhlar   : smd solvation model
   Lars Goerigk                                  : TD-DFT with DH, B97 family of functionals
   V. Asgeirsson, H. Jonsson                     : NEB implementation
   FAccTs GmbH                                   : IRC, NEB, NEB-TS, Multilevel, MM, QM/MM, CI optimization
   S Lehtola, MJT Oliveira, MAL Marques          : LibXC Library


 Your calculation uses the libint2 library for the computation of 2-el integrals
 For citations please refer to: http://libint.valeyev.net

 Your ORCA version has been built with support for libXC version: 4.2.3
 For citations please refer to: https://tddft.org/programs/libxc/

 This ORCA versions uses:
   CBLAS   interface :  Fast vector & matrix operations
   LAPACKE interface :  Fast linear algebra routines
   SCALAPACK package :  Parallel linear algebra routines


Your calculation utilizes the atom-pairwise dispersion correction
with the Becke-Johnson damping scheme (D3BJ)
Cite in your paper:
S.Grimme, S.Ehrlich, L.Goerigk, J Comput Chem, (2011), 32, 1456–1465 
S.Grimme, J.Antony, S.Ehrlich and H.Krieg, J.Chem.Phys., 132, (2010), 154104 
   

----- Orbital basis set information -----
Your calculation utilizes the basis: def2-TZVPPD
   F. Weigend and R. Ahlrichs, Phys. Chem. Chem. Phys. 7, 3297 (2005).
   D. Rappoport and F. Furche, J. Chem. Phys. 133 134105 (2010).

----- AuxJ basis set information -----
Your calculation utilizes the auxiliary basis: def2/J
   F. Weigend, Phys. Chem. Chem. Phys. 8, 1057 (2006).

cite the ECPs for Au [Def2-ECP] as follows:
Ce-Yb(ecp-28): M. Dolg, H. Stoll, H.Preuss, J. Chem. Phys., 1989, 90, 1730-1734.
Y-Cd(ecp-28), Hf-Hg(ecp-46): D. Andrae,U. Haeussermann, M. Dolg, H. Stoll, H. Preuss, Theor. Chim. Acta, 1990, 77, 123-141.
In-Sb(ecp-28), Tl-Bi(ecp-46): B. Metz, H. Stoll, M. Dolg, J. Chem. Phys., 2000, 113, 2563-2569.
Te-Xe(ecp-28), Po-Rn(ecp-46): K. A. Peterson, D. Figgen, E. Goll, H. Stoll, M. Dolg, J. Chem. Phys., 2003, 119, 11113-11123.
Rb(ecp-28), Cs(ecp-46): T. Leininger, A. Nicklass, W. Kuechle, H. Stoll, M. Dolg, A. Bergner, Chem. Phys. Lett., 1996, 255, 274-280.
Sr(ecp-28), Ba(ecp-46): M. Kaupp, P. V. Schleyer, H. Stoll and H. Preuss, J. Chem. Phys., 1991, 94, 1360-1366.
La(ecp-46): M. Dolg, H. Stoll, A. Savin, H. Preuss, Theor. Chim. Acta, 1989, 75, 173-194.
Lu(ecp-28): X. Cao, M. Dolg, J. Chem. Phys., 2001, 115, 7348-7355.

ECP parameters for Au [Def2-ECP] have been obtained from:
TURBOMOLE (7.0.2)

================================================================================
                                        WARNINGS
                       Please study these warnings very carefully!
================================================================================


WARNING: Geometry Optimization
  ===> : Switching off AutoStart
         For restart on a previous wavefunction, please use MOREAD

INFO   : the flag for use of LIBINT has been found!

================================================================================
                                       INPUT FILE
================================================================================
NAME = Au02N0.in
|  1> #
|  2> # Au02N0 TPSS-D3BJ/Def2-TZVPPD
|  3> #
|  4> ! tpss d3bj def2-tzvppd def2/j grid4 nofinalgrid opt xyzfile numfreq
|  5> 
|  6> *xyz 0 1
|  7> Au       0.000000    0.000000    1.239541 
|  8> Au       0.000000    0.000000   -1.239541 
|  9> *
| 10> 
| 11> %maxcore 5000
| 12> 
| 13> %pal
| 14> nprocs = 24
| 15> end
| 16> 
| 17> 
| 18>                          ****END OF INPUT****
================================================================================

                       *****************************
                       * Geometry Optimization Run *
                       *****************************

Geometry optimization settings:
Update method            Update   .... BFGS
Choice of coordinates    CoordSys .... Z-matrix Internals
Initial Hessian          InHess   .... Almoef's Model

Convergence Tolerances:
Energy Change            TolE     ....  5.0000e-06 Eh
Max. Gradient            TolMAXG  ....  3.0000e-04 Eh/bohr
RMS Gradient             TolRMSG  ....  1.0000e-04 Eh/bohr
Max. Displacement        TolMAXD  ....  4.0000e-03 bohr
RMS Displacement         TolRMSD  ....  2.0000e-03 bohr
Strict Convergence                ....  False
------------------------------------------------------------------------------
                        ORCA OPTIMIZATION COORDINATE SETUP
------------------------------------------------------------------------------

The optimization will be done in new redundant internal coordinates
Making redundant internal coordinates   ...  (new redundants) done
Evaluating the initial hessian          ...  (Almloef) done
Evaluating the coordinates              ...  done
Calculating the B-matrix                .... done
Calculating the G-matrix                .... done
Diagonalizing the G-matrix              .... done
The first mode is                       ....    0
The number of degrees of freedom        ....    1

    -----------------------------------------------------------------
                    Redundant Internal Coordinates


    -----------------------------------------------------------------
         Definition                    Initial Value    Approx d2E/dq
    -----------------------------------------------------------------
      1. B(Au  1,Au  0)                  2.4791         0.022149   
    -----------------------------------------------------------------

Number of atoms                         .... 2
Number of degrees of freedom            .... 1

         *************************************************************
         *                GEOMETRY OPTIMIZATION CYCLE   1            *
         *************************************************************
---------------------------------
CARTESIAN COORDINATES (ANGSTROEM)
---------------------------------
  Au     0.000000    0.000000    1.239541
  Au     0.000000    0.000000   -1.239541

----------------------------
CARTESIAN COORDINATES (A.U.)
----------------------------
  NO LB      ZA    FRAG     MASS         X           Y           Z
   0 Au   19.0000*   0   196.966    0.000000    0.000000    2.342393
   1 Au   19.0000*   0   196.966    0.000000    0.000000   -2.342393
* core charge reduced due to ECP

--------------------------------
INTERNAL COORDINATES (ANGSTROEM)
--------------------------------
 Au     0   0   0     0.000000000000     0.00000000     0.00000000
 Au     1   0   0     2.479082000000     0.00000000     0.00000000

---------------------------
INTERNAL COORDINATES (A.U.)
---------------------------
 Au     0   0   0     0.000000000000     0.00000000     0.00000000
 Au     1   0   0     4.684786043534     0.00000000     0.00000000

---------------------
BASIS SET INFORMATION
---------------------
There are 1 groups of distinct atoms

 Group   1 Type Au  : 8s8p6d2f1g contracted to 6s5p3d2f1g pattern {311111/41111/411/11/1}

Atom   0Au   basis set group =>   1
Atom   1Au   basis set group =>   1
---------------------------------
AUXILIARY/J BASIS SET INFORMATION
---------------------------------
There are 1 groups of distinct atoms

 Group   1 Type Au  : 11s5p5d3f3g contracted to 8s5p5d2f3g pattern {41111111/11111/11111/21/111}

Atom   0Au   basis set group =>   1
Atom   1Au   basis set group =>   1
-------------------------
ECP PARAMETER INFORMATION
-------------------------

 Group 1, Type Au ECP Def2-ECP (replacing 60 core electrons, lmax=3)

Atom   0Au   ECP group =>   1
Atom   1Au   ECP group =>   1



           ************************************************************
           *        Program running with 24 parallel MPI-processes    *
           *              working on a common directory               *
           ************************************************************
------------------------------------------------------------------------------
                           ORCA GTO INTEGRAL CALCULATION
                           -- RI-GTO INTEGRALS CHOSEN --
------------------------------------------------------------------------------

                         BASIS SET STATISTICS AND STARTUP INFO

Gaussian basis set:
 # of primitive gaussian shells          ...   50
 # of primitive gaussian functions       ...  170
 # of contracted shells                  ...   34
 # of contracted basis functions         ...  118
 Highest angular momentum                ...    4
 Maximum contraction depth               ...    4
Auxiliary gaussian basis set:
 # of primitive gaussian shells          ...   54
 # of primitive gaussian functions       ...  198
 # of contracted shells                  ...   46
 # of contracted aux-basis functions     ...  178
 Highest angular momentum                ...    4
 Maximum contraction depth               ...    4
Ratio of auxiliary to basis functions    ...  1.51
Integral package used                  ... LIBINT
 One Electron integrals                  
   ECP integrals                         ... done
 Ordering auxiliary basis shells         ... done
 Integral threshhold             Thresh  ...  2.500e-11
 Primitive cut-off               TCut    ...  2.500e-12
 Pre-screening matrix                    ... done
 Shell pair data                         ... 
 Ordering of the shell pairs             ... done (   0.000 sec) 587 of 595 pairs
 Determination of significant pairs      ... done (   0.000 sec)
 Creation of shell pair data             ... done (   0.000 sec)
 Storage of shell pair data              ... done (   0.045 sec)
 Shell pair data done in (   0.045 sec)
 Computing two index integrals           ... done
 Cholesky decomposition of the V-matrix  ... done


Timings:
 Total evaluation time                   ...   0.401 sec (  0.007 min)
 One electron matrix time                ...   0.146 sec (  0.002 min) = 36.5%
 Schwartz matrix evaluation time         ...   0.107 sec (  0.002 min) = 26.6%
 Two index repulsion integral time       ...   0.001 sec (  0.000 min) =  0.2%
 Cholesky decomposition of V             ...   0.070 sec (  0.001 min) = 17.3%
 Three index repulsion integral time     ...   0.000 sec (  0.000 min) =  0.0%



           ************************************************************
           *        Program running with 24 parallel MPI-processes    *
           *              working on a common directory               *
           ************************************************************
-------------------------------------------------------------------------------
                                 ORCA SCF
-------------------------------------------------------------------------------

------------
SCF SETTINGS
------------
Hamiltonian:
 Density Functional     Method          .... DFT(GTOs)
 Exchange Functional    Exchange        .... TPSS
 Correlation Functional Correlation     .... TPSS
 LDA part of GGA corr.  LDAOpt          .... PW91-LDA
 Gradients option       PostSCFGGA      .... off
   Density functional embedding theory  .... OFF
   NL short-range parameter             ....  5.000000
 RI-approximation to the Coulomb term is turned on
   Number of auxiliary basis functions  .... 178


General Settings:
 Integral files         IntName         .... Au02N0
 Hartree-Fock type      HFTyp           .... RHF
 Total Charge           Charge          ....    0
 Multiplicity           Mult            ....    1
 Number of Electrons    NEL             ....   38
 Basis Dimension        Dim             ....  118
 Nuclear Repulsion      ENuc            ....     77.0579481422 Eh

Convergence Acceleration:
 DIIS                   CNVDIIS         .... on
   Start iteration      DIISMaxIt       ....    12
   Startup error        DIISStart       ....  0.200000
   # of expansion vecs  DIISMaxEq       ....     5
   Bias factor          DIISBfac        ....   1.050
   Max. coefficient     DIISMaxC        ....  10.000
 Newton-Raphson         CNVNR           .... off
 SOSCF                  CNVSOSCF        .... off
 Level Shifting         CNVShift        .... on
   Level shift para.    LevelShift      ....    0.2500
   Turn off err/grad.   ShiftErr        ....    0.0010
 Zerner damping         CNVZerner       .... off
 Static damping         CNVDamp         .... on
   Fraction old density DampFac         ....    0.7000
   Max. Damping (<1)    DampMax         ....    0.9800
   Min. Damping (>=0)   DampMin         ....    0.0000
   Turn off err/grad.   DampErr         ....    0.1000
 Fernandez-Rico         CNVRico         .... off

SCF Procedure:
 Maximum # iterations   MaxIter         ....   125
 SCF integral mode      SCFMode         .... Direct
   Integral package                     .... LIBINT
 Reset frequency        DirectResetFreq ....    20
 Integral Threshold     Thresh          ....  2.500e-11 Eh
 Primitive CutOff       TCut            ....  2.500e-12 Eh

Convergence Tolerance:
 Convergence Check Mode ConvCheckMode   .... Total+1el-Energy
 Convergence forced     ConvForced      .... 0
 Energy Change          TolE            ....  1.000e-08 Eh
 1-El. energy change                    ....  1.000e-05 Eh
 DIIS Error             TolErr          ....  5.000e-07


Diagonalization of the overlap matrix:
Smallest eigenvalue                        ... 1.998e-03
Time for diagonalization                   ...    0.003 sec
Threshold for overlap eigenvalues          ... 1.000e-08
Number of eigenvalues below threshold      ... 0
Time for construction of square roots      ...    0.002 sec
Total time needed                          ...    0.005 sec

-------------------
DFT GRID GENERATION
-------------------

General Integration Accuracy     IntAcc      ...  4.670
Radial Grid Type                 RadialGrid  ... Gauss-Chebyshev
Angular Grid (max. acc.)         AngularGrid ... Lebedev-302
Angular grid pruning method      GridPruning ... 3 (G Style)
Weight generation scheme         WeightScheme... Becke
Basis function cutoff            BFCut       ...    1.0000e-11
Integration weight cutoff        WCut        ...    1.0000e-14
Grids for H and He will be reduced by one unit

# of grid points (after initial pruning)     ...  23304 (   0.0 sec)
# of grid points (after weights+screening)   ...  23266 (   0.0 sec)
nearest neighbour list constructed           ...    0.0 sec
Grid point re-assignment to atoms done       ...    0.0 sec
Grid point division into batches done        ...    0.2 sec
Reduced shell lists constructed in    0.2 sec

Total number of grid points                  ...    23266
Total number of batches                      ...      364
Average number of points per batch           ...       63
Average number of grid points per atom       ...    11633
Average number of shells per batch           ...     1.53 ( 4.50%)
Average number of basis functions per batch  ...     3.65 ( 3.09%)
Average number of large shells per batch     ...     1.00 (65.38%)
Average number of large basis fcns per batch ...     2.65 (72.58%)
Maximum spatial batch extension              ...  31.96, 31.96, 20.28 au
Average spatial batch extension              ...   1.02,  1.02,  0.79 au

Time for grid setup =    0.267 sec

------------------------------
INITIAL GUESS: MODEL POTENTIAL
------------------------------
Loading Hartree-Fock densities                     ... done
  calling /sw/apps/orca/orca_4_2_0_linux_x86-64_openmpi314/orca Au02N0_atom79.inp > Au02N0_atom79.out in order to generate an atomic fitting density for atom 0 (Au with ECP) on-the-fly... 
    atom 0 (Au), assumed electronic state with S=2: 1s2 2s2 2p6 3s2 3p6 4s2 3d10 4p6 5s2 4d10 5p6 6s1 4f14 5d10           ... done
Calculating cut-offs                               ... done
Setting up the integral package                    ... done
Initializing the effective Hamiltonian             ... done
Starting the Coulomb interaction                   ... done (   0.0 sec)
Reading the grid                                   ... done
Mapping shells                                     ... done
Starting the XC term evaluation                    ... done (   0.0 sec)
  promolecular density results
     # of electrons  =    158.005730899
     EX              =   -731.585693891
     EC              =     -9.642428685
     EX+EC           =   -741.228122576
Transforming the Hamiltonian                       ... done (   0.0 sec)
Diagonalizing the Hamiltonian                      ... done (   0.0 sec)
Back transforming the eigenvectors                 ... done (   0.0 sec)
Now organizing SCF variables                       ... done
                      ------------------
                      INITIAL GUESS DONE (   1.2 sec)
                      ------------------
--------------
SCF ITERATIONS
--------------
ITER       Energy         Delta-E        Max-DP      RMS-DP      [F,P]     Damp
               ***  Starting incremental Fock matrix formation  ***
  0   -271.1965611341   0.000000000000 0.24203598  0.00471520  0.5826895 0.7000
  1   -271.3023635867  -0.105802452589 0.15336634  0.00300616  0.3963570 0.7000
  2   -271.3402410042  -0.037877417523 0.09045976  0.00162969  0.2701662 0.7000
                               ***Turning on DIIS***
  3   -271.3657826824  -0.025541678219 0.05861455  0.00099006  0.1869752 0.7000
  4   -271.3850056726  -0.019222990195 0.04190777  0.00069580  0.1306455 0.7000
  5   -271.3985314165  -0.013525743880 0.10177452  0.00168813  0.0914694 0.0000
  6   -271.4298922593  -0.031360842788 0.00374963  0.00010241  0.0012998 0.0000
  7   -271.4299215018  -0.000029242526 0.00682199  0.00023414  0.0008897 0.0000
  8   -271.4299452534  -0.000023751539 0.00164482  0.00004961  0.0009005 0.0000
  9   -271.4299489598  -0.000003706411 0.00043782  0.00001553  0.0002728 0.0000
 10   -271.4299491041  -0.000000144344 0.00020782  0.00000775  0.0002485 0.0000
 11   -271.4299493501  -0.000000245972 0.00001210  0.00000033  0.0000077 0.0000
 12   -271.4299493508  -0.000000000692 0.00000755  0.00000022  0.0000037 0.0000
                            ***DIIS convergence achieved***

               *****************************************************
               *                     SUCCESS                       *
               *           SCF CONVERGED AFTER  13 CYCLES          *
               *****************************************************


----------------
TOTAL SCF ENERGY
----------------

Total Energy       :         -271.42994935 Eh           -7385.98442 eV

Components:
Nuclear Repulsion  :           77.05794814 Eh            2096.85337 eV
Electronic Energy  :         -348.48789749 Eh           -9482.83779 eV
One Electron Energy:         -631.19481882 Eh          -17175.68422 eV
Two Electron Energy:          282.70692133 Eh            7692.84643 eV

Virial components:
Potential Energy   :         -363.14001231 Eh           -9881.54210 eV
Kinetic Energy     :           91.71006296 Eh            2495.55768 eV
Virial Ratio       :            3.95965285


DFT components:
N(Alpha)           :       19.000002160345 electrons
N(Beta)            :       19.000002160345 electrons
N(Total)           :       38.000004320690 electrons
E(X)               :      -23.973619190545 Eh       
E(C)               :       -1.616180259789 Eh       
E(XC)              :      -25.589799450333 Eh       
DFET-embed. en.    :        0.000000000000 Eh       

---------------
SCF CONVERGENCE
---------------

  Last Energy change         ...   -1.4893e-11  Tolerance :   1.0000e-08
  Last MAX-Density change    ...    1.8336e-06  Tolerance :   1.0000e-07
  Last RMS-Density change    ...    5.6949e-08  Tolerance :   5.0000e-09
  Last DIIS Error            ...    8.5193e-07  Tolerance :   5.0000e-07

             **** THE GBW FILE WAS UPDATED (Au02N0.gbw) ****
             **** DENSITY FILE WAS UPDATED (Au02N0.scfp) ****
             **** ENERGY FILE WAS UPDATED (Au02N0.en.tmp) ****
             **** THE GBW FILE WAS UPDATED (Au02N0.gbw) ****
             **** DENSITY FILE WAS UPDATED (Au02N0.scfp) ****
----------------
ORBITAL ENERGIES
----------------

  NO   OCC          E(Eh)            E(eV) 
   0   2.0000      -4.010414      -109.1289 
   1   2.0000      -4.009715      -109.1099 
   2   2.0000      -2.232886       -60.7599 
   3   2.0000      -2.221492       -60.4499 
   4   2.0000      -2.215043       -60.2744 
   5   2.0000      -2.215043       -60.2744 
   6   2.0000      -2.213915       -60.2437 
   7   2.0000      -2.213915       -60.2437 
   8   2.0000      -0.333948        -9.0872 
   9   2.0000      -0.293196        -7.9783 
  10   2.0000      -0.293196        -7.9783 
  11   2.0000      -0.255561        -6.9542 
  12   2.0000      -0.255550        -6.9539 
  13   2.0000      -0.242372        -6.5953 
  14   2.0000      -0.242359        -6.5949 
  15   2.0000      -0.234441        -6.3795 
  16   2.0000      -0.230834        -6.2813 
  17   2.0000      -0.230834        -6.2813 
  18   2.0000      -0.227588        -6.1930 
  19   0.0000      -0.147813        -4.0222 
  20   0.0000      -0.035419        -0.9638 
  21   0.0000      -0.035419        -0.9638 
  22   0.0000      -0.019533        -0.5315 
  23   0.0000       0.034081         0.9274 
  24   0.0000       0.034081         0.9274 
  25   0.0000       0.066625         1.8130 
  26   0.0000       0.135102         3.6763 
  27   0.0000       0.165464         4.5025 
  28   0.0000       0.165464         4.5025 
  29   0.0000       0.165776         4.5110 
  30   0.0000       0.207276         5.6403 
  31   0.0000       0.219911         5.9841 
  32   0.0000       0.219911         5.9841 
  33   0.0000       0.267551         7.2804 
  34   0.0000       0.267552         7.2805 
  35   0.0000       0.321530         8.7493 
  36   0.0000       0.322888         8.7862 
  37   0.0000       0.322888         8.7862 
  38   0.0000       0.346126         9.4186 
  39   0.0000       0.346129         9.4186 
  40   0.0000       0.436082        11.8664 
  41   0.0000       0.436082        11.8664 
  42   0.0000       0.439413        11.9570 
  43   0.0000       0.564774        15.3683 
  44   0.0000       0.821559        22.3557 
  45   0.0000       0.913885        24.8681 
  46   0.0000       0.913885        24.8681 
  47   0.0000       1.020344        27.7650 
  48   0.0000       1.020345        27.7650 
  49   0.0000       1.043324        28.3903 
  50   0.0000       1.043324        28.3903 
  51   0.0000       1.047946        28.5161 
  52   0.0000       1.051532        28.6136 
  53   0.0000       1.051532        28.6136 
  54   0.0000       1.087824        29.6012 
  55   0.0000       1.087824        29.6012 
  56   0.0000       1.107926        30.1482 
  57   0.0000       1.107926        30.1482 
  58   0.0000       1.173511        31.9329 
  59   0.0000       1.173513        31.9329 
  60   0.0000       1.289718        35.0950 
  61   0.0000       1.331365        36.2283 
  62   0.0000       1.336222        36.3604 
  63   0.0000       1.336222        36.3604 
  64   0.0000       1.409573        38.3564 
  65   0.0000       1.409573        38.3564 
  66   0.0000       1.422872        38.7183 
  67   0.0000       1.422893        38.7189 
  68   0.0000       1.475875        40.1606 
  69   0.0000       1.477696        40.2101 
  70   0.0000       1.477717        40.2107 
  71   0.0000       1.647146        44.8211 
  72   0.0000       1.647146        44.8211 
  73   0.0000       1.979922        53.8764 
  74   0.0000       2.027694        55.1764 
  75   0.0000       2.528452        68.8027 
  76   0.0000       3.442834        93.6843 
  77   0.0000       3.442834        93.6843 
  78   0.0000       3.449893        93.8764 
  79   0.0000       3.450073        93.8813 
  80   0.0000       3.507341        95.4396 
  81   0.0000       3.507341        95.4396 
  82   0.0000       3.526231        95.9536 
  83   0.0000       3.526231        95.9536 
  84   0.0000       3.588563        97.6498 
  85   0.0000       3.588792        97.6560 
  86   0.0000       3.667998        99.8113 
  87   0.0000       3.739627       101.7604 
  88   0.0000       3.739627       101.7604 
  89   0.0000       3.807785       103.6151 
  90   0.0000       4.034038       109.7718 
  91   0.0000       4.051670       110.2515 
  92   0.0000       4.051670       110.2515 
  93   0.0000       4.062794       110.5542 
  94   0.0000       4.062911       110.5574 
  95   0.0000       4.074063       110.8609 
  96   0.0000       4.074063       110.8609 
  97   0.0000       4.075975       110.9129 
  98   0.0000       4.075975       110.9129 
  99   0.0000       4.081084       111.0519 
 100   0.0000       4.081154       111.0538 
 101   0.0000       4.082461       111.0894 
 102   0.0000       4.082550       111.0918 
 103   0.0000       4.082997       111.1040 
 104   0.0000       4.083086       111.1064 
 105   0.0000       4.187231       113.9403 
 106   0.0000       4.187231       113.9403 
 107   0.0000       4.456816       121.2761 
 108   0.0000      27.138266       738.4698 
 109   0.0000      27.138266       738.4698 
 110   0.0000      27.320797       743.4367 
 111   0.0000      27.585594       750.6422 
 112   0.0000      27.585594       750.6422 
 113   0.0000      30.333326       825.4118 
 114   0.0000      43.848982      1193.1915 
 115   0.0000      44.310948      1205.7622 
 116   0.0000     205.049395      5579.6777 
 117   0.0000     205.249668      5585.1274 

                    ********************************
                    * MULLIKEN POPULATION ANALYSIS *
                    ********************************

-----------------------
MULLIKEN ATOMIC CHARGES
-----------------------
   0 Au:    0.000001
   1 Au:   -0.000001
Sum of atomic charges:   -0.0000000

--------------------------------
MULLIKEN REDUCED ORBITAL CHARGES
--------------------------------
  0 Aus       :     3.080985  s :     3.080985
      pz      :     2.018322  p :     6.048863
      px      :     2.015271
      py      :     2.015271
      dz2     :     1.897390  d :     9.860911
      dxz     :     1.982087
      dyz     :     1.982087
      dx2y2   :     1.999674
      dxy     :     1.999674
      f0      :     0.003229  f :     0.009052
      f+1     :     0.002594
      f-1     :     0.002594
      f+2     :     0.000317
      f-2     :     0.000317
      f+3     :     0.000000
      f-3     :     0.000000
      g0      :     0.000074  g :     0.000188
      g+1     :     0.000048
      g-1     :     0.000048
      g+2     :     0.000009
      g-2     :     0.000009
      g+3     :     0.000000
      g-3     :     0.000000
      g+4     :     0.000000
      g-4     :     0.000000
  1 Aus       :     3.080985  s :     3.080985
      pz      :     2.018322  p :     6.048863
      px      :     2.015271
      py      :     2.015271
      dz2     :     1.897390  d :     9.860911
      dxz     :     1.982087
      dyz     :     1.982087
      dx2y2   :     1.999674
      dxy     :     1.999674
      f0      :     0.003229  f :     0.009052
      f+1     :     0.002594
      f-1     :     0.002594
      f+2     :     0.000317
      f-2     :     0.000317
      f+3     :     0.000000
      f-3     :     0.000000
      g0      :     0.000074  g :     0.000188
      g+1     :     0.000048
      g-1     :     0.000048
      g+2     :     0.000009
      g-2     :     0.000009
      g+3     :     0.000000
      g-3     :     0.000000
      g+4     :     0.000000
      g-4     :     0.000000


                     *******************************
                     * LOEWDIN POPULATION ANALYSIS *
                     *******************************

----------------------
LOEWDIN ATOMIC CHARGES
----------------------
   0 Au:    0.000000
   1 Au:   -0.000000

-------------------------------
LOEWDIN REDUCED ORBITAL CHARGES
-------------------------------
  0 Aus       :     2.947616  s :     2.947616
      pz      :     2.090571  p :     6.129140
      px      :     2.019285
      py      :     2.019285
      dz2     :     1.955548  d :     9.907437
      dxz     :     1.976366
      dyz     :     1.976366
      dx2y2   :     1.999578
      dxy     :     1.999578
      f0      :     0.006154  f :     0.015540
      f+1     :     0.004281
      f-1     :     0.004281
      f+2     :     0.000412
      f-2     :     0.000412
      f+3     :     0.000000
      f-3     :     0.000000
      g0      :     0.000111  g :     0.000267
      g+1     :     0.000068
      g-1     :     0.000068
      g+2     :     0.000010
      g-2     :     0.000010
      g+3     :     0.000000
      g-3     :     0.000000
      g+4     :     0.000000
      g-4     :     0.000000
  1 Aus       :     2.947616  s :     2.947616
      pz      :     2.090571  p :     6.129140
      px      :     2.019285
      py      :     2.019285
      dz2     :     1.955548  d :     9.907437
      dxz     :     1.976366
      dyz     :     1.976366
      dx2y2   :     1.999578
      dxy     :     1.999578
      f0      :     0.006154  f :     0.015540
      f+1     :     0.004281
      f-1     :     0.004281
      f+2     :     0.000412
      f-2     :     0.000412
      f+3     :     0.000000
      f-3     :     0.000000
      g0      :     0.000111  g :     0.000267
      g+1     :     0.000068
      g-1     :     0.000068
      g+2     :     0.000010
      g-2     :     0.000010
      g+3     :     0.000000
      g-3     :     0.000000
      g+4     :     0.000000
      g-4     :     0.000000


                      *****************************
                      * MAYER POPULATION ANALYSIS *
                      *****************************

  NA   - Mulliken gross atomic population
  ZA   - Total nuclear charge
  QA   - Mulliken gross atomic charge
  VA   - Mayer's total valence
  BVA  - Mayer's bonded valence
  FA   - Mayer's free valence

  ATOM       NA         ZA         QA         VA         BVA        FA
  0 Au    19.0000    19.0000     0.0000     1.1544     1.1544    -0.0000
  1 Au    19.0000    19.0000    -0.0000     1.1544     1.1544     0.0000

  Mayer bond orders larger than 0.100000
B(  0-Au,  1-Au) :   1.1544 

-------
TIMINGS
-------

Total SCF time: 0 days 0 hours 0 min 2 sec 

Total time                  ....       2.868 sec
Sum of individual times     ....       2.747 sec  ( 95.8%)

Fock matrix formation       ....       1.457 sec  ( 50.8%)
  Split-RI-J                ....       1.023 sec  ( 70.2% of F)
  XC integration            ....       0.401 sec  ( 27.5% of F)
    Basis function eval.    ....       0.029 sec  (  7.3% of XC)
    Density eval.           ....       0.041 sec  ( 10.2% of XC)
    XC-Functional eval.     ....       0.024 sec  (  6.0% of XC)
    XC-Potential eval.      ....       0.080 sec  ( 20.1% of XC)
Diagonalization             ....       0.025 sec  (  0.9%)
Density matrix formation    ....       0.004 sec  (  0.1%)
Population analysis         ....       0.003 sec  (  0.1%)
Initial guess               ....       0.978 sec  ( 34.1%)
Orbital Transformation      ....       0.000 sec  (  0.0%)
Orbital Orthonormalization  ....       0.000 sec  (  0.0%)
DIIS solution               ....       0.012 sec  (  0.4%)
Grid generation             ....       0.267 sec  (  9.3%)


-------------------------------------------------------------------------------
                          DFT DISPERSION CORRECTION                            
                                                                               
                              DFTD3 V3.1  Rev 1                                
                          USING Becke-Johnson damping                          
-------------------------------------------------------------------------------
The TPSS functional is recognized
Active option DFTDOPT                   ...         4   

molecular C6(AA) [au] = 1270.811776 


            DFT-D V3
 parameters
 s6 scaling factor         :     1.0000 
 a1 scaling factor         :     0.4535 
 s8 scaling factor         :     1.9435 
 a2 scaling factor         :     4.4752 
 ad hoc parameters k1-k3   :    16.0000     1.3333    -4.0000 

 Edisp/kcal,au: -1.286239893207  -0.002049753524 
 E6   /kcal   :  -0.378160887 
 E8   /kcal   :  -0.908079006 
 % E8         :  70.599505629 

-------------------------   ----------------
Dispersion correction           -0.002049754
-------------------------   ----------------


-------------------------   --------------------
FINAL SINGLE POINT ENERGY      -271.431999104336
-------------------------   --------------------



           ************************************************************
           *        Program running with 24 parallel MPI-processes    *
           *              working on a common directory               *
           ************************************************************
------------------------------------------------------------------------------
                         ORCA SCF GRADIENT CALCULATION
------------------------------------------------------------------------------

Gradient of the Kohn-Sham DFT energy:
Kohn-Sham wavefunction type      ... RKS
Hartree-Fock exchange scaling    ...    0.000
Number of operators              ...    1
Number of atoms                  ...    2
Basis set dimensions             ...  118
Integral neglect threshold       ... 2.5e-11
Integral primitive cutoff        ... 2.5e-12

Nuclear repulsion gradient       ... done
One Electron Gradient            
  ECP gradient                   ... done
Pre-screening matrix             ... done
RI-J gradient                    ... done
Exchange-correlation gradient    ... done
Dispersion correction            ... done

------------------
CARTESIAN GRADIENT
------------------

   1   Au  :    0.000000001    0.000000001   -0.008353656
   2   Au  :    0.000000000   -0.000000002    0.008353653

Difference to translation invariance:
           :    0.0000000010   -0.0000000005   -0.0000000023

Norm of the cartesian gradient     ...    0.0118138516
RMS gradient                       ...    0.0048229847
MAX gradient                       ...    0.0083536557

-------
TIMINGS
-------

Total SCF gradient time            ...        0.714 sec

One electron gradient       ....       0.344 sec  ( 48.2%)
Prescreening matrices       ....       0.005 sec  (  0.6%)
RI-J Coulomb gradient       ....       0.133 sec  ( 18.6%)
XC gradient                 ....       0.021 sec  (  3.0%)
------------------------------------------------------------------------------
                         ORCA GEOMETRY RELAXATION STEP
------------------------------------------------------------------------------

Reading the OPT-File                    .... done
Getting information on internals        .... done
Copying old internal coords+grads       .... done
Making the new internal coordinates     .... (new redundants).... done
Validating the new internal coordinates .... (new redundants).... done
Calculating the B-matrix                .... done
Calculating the G,G- and P matrices     .... done
Transforming gradient to internals      .... done
Projecting the internal gradient        .... done
Number of atoms                         ....   2
Number of internal coordinates          ....   1
Current Energy                          ....  -271.431999104 Eh
Current gradient norm                   ....     0.011813852 Eh/bohr
Maximum allowed component of the step   ....  0.300
Current trust radius                    ....  0.300
Evaluating the initial hessian          ....  (Almloef) done
Projecting the Hessian                  .... done
Forming the augmented Hessian           .... done
Diagonalizing the augmented Hessian     .... done
Last element of RFO vector              ....  0.948247086
Lowest eigenvalues of augmented Hessian:
 -0.002797335
Length of the computed step             ....  0.334863572
Warning: the length of the step is outside the trust region - taking restricted step instead
The input lambda is                     ....    -0.002797
   iter:   1  x=   -0.005259  g=    8.989948 f(x)=     0.022134
   iter:   2  x=   -0.005686  g=    6.778414 f(x)=     0.002893
   iter:   3  x=   -0.005696  g=    6.471370 f(x)=     0.000066
   iter:   4  x=   -0.005696  g=    6.464241 f(x)=     0.000000
   iter:   5  x=   -0.005696  g=    6.464237 f(x)=     0.000000
The output lambda is                    ....    -0.005696 (5 iterations)
The final length of the internal step   ....  0.300000000
Converting the step to cartesian space:
 Initial RMS(Int)=    0.3000000000
Transforming coordinates:
 Iter   0:  RMS(Cart)=    0.0577350269 RMS(Int)=    0.2000000000
 Iter   1:  RMS(Cart)=    0.0288675135 RMS(Int)=    0.1000000000
 Iter   2:  RMS(Cart)=    0.0000000000 RMS(Int)=    0.0000000000
done
Storing new coordinates                 .... done

                                .--------------------.
          ----------------------|Geometry convergence|-------------------------
          Item                value                   Tolerance       Converged
          ---------------------------------------------------------------------
          RMS gradient        0.0083536546            0.0001000000      NO
          MAX gradient        0.0083536546            0.0003000000      NO
          RMS step            0.3000000000            0.0020000000      NO
          MAX step            0.3000000000            0.0040000000      NO
          ........................................................
          Max(Bonds)      0.1588      Max(Angles)    0.00
          Max(Dihed)        0.00      Max(Improp)    0.00
          ---------------------------------------------------------------------

The optimization has not yet converged - more geometry cycles are needed


    ---------------------------------------------------------------------------
                         Redundant Internal Coordinates
                            (Angstroem and degrees)

        Definition                    Value    dE/dq     Step     New-Value
    ----------------------------------------------------------------------------
     1. B(Au  1,Au  0)                2.4791 -0.008354  0.1588    2.6378   
    ----------------------------------------------------------------------------

         *************************************************************
         *                GEOMETRY OPTIMIZATION CYCLE   2            *
         *************************************************************
---------------------------------
CARTESIAN COORDINATES (ANGSTROEM)
---------------------------------
  Au     0.000000    0.000000    1.318918
  Au     0.000000    0.000000   -1.318918

----------------------------
CARTESIAN COORDINATES (A.U.)
----------------------------
  NO LB      ZA    FRAG     MASS         X           Y           Z
   0 Au   19.0000*   0   196.966    0.000000    0.000000    2.492393
   1 Au   19.0000*   0   196.966    0.000000    0.000000   -2.492393
* core charge reduced due to ECP

--------------------------------
INTERNAL COORDINATES (ANGSTROEM)
--------------------------------
 Au     0   0   0     0.000000000000     0.00000000     0.00000000
 Au     1   0   0     2.637835162490     0.00000000     0.00000000

---------------------------
INTERNAL COORDINATES (A.U.)
---------------------------
 Au     0   0   0     0.000000000000     0.00000000     0.00000000
 Au     1   0   0     4.984786043534     0.00000000     0.00000000



           ************************************************************
           *        Program running with 24 parallel MPI-processes    *
           *              working on a common directory               *
           ************************************************************
 One Electron integrals                  ... done
 Pre-screening matrix                    ... done


           ************************************************************
           *        Program running with 24 parallel MPI-processes    *
           *              working on a common directory               *
           ************************************************************

Diagonalization of the overlap matrix:
Smallest eigenvalue                        ... 2.767e-03
Time for diagonalization                   ...    0.004 sec
Threshold for overlap eigenvalues          ... 1.000e-08
Number of eigenvalues below threshold      ... 0
Time for construction of square roots      ...    0.002 sec
Total time needed                          ...    0.006 sec

-------------------
DFT GRID GENERATION
-------------------

General Integration Accuracy     IntAcc      ...  4.670
Radial Grid Type                 RadialGrid  ... Gauss-Chebyshev
Angular Grid (max. acc.)         AngularGrid ... Lebedev-302
Angular grid pruning method      GridPruning ... 3 (G Style)
Weight generation scheme         WeightScheme... Becke
Basis function cutoff            BFCut       ...    1.0000e-11
Integration weight cutoff        WCut        ...    1.0000e-14
Grids for H and He will be reduced by one unit

# of grid points (after initial pruning)     ...  23304 (   0.0 sec)
# of grid points (after weights+screening)   ...  23266 (   0.0 sec)
nearest neighbour list constructed           ...    0.0 sec
Grid point re-assignment to atoms done       ...    0.0 sec
Grid point division into batches done        ...    0.2 sec
Reduced shell lists constructed in    0.2 sec

Total number of grid points                  ...    23266
Total number of batches                      ...      364
Average number of points per batch           ...       63
Average number of grid points per atom       ...    11633
Average number of shells per batch           ...     1.47 ( 4.33%)
Average number of basis functions per batch  ...     3.35 ( 2.84%)
Average number of large shells per batch     ...     1.00 (68.00%)
Average number of large basis fcns per batch ...     2.65 (78.95%)
Maximum spatial batch extension              ...  31.96, 31.96, 20.28 au
Average spatial batch extension              ...   1.02,  1.02,  0.79 au

Time for grid setup =    0.256 sec

--------------
SCF ITERATIONS
--------------
ITER       Energy         Delta-E        Max-DP      RMS-DP      [F,P]     Damp
               ***  Starting incremental Fock matrix formation  ***
  0   -271.4255229182   0.000000000000 0.00474882  0.00017681  0.2154587 0.7000
  1   -271.4260518228  -0.000528904566 0.00564632  0.00018582  0.1509669 0.7000
                               ***Turning on DIIS***
  2   -271.4264426487  -0.000390825988 0.00523029  0.00016132  0.1056918 0.7000
  3   -271.4267251179  -0.000282469110 0.01527844  0.00043608  0.0739931 0.0000
  4   -271.4273944815  -0.000669363644 0.00473722  0.00017218  0.0007804 0.0000
  5   -271.4274001511  -0.000005669631 0.00063009  0.00002427  0.0011983 0.0000
  6   -271.4274074831  -0.000007331962 0.00155355  0.00004936  0.0003560 0.0000
  7   -271.4274085536  -0.000001070502 0.00050587  0.00001615  0.0002305 0.0000
  8   -271.4274088465  -0.000000292912 0.00011675  0.00000366  0.0000772 0.0000
  9   -271.4274088822  -0.000000035691 0.00002173  0.00000087  0.0000246 0.0000
 10   -271.4274088847  -0.000000002468 0.00000571  0.00000017  0.0000048 0.0000
                 **** Energy Check signals convergence ****

               *****************************************************
               *                     SUCCESS                       *
               *           SCF CONVERGED AFTER  11 CYCLES          *
               *****************************************************

Total Energy       :         -271.42740888 Eh           -7385.91529 eV
  Last Energy change         ...    2.8990e-10  Tolerance :   1.0000e-08
  Last MAX-Density change    ...    8.9487e-07  Tolerance :   1.0000e-07
             **** THE GBW FILE WAS UPDATED (Au02N0.gbw) ****
             **** DENSITY FILE WAS UPDATED (Au02N0.scfp) ****
             **** ENERGY FILE WAS UPDATED (Au02N0.en.tmp) ****
             **** THE GBW FILE WAS UPDATED (Au02N0.gbw) ****
             **** DENSITY FILE WAS UPDATED (Au02N0.scfp) ****
Total SCF time: 0 days 0 hours 0 min 1 sec 


-------------------------------------------------------------------------------
                          DFT DISPERSION CORRECTION                            
                                                                               
                              DFTD3 V3.1  Rev 1                                
                          USING Becke-Johnson damping                          
-------------------------------------------------------------------------------
-------------------------   ----------------
Dispersion correction           -0.002041329
-------------------------   ----------------


-------------------------   --------------------
FINAL SINGLE POINT ENERGY      -271.429450212914
-------------------------   --------------------



           ************************************************************
           *        Program running with 24 parallel MPI-processes    *
           *              working on a common directory               *
           ************************************************************
------------------------------------------------------------------------------
                         ORCA SCF GRADIENT CALCULATION
------------------------------------------------------------------------------

Gradient of the Kohn-Sham DFT energy:
Kohn-Sham wavefunction type      ... RKS
Hartree-Fock exchange scaling    ...    0.000
Number of operators              ...    1
Number of atoms                  ...    2
Basis set dimensions             ...  118
Integral neglect threshold       ... 2.5e-11
Integral primitive cutoff        ... 2.5e-12

Nuclear repulsion gradient       ... done
One Electron Gradient            
  ECP gradient                   ... done
Pre-screening matrix             ... done
RI-J gradient                    ... done
Exchange-correlation gradient    ... done
Dispersion correction            ... done

------------------
CARTESIAN GRADIENT
------------------

   1   Au  :    0.000000004    0.000000000    0.020097485
   2   Au  :    0.000000004   -0.000000005   -0.020097484

Difference to translation invariance:
           :    0.0000000083   -0.0000000044    0.0000000012

Norm of the cartesian gradient     ...    0.0284221356
RMS gradient                       ...    0.0116032883
MAX gradient                       ...    0.0200974854

-------
TIMINGS
-------

Total SCF gradient time            ...        0.688 sec

One electron gradient       ....       0.375 sec  ( 54.6%)
Prescreening matrices       ....       0.005 sec  (  0.7%)
RI-J Coulomb gradient       ....       0.082 sec  ( 11.9%)
XC gradient                 ....       0.020 sec  (  2.9%)
------------------------------------------------------------------------------
                         ORCA GEOMETRY RELAXATION STEP
------------------------------------------------------------------------------

Reading the OPT-File                    .... done
Getting information on internals        .... done
Copying old internal coords+grads       .... done
Making the new internal coordinates     .... (new redundants).... done
Validating the new internal coordinates .... (new redundants).... done
Calculating the B-matrix                .... done
Calculating the G,G- and P matrices     .... done
Transforming gradient to internals      .... done
Projecting the internal gradient        .... done
Number of atoms                         ....   2
Number of internal coordinates          ....   1
Current Energy                          ....  -271.429450213 Eh
Current gradient norm                   ....     0.028422136 Eh/bohr
Maximum allowed component of the step   ....  0.300
Current trust radius                    ....  0.300
Updating the Hessian (BFGS)             .... done
Forming the augmented Hessian           .... done
Diagonalizing the augmented Hessian     .... done
Last element of RFO vector              ....  0.979979013
Lowest eigenvalues of augmented Hessian:
 -0.004083175
Length of the computed step             ....  0.203168446
The final length of the internal step   ....  0.203168446
Converting the step to cartesian space:
 Initial RMS(Int)=    0.2031684458
Transforming coordinates:
 Iter   0:  RMS(Cart)=    0.0586496784 RMS(Int)=    0.2031684458
 Iter   1:  RMS(Cart)=    0.0000000000 RMS(Int)=    0.0000000000
done
Storing new coordinates                 .... done

                                .--------------------.
          ----------------------|Geometry convergence|-------------------------
          Item                value                   Tolerance       Converged
          ---------------------------------------------------------------------
          Energy change       0.0025488914            0.0000050000      NO
          RMS gradient        0.0200974848            0.0001000000      NO
          MAX gradient        0.0200974848            0.0003000000      NO
          RMS step            0.2031684458            0.0020000000      NO
          MAX step            0.2031684458            0.0040000000      NO
          ........................................................
          Max(Bonds)      0.1075      Max(Angles)    0.00
          Max(Dihed)        0.00      Max(Improp)    0.00
          ---------------------------------------------------------------------

The optimization has not yet converged - more geometry cycles are needed


    ---------------------------------------------------------------------------
                         Redundant Internal Coordinates
                            (Angstroem and degrees)

        Definition                    Value    dE/dq     Step     New-Value
    ----------------------------------------------------------------------------
     1. B(Au  1,Au  0)                2.6378  0.020097 -0.1075    2.5303   
    ----------------------------------------------------------------------------

         *************************************************************
         *                GEOMETRY OPTIMIZATION CYCLE   3            *
         *************************************************************
---------------------------------
CARTESIAN COORDINATES (ANGSTROEM)
---------------------------------
  Au     0.000000    0.000000    1.265162
  Au     0.000000    0.000000   -1.265162

----------------------------
CARTESIAN COORDINATES (A.U.)
----------------------------
  NO LB      ZA    FRAG     MASS         X           Y           Z
   0 Au   19.0000*   0   196.966    0.000000    0.000000    2.390809
   1 Au   19.0000*   0   196.966    0.000000    0.000000   -2.390809
* core charge reduced due to ECP

--------------------------------
INTERNAL COORDINATES (ANGSTROEM)
--------------------------------
 Au     0   0   0     0.000000000000     0.00000000     0.00000000
 Au     1   0   0     2.530323051552     0.00000000     0.00000000

---------------------------
INTERNAL COORDINATES (A.U.)
---------------------------
 Au     0   0   0     0.000000000000     0.00000000     0.00000000
 Au     1   0   0     4.781617597782     0.00000000     0.00000000



           ************************************************************
           *        Program running with 24 parallel MPI-processes    *
           *              working on a common directory               *
           ************************************************************
 One Electron integrals                  ... done
 Pre-screening matrix                    ... done


           ************************************************************
           *        Program running with 24 parallel MPI-processes    *
           *              working on a common directory               *
           ************************************************************

Diagonalization of the overlap matrix:
Smallest eigenvalue                        ... 2.224e-03
Time for diagonalization                   ...    0.004 sec
Threshold for overlap eigenvalues          ... 1.000e-08
Number of eigenvalues below threshold      ... 0
Time for construction of square roots      ...    0.002 sec
Total time needed                          ...    0.006 sec

-------------------
DFT GRID GENERATION
-------------------

General Integration Accuracy     IntAcc      ...  4.670
Radial Grid Type                 RadialGrid  ... Gauss-Chebyshev
Angular Grid (max. acc.)         AngularGrid ... Lebedev-302
Angular grid pruning method      GridPruning ... 3 (G Style)
Weight generation scheme         WeightScheme... Becke
Basis function cutoff            BFCut       ...    1.0000e-11
Integration weight cutoff        WCut        ...    1.0000e-14
Grids for H and He will be reduced by one unit

# of grid points (after initial pruning)     ...  23304 (   0.0 sec)
# of grid points (after weights+screening)   ...  23266 (   0.0 sec)
nearest neighbour list constructed           ...    0.0 sec
Grid point re-assignment to atoms done       ...    0.0 sec
Grid point division into batches done        ...    0.2 sec
Reduced shell lists constructed in    0.2 sec

Total number of grid points                  ...    23266
Total number of batches                      ...      364
Average number of points per batch           ...       63
Average number of grid points per atom       ...    11633
Average number of shells per batch           ...     1.47 ( 4.33%)
Average number of basis functions per batch  ...     3.35 ( 2.84%)
Average number of large shells per batch     ...     1.00 (68.00%)
Average number of large basis fcns per batch ...     2.65 (78.95%)
Maximum spatial batch extension              ...  31.96, 31.96, 20.28 au
Average spatial batch extension              ...   1.02,  1.02,  0.79 au

Time for grid setup =    0.249 sec

--------------
SCF ITERATIONS
--------------
ITER       Energy         Delta-E        Max-DP      RMS-DP      [F,P]     Damp
               ***  Starting incremental Fock matrix formation  ***
  0   -271.4292732330   0.000000000000 0.00309462  0.00011630  0.1422841 0.7000
  1   -271.4295075873  -0.000234354281 0.00367730  0.00012139  0.0996932 0.7000
                               ***Turning on DIIS***
  2   -271.4296773492  -0.000169761874 0.01131270  0.00034771  0.0697943 0.0000
  3   -271.4300783106  -0.000400961390 0.00474607  0.00013034  0.0007907 0.0000
  4   -271.4300853278  -0.000007017241 0.00049822  0.00002119  0.0014199 0.0000
  5   -271.4300923518  -0.000007023979 0.00037734  0.00001265  0.0002191 0.0000
  6   -271.4300926965  -0.000000344723 0.00019734  0.00000621  0.0001028 0.0000
  7   -271.4300927412  -0.000000044659 0.00010610  0.00000316  0.0000620 0.0000
  8   -271.4300927614  -0.000000020219 0.00001360  0.00000047  0.0000116 0.0000
  9   -271.4300927624  -0.000000001006 0.00000256  0.00000010  0.0000030 0.0000
                 **** Energy Check signals convergence ****

               *****************************************************
               *                     SUCCESS                       *
               *           SCF CONVERGED AFTER  10 CYCLES          *
               *****************************************************

Total Energy       :         -271.43009276 Eh           -7385.98832 eV
  Last Energy change         ...    5.7412e-10  Tolerance :   1.0000e-08
  Last MAX-Density change    ...    5.8967e-07  Tolerance :   1.0000e-07
             **** THE GBW FILE WAS UPDATED (Au02N0.gbw) ****
             **** DENSITY FILE WAS UPDATED (Au02N0.scfp) ****
             **** ENERGY FILE WAS UPDATED (Au02N0.en.tmp) ****
             **** THE GBW FILE WAS UPDATED (Au02N0.gbw) ****
             **** DENSITY FILE WAS UPDATED (Au02N0.scfp) ****
Total SCF time: 0 days 0 hours 0 min 1 sec 


-------------------------------------------------------------------------------
                          DFT DISPERSION CORRECTION                            
                                                                               
                              DFTD3 V3.1  Rev 1                                
                          USING Becke-Johnson damping                          
-------------------------------------------------------------------------------
-------------------------   ----------------
Dispersion correction           -0.002047156
-------------------------   ----------------


-------------------------   --------------------
FINAL SINGLE POINT ENERGY      -271.432139917430
-------------------------   --------------------



           ************************************************************
           *        Program running with 24 parallel MPI-processes    *
           *              working on a common directory               *
           ************************************************************
------------------------------------------------------------------------------
                         ORCA SCF GRADIENT CALCULATION
------------------------------------------------------------------------------

Gradient of the Kohn-Sham DFT energy:
Kohn-Sham wavefunction type      ... RKS
Hartree-Fock exchange scaling    ...    0.000
Number of operators              ...    1
Number of atoms                  ...    2
Basis set dimensions             ...  118
Integral neglect threshold       ... 2.5e-11
Integral primitive cutoff        ... 2.5e-12

Nuclear repulsion gradient       ... done
One Electron Gradient            
  ECP gradient                   ... done
Pre-screening matrix             ... done
RI-J gradient                    ... done
Exchange-correlation gradient    ... done
Dispersion correction            ... done

------------------
CARTESIAN GRADIENT
------------------

   1   Au  :    0.000000002    0.000000000    0.003411460
   2   Au  :   -0.000000004    0.000000003   -0.003411463

Difference to translation invariance:
           :   -0.0000000018    0.0000000032   -0.0000000037

Norm of the cartesian gradient     ...    0.0048245353
RMS gradient                       ...    0.0019696083
MAX gradient                       ...    0.0034114635

-------
TIMINGS
-------

Total SCF gradient time            ...        0.637 sec

One electron gradient       ....       0.334 sec  ( 52.5%)
Prescreening matrices       ....       0.005 sec  (  0.7%)
RI-J Coulomb gradient       ....       0.082 sec  ( 12.9%)
XC gradient                 ....       0.020 sec  (  3.2%)
------------------------------------------------------------------------------
                         ORCA GEOMETRY RELAXATION STEP
------------------------------------------------------------------------------

Reading the OPT-File                    .... done
Getting information on internals        .... done
Copying old internal coords+grads       .... done
Making the new internal coordinates     .... (new redundants).... done
Validating the new internal coordinates .... (new redundants).... done
Calculating the B-matrix                .... done
Calculating the G,G- and P matrices     .... done
Transforming gradient to internals      .... done
Projecting the internal gradient        .... done
Number of atoms                         ....   2
Number of internal coordinates          ....   1
Current Energy                          ....  -271.432139917 Eh
Current gradient norm                   ....     0.004824535 Eh/bohr
Maximum allowed component of the step   ....  0.300
Current trust radius                    ....  0.300
Updating the Hessian (BFGS)             .... done
Forming the augmented Hessian           .... done
Diagonalizing the augmented Hessian     .... done
Last element of RFO vector              ....  0.999141375
Lowest eigenvalues of augmented Hessian:
 -0.000141461
Length of the computed step             ....  0.041466417
The final length of the internal step   ....  0.041466417
Converting the step to cartesian space:
 Initial RMS(Int)=    0.0414664170
Transforming coordinates:
 Iter   0:  RMS(Cart)=    0.0119703235 RMS(Int)=    0.0414664170
 Iter   1:  RMS(Cart)=    0.0000000000 RMS(Int)=    0.0000000000
done
Storing new coordinates                 .... done

                                .--------------------.
          ----------------------|Geometry convergence|-------------------------
          Item                value                   Tolerance       Converged
          ---------------------------------------------------------------------
          Energy change      -0.0026897045            0.0000050000      NO
          RMS gradient        0.0034114616            0.0001000000      NO
          MAX gradient        0.0034114616            0.0003000000      NO
          RMS step            0.0414664170            0.0020000000      NO
          MAX step            0.0414664170            0.0040000000      NO
          ........................................................
          Max(Bonds)      0.0219      Max(Angles)    0.00
          Max(Dihed)        0.00      Max(Improp)    0.00
          ---------------------------------------------------------------------

The optimization has not yet converged - more geometry cycles are needed


    ---------------------------------------------------------------------------
                         Redundant Internal Coordinates
                            (Angstroem and degrees)

        Definition                    Value    dE/dq     Step     New-Value
    ----------------------------------------------------------------------------
     1. B(Au  1,Au  0)                2.5303  0.003411 -0.0219    2.5084   
    ----------------------------------------------------------------------------

         *************************************************************
         *                GEOMETRY OPTIMIZATION CYCLE   4            *
         *************************************************************
---------------------------------
CARTESIAN COORDINATES (ANGSTROEM)
---------------------------------
  Au     0.000000    0.000000    1.254190
  Au     0.000000    0.000000   -1.254190

----------------------------
CARTESIAN COORDINATES (A.U.)
----------------------------
  NO LB      ZA    FRAG     MASS         X           Y           Z
   0 Au   19.0000*   0   196.966    0.000000    0.000000    2.370076
   1 Au   19.0000*   0   196.966    0.000000    0.000000   -2.370076
* core charge reduced due to ECP

--------------------------------
INTERNAL COORDINATES (ANGSTROEM)
--------------------------------
 Au     0   0   0     0.000000000000     0.00000000     0.00000000
 Au     1   0   0     2.508379968785     0.00000000     0.00000000

---------------------------
INTERNAL COORDINATES (A.U.)
---------------------------
 Au     0   0   0     0.000000000000     0.00000000     0.00000000
 Au     1   0   0     4.740151180818     0.00000000     0.00000000



           ************************************************************
           *        Program running with 24 parallel MPI-processes    *
           *              working on a common directory               *
           ************************************************************
 One Electron integrals                  ... done
 Pre-screening matrix                    ... done


           ************************************************************
           *        Program running with 24 parallel MPI-processes    *
           *              working on a common directory               *
           ************************************************************

Diagonalization of the overlap matrix:
Smallest eigenvalue                        ... 2.125e-03
Time for diagonalization                   ...    0.004 sec
Threshold for overlap eigenvalues          ... 1.000e-08
Number of eigenvalues below threshold      ... 0
Time for construction of square roots      ...    0.002 sec
Total time needed                          ...    0.006 sec

-------------------
DFT GRID GENERATION
-------------------

General Integration Accuracy     IntAcc      ...  4.670
Radial Grid Type                 RadialGrid  ... Gauss-Chebyshev
Angular Grid (max. acc.)         AngularGrid ... Lebedev-302
Angular grid pruning method      GridPruning ... 3 (G Style)
Weight generation scheme         WeightScheme... Becke
Basis function cutoff            BFCut       ...    1.0000e-11
Integration weight cutoff        WCut        ...    1.0000e-14
Grids for H and He will be reduced by one unit

# of grid points (after initial pruning)     ...  23304 (   0.0 sec)
# of grid points (after weights+screening)   ...  23266 (   0.0 sec)
nearest neighbour list constructed           ...    0.0 sec
Grid point re-assignment to atoms done       ...    0.0 sec
Grid point division into batches done        ...    0.2 sec
Reduced shell lists constructed in    0.2 sec

Total number of grid points                  ...    23266
Total number of batches                      ...      364
Average number of points per batch           ...       63
Average number of grid points per atom       ...    11633
Average number of shells per batch           ...     1.47 ( 4.33%)
Average number of basis functions per batch  ...     3.35 ( 2.84%)
Average number of large shells per batch     ...     1.00 (68.00%)
Average number of large basis fcns per batch ...     2.65 (78.95%)
Maximum spatial batch extension              ...  31.96, 31.96, 20.28 au
Average spatial batch extension              ...   1.02,  1.02,  0.79 au

Time for grid setup =    0.286 sec

--------------
SCF ITERATIONS
--------------
ITER       Energy         Delta-E        Max-DP      RMS-DP      [F,P]     Damp
               ***  Starting incremental Fock matrix formation  ***
  0   -271.4301291021   0.000000000000 0.00070909  0.00002666  0.0316779 0.7000
  1   -271.4301407870  -0.000011684907 0.00080605  0.00002780  0.0221955 0.7000
                               ***Turning on DIIS***
  2   -271.4301492681  -0.000008481083 0.00248064  0.00007967  0.0155388 0.0000
  3   -271.4301693683  -0.000020100194 0.00108947  0.00002971  0.0001736 0.0000
  4   -271.4301697603  -0.000000391936 0.00016503  0.00000684  0.0003031 0.0000
  5   -271.4301700899  -0.000000329675 0.00010234  0.00000319  0.0000502 0.0000
  6   -271.4301700965  -0.000000006576 0.00003092  0.00000106  0.0000242 0.0000
  7   -271.4301700986  -0.000000002071 0.00002163  0.00000065  0.0000102 0.0000
  8   -271.4301700989  -0.000000000307 0.00000764  0.00000022  0.0000044 0.0000
                 **** Energy Check signals convergence ****

               *****************************************************
               *                     SUCCESS                       *
               *           SCF CONVERGED AFTER   9 CYCLES          *
               *****************************************************

Total Energy       :         -271.43017010 Eh           -7385.99042 eV
  Last Energy change         ...   -1.8599e-10  Tolerance :   1.0000e-08
  Last MAX-Density change    ...    1.1265e-06  Tolerance :   1.0000e-07
             **** THE GBW FILE WAS UPDATED (Au02N0.gbw) ****
             **** DENSITY FILE WAS UPDATED (Au02N0.scfp) ****
             **** ENERGY FILE WAS UPDATED (Au02N0.en.tmp) ****
             **** THE GBW FILE WAS UPDATED (Au02N0.gbw) ****
             **** DENSITY FILE WAS UPDATED (Au02N0.scfp) ****
Total SCF time: 0 days 0 hours 0 min 1 sec 


-------------------------------------------------------------------------------
                          DFT DISPERSION CORRECTION                            
                                                                               
                              DFTD3 V3.1  Rev 1                                
                          USING Becke-Johnson damping                          
-------------------------------------------------------------------------------
-------------------------   ----------------
Dispersion correction           -0.002048290
-------------------------   ----------------


-------------------------   --------------------
FINAL SINGLE POINT ENERGY      -271.432218389265
-------------------------   --------------------



           ************************************************************
           *        Program running with 24 parallel MPI-processes    *
           *              working on a common directory               *
           ************************************************************
------------------------------------------------------------------------------
                         ORCA SCF GRADIENT CALCULATION
------------------------------------------------------------------------------

Gradient of the Kohn-Sham DFT energy:
Kohn-Sham wavefunction type      ... RKS
Hartree-Fock exchange scaling    ...    0.000
Number of operators              ...    1
Number of atoms                  ...    2
Basis set dimensions             ...  118
Integral neglect threshold       ... 2.5e-11
Integral primitive cutoff        ... 2.5e-12

Nuclear repulsion gradient       ... done
One Electron Gradient            
  ECP gradient                   ... done
Pre-screening matrix             ... done
RI-J gradient                    ... done
Exchange-correlation gradient    ... done
Dispersion correction            ... done

------------------
CARTESIAN GRADIENT
------------------

   1   Au  :   -0.000000001   -0.000000001   -0.001268765
   2   Au  :   -0.000000002    0.000000003    0.001268755

Difference to translation invariance:
           :   -0.0000000035    0.0000000023   -0.0000000102

Norm of the cartesian gradient     ...    0.0017942981
RMS gradient                       ...    0.0007325191
MAX gradient                       ...    0.0012687654

-------
TIMINGS
-------

Total SCF gradient time            ...        0.648 sec

One electron gradient       ....       0.341 sec  ( 52.7%)
Prescreening matrices       ....       0.005 sec  (  0.8%)
RI-J Coulomb gradient       ....       0.083 sec  ( 12.7%)
XC gradient                 ....       0.021 sec  (  3.2%)
------------------------------------------------------------------------------
                         ORCA GEOMETRY RELAXATION STEP
------------------------------------------------------------------------------

Reading the OPT-File                    .... done
Getting information on internals        .... done
Copying old internal coords+grads       .... done
Making the new internal coordinates     .... (new redundants).... done
Validating the new internal coordinates .... (new redundants).... done
Calculating the B-matrix                .... done
Calculating the G,G- and P matrices     .... done
Transforming gradient to internals      .... done
Projecting the internal gradient        .... done
Number of atoms                         ....   2
Number of internal coordinates          ....   1
Current Energy                          ....  -271.432218389 Eh
Current gradient norm                   ....     0.001794298 Eh/bohr
Maximum allowed component of the step   ....  0.300
Current trust radius                    ....  0.300
Updating the Hessian (BFGS)             .... done
Forming the augmented Hessian           .... done
Diagonalizing the augmented Hessian     .... done
Last element of RFO vector              ....  0.999936841
Lowest eigenvalues of augmented Hessian:
 -0.000014260
Length of the computed step             ....  0.011239702
The final length of the internal step   ....  0.011239702
Converting the step to cartesian space:
 Initial RMS(Int)=    0.0112397018
Transforming coordinates:
 Iter   0:  RMS(Cart)=    0.0032446224 RMS(Int)=    0.0112397018
 Iter   1:  RMS(Cart)=    0.0000000000 RMS(Int)=    0.0000000000
done
Storing new coordinates                 .... done

                                .--------------------.
          ----------------------|Geometry convergence|-------------------------
          Item                value                   Tolerance       Converged
          ---------------------------------------------------------------------
          Energy change      -0.0000784718            0.0000050000      NO
          RMS gradient        0.0012687604            0.0001000000      NO
          MAX gradient        0.0012687604            0.0003000000      NO
          RMS step            0.0112397018            0.0020000000      NO
          MAX step            0.0112397018            0.0040000000      NO
          ........................................................
          Max(Bonds)      0.0059      Max(Angles)    0.00
          Max(Dihed)        0.00      Max(Improp)    0.00
          ---------------------------------------------------------------------

The optimization has not yet converged - more geometry cycles are needed


    ---------------------------------------------------------------------------
                         Redundant Internal Coordinates
                            (Angstroem and degrees)

        Definition                    Value    dE/dq     Step     New-Value
    ----------------------------------------------------------------------------
     1. B(Au  1,Au  0)                2.5084 -0.001269  0.0059    2.5143   
    ----------------------------------------------------------------------------

         *************************************************************
         *                GEOMETRY OPTIMIZATION CYCLE   5            *
         *************************************************************
---------------------------------
CARTESIAN COORDINATES (ANGSTROEM)
---------------------------------
  Au     0.000000    0.000000    1.257164
  Au     0.000000    0.000000   -1.257164

----------------------------
CARTESIAN COORDINATES (A.U.)
----------------------------
  NO LB      ZA    FRAG     MASS         X           Y           Z
   0 Au   19.0000*   0   196.966    0.000000    0.000000    2.375695
   1 Au   19.0000*   0   196.966    0.000000    0.000000   -2.375695
* core charge reduced due to ECP

--------------------------------
INTERNAL COORDINATES (ANGSTROEM)
--------------------------------
 Au     0   0   0     0.000000000000     0.00000000     0.00000000
 Au     1   0   0     2.514327762809     0.00000000     0.00000000

---------------------------
INTERNAL COORDINATES (A.U.)
---------------------------
 Au     0   0   0     0.000000000000     0.00000000     0.00000000
 Au     1   0   0     4.751390882623     0.00000000     0.00000000



           ************************************************************
           *        Program running with 24 parallel MPI-processes    *
           *              working on a common directory               *
           ************************************************************
 One Electron integrals                  ... done
 Pre-screening matrix                    ... done


           ************************************************************
           *        Program running with 24 parallel MPI-processes    *
           *              working on a common directory               *
           ************************************************************

Diagonalization of the overlap matrix:
Smallest eigenvalue                        ... 2.151e-03
Time for diagonalization                   ...    0.004 sec
Threshold for overlap eigenvalues          ... 1.000e-08
Number of eigenvalues below threshold      ... 0
Time for construction of square roots      ...    0.002 sec
Total time needed                          ...    0.006 sec

-------------------
[...]
  75   0.0000       2.508609        68.2627 
  76   0.0000       3.437981        93.5522 
  77   0.0000       3.437981        93.5522 
  78   0.0000       3.454215        93.9940 
  79   0.0000       3.454397        93.9989 
  80   0.0000       3.508645        95.4751 
  81   0.0000       3.508645        95.4751 
  82   0.0000       3.525476        95.9331 
  83   0.0000       3.525476        95.9331 
  84   0.0000       3.583586        97.5143 
  85   0.0000       3.583811        97.5205 
  86   0.0000       3.645756        99.2061 
  87   0.0000       3.737737       101.7090 
  88   0.0000       3.737737       101.7090 
  89   0.0000       3.818761       103.9138 
  90   0.0000       4.042640       110.0058 
  91   0.0000       4.056193       110.3746 
  92   0.0000       4.056193       110.3746 
  93   0.0000       4.064871       110.6108 
  94   0.0000       4.064997       110.6142 
  95   0.0000       4.074764       110.8800 
  96   0.0000       4.074764       110.8800 
  97   0.0000       4.076184       110.9186 
  98   0.0000       4.076184       110.9186 
  99   0.0000       4.078898       110.9925 
 100   0.0000       4.078982       110.9947 
 101   0.0000       4.082537       111.0915 
 102   0.0000       4.082600       111.0932 
 103   0.0000       4.083129       111.1076 
 104   0.0000       4.083193       111.1093 
 105   0.0000       4.164888       113.3324 
 106   0.0000       4.164888       113.3324 
 107   0.0000       4.413067       120.0857 
 108   0.0000      27.145311       738.6615 
 109   0.0000      27.145311       738.6615 
 110   0.0000      27.278185       742.2772 
 111   0.0000      27.562806       750.0221 
 112   0.0000      27.562806       750.0221 
 113   0.0000      30.043004       817.5117 
 114   0.0000      43.842771      1193.0224 
 115   0.0000      44.291914      1205.2443 
 116   0.0000     205.046979      5579.6120 
 117   0.0000     205.241847      5584.9146 

                    ********************************
                    * MULLIKEN POPULATION ANALYSIS *
                    ********************************

-----------------------
MULLIKEN ATOMIC CHARGES
-----------------------
   0 Au:    0.000001
   1 Au:   -0.000001
Sum of atomic charges:   -0.0000000

--------------------------------
MULLIKEN REDUCED ORBITAL CHARGES
--------------------------------
  0 Aus       :     3.075113  s :     3.075113
      pz      :     2.019046  p :     6.047719
      px      :     2.014336
      py      :     2.014336
      dz2     :     1.902872  d :     9.868985
      dxz     :     1.983341
      dyz     :     1.983341
      dx2y2   :     1.999716
      dxy     :     1.999716
      f0      :     0.002906  f :     0.008022
      f+1     :     0.002282
      f-1     :     0.002282
      f+2     :     0.000277
      f-2     :     0.000277
      f+3     :     0.000000
      f-3     :     0.000000
      g0      :     0.000062  g :     0.000160
      g+1     :     0.000041
      g-1     :     0.000041
      g+2     :     0.000008
      g-2     :     0.000008
      g+3     :     0.000000
      g-3     :     0.000000
      g+4     :     0.000000
      g-4     :     0.000000
  1 Aus       :     3.075115  s :     3.075115
      pz      :     2.019046  p :     6.047719
      px      :     2.014336
      py      :     2.014336
      dz2     :     1.902872  d :     9.868985
      dxz     :     1.983341
      dyz     :     1.983341
      dx2y2   :     1.999716
      dxy     :     1.999716
      f0      :     0.002906  f :     0.008022
      f+1     :     0.002282
      f-1     :     0.002282
      f+2     :     0.000277
      f-2     :     0.000277
      f+3     :     0.000000
      f-3     :     0.000000
      g0      :     0.000062  g :     0.000160
      g+1     :     0.000041
      g-1     :     0.000041
      g+2     :     0.000008
      g-2     :     0.000008
      g+3     :     0.000000
      g-3     :     0.000000
      g+4     :     0.000000
      g-4     :     0.000000


                     *******************************
                     * LOEWDIN POPULATION ANALYSIS *
                     *******************************

----------------------
LOEWDIN ATOMIC CHARGES
----------------------
   0 Au:    0.000000
   1 Au:   -0.000000

-------------------------------
LOEWDIN REDUCED ORBITAL CHARGES
-------------------------------
  0 Aus       :     2.948051  s :     2.948051
      pz      :     2.088597  p :     6.124809
      px      :     2.018106
      py      :     2.018106
      dz2     :     1.957790  d :     9.913354
      dxz     :     1.978144
      dyz     :     1.978144
      dx2y2   :     1.999638
      dxy     :     1.999638
      f0      :     0.005469  f :     0.013563
      f+1     :     0.003693
      f-1     :     0.003693
      f+2     :     0.000354
      f-2     :     0.000354
      f+3     :     0.000000
      f-3     :     0.000000
      g0      :     0.000093  g :     0.000223
      g+1     :     0.000056
      g-1     :     0.000056
      g+2     :     0.000009
      g-2     :     0.000009
      g+3     :     0.000000
      g-3     :     0.000000
      g+4     :     0.000000
      g-4     :     0.000000
  1 Aus       :     2.948052  s :     2.948052
      pz      :     2.088597  p :     6.124809
      px      :     2.018106
      py      :     2.018106
      dz2     :     1.957790  d :     9.913354
      dxz     :     1.978144
      dyz     :     1.978144
      dx2y2   :     1.999638
      dxy     :     1.999638
      f0      :     0.005469  f :     0.013563
      f+1     :     0.003693
      f-1     :     0.003693
      f+2     :     0.000354
      f-2     :     0.000354
      f+3     :     0.000000
      f-3     :     0.000000
      g0      :     0.000093  g :     0.000223
      g+1     :     0.000056
      g-1     :     0.000056
      g+2     :     0.000009
      g-2     :     0.000009
      g+3     :     0.000000
      g-3     :     0.000000
      g+4     :     0.000000
      g-4     :     0.000000


                      *****************************
                      * MAYER POPULATION ANALYSIS *
                      *****************************

  NA   - Mulliken gross atomic population
  ZA   - Total nuclear charge
  QA   - Mulliken gross atomic charge
  VA   - Mayer's total valence
  BVA  - Mayer's bonded valence
  FA   - Mayer's free valence

  ATOM       NA         ZA         QA         VA         BVA        FA
  0 Au    19.0000    19.0000     0.0000     1.1477     1.1477    -0.0000
  1 Au    19.0000    19.0000    -0.0000     1.1477     1.1477    -0.0000

  Mayer bond orders larger than 0.100000
B(  0-Au,  1-Au) :   1.1477 

-------
TIMINGS
-------

Total SCF time: 0 days 0 hours 0 min 1 sec 

Total time                  ....       1.291 sec
Sum of individual times     ....       1.179 sec  ( 91.3%)

Fock matrix formation       ....       0.883 sec  ( 68.4%)
  Split-RI-J                ....       0.580 sec  ( 65.7% of F)
  XC integration            ....       0.219 sec  ( 24.8% of F)
    Basis function eval.    ....       0.014 sec  (  6.4% of XC)
    Density eval.           ....       0.019 sec  (  8.7% of XC)
    XC-Functional eval.     ....       0.011 sec  (  5.0% of XC)
    XC-Potential eval.      ....       0.026 sec  ( 11.9% of XC)
Diagonalization             ....       0.011 sec  (  0.9%)
Density matrix formation    ....       0.002 sec  (  0.2%)
Population analysis         ....       0.003 sec  (  0.2%)
Initial guess               ....       0.007 sec  (  0.5%)
Orbital Transformation      ....       0.000 sec  (  0.0%)
Orbital Orthonormalization  ....       0.003 sec  (  0.3%)
DIIS solution               ....       0.004 sec  (  0.3%)
Grid generation             ....       0.269 sec  ( 20.8%)


-------------------------------------------------------------------------------
                          DFT DISPERSION CORRECTION                            
                                                                               
                              DFTD3 V3.1  Rev 1                                
                          USING Becke-Johnson damping                          
-------------------------------------------------------------------------------
The TPSS functional is recognized
Active option DFTDOPT                   ...         4   

molecular C6(AA) [au] = 1270.972485 


            DFT-D V3
 parameters
 s6 scaling factor         :     1.0000 
 a1 scaling factor         :     0.4535 
 s8 scaling factor         :     1.9435 
 a2 scaling factor         :     4.4752 
 ad hoc parameters k1-k3   :    16.0000     1.3333    -4.0000 

 Edisp/kcal,au: -1.285137898733  -0.002047997385 
 E6   /kcal   :  -0.377543956 
 E8   /kcal   :  -0.907593943 
 % E8         :  70.622300051 

-------------------------   ----------------
Dispersion correction           -0.002047997
-------------------------   ----------------


-------------------------   --------------------
FINAL SINGLE POINT ENERGY      -271.432216822688
-------------------------   --------------------

                                *** OPTIMIZATION RUN DONE ***

                            ***************************************
                            *     ORCA property calculations      *
                            ***************************************

                                    ---------------------
                                    Active property flags
                                    ---------------------
   (+) Dipole Moment


------------------------------------------------------------------------------
                       ORCA ELECTRIC PROPERTIES CALCULATION
------------------------------------------------------------------------------

Dipole Moment Calculation                       ... on
Quadrupole Moment Calculation                   ... off
Polarizability Calculation                      ... off
GBWName                                         ... Au02N0.gbw
Electron density file                           ... Au02N0.scfp
The origin for moment calculation is the CENTER OF MASS  = ( 0.000000,  0.000000  0.000000)

-------------
DIPOLE MOMENT
-------------
                                X             Y             Z
Electronic contribution:      0.00000      -0.00000      -0.00000
Nuclear contribution   :      0.00000       0.00000       0.00000
                        -----------------------------------------
Total Dipole Moment    :      0.00000      -0.00000      -0.00000
                        -----------------------------------------
Magnitude (a.u.)       :      0.00000
Magnitude (Debye)      :      0.00000



--------------------
Rotational spectrum 
--------------------
 
Rotational constants in cm-1:     0.000000     0.027081     0.027081 
Rotational constants in MHz :     0.000000   811.876062   811.876062 

 Dipole components along the rotational axes: 
x,y,z [a.u.] :    -0.000000    -0.000000     0.000000 
x,y,z [Debye]:    -0.000000    -0.000000     0.000000 

 

----------------------------------------------------------------------------
                           ORCA NUMERICAL FREQUENCIES
                              (24-process run)
----------------------------------------------------------------------------

Number of atoms                ... 2
Central differences            ... used
Number of displacements        ... 12
Numerical increment            ... 5.000e-03 bohr
IR-spectrum generation         ... on
Raman-spectrum generation      ... off
Surface Crossing Hessian       ... off

 WARNING: There are more processes than displacements to do
  ====> : Reducing number of processes to   6

The output will be reduced. Please look at the following files:
SCF program output             ... >Au02N0.lastscf
Integral program output        ... >Au02N0.lastint
Gradient program output        ... >Au02N0.lastgrad
Dipole moment program output   ... >Au02N0.lastmom
AutoCI program output          ... >Au02N0.lastautoci


         <<< Energy and Gradient at the input geometry >>>

        <<< Energy and Gradient at displaced geometries >>>
             <<<Displacing   2/coordinate 3 (+)>>>
             <<<Displacing   1/coordinate 2 (+)>>>
             <<<Displacing   1/coordinate 1 (+)>>>
             <<<Displacing   2/coordinate 2 (+)>>>
             <<<Displacing   1/coordinate 3 (+)>>>
             <<<Displacing   2/coordinate 1 (+)>>>
             <<<Displacing   1/coordinate 2 (-)>>>
             <<<Displacing   2/coordinate 2 (-)>>>
             <<<Displacing   2/coordinate 1 (-)>>>
             <<<Displacing   1/coordinate 1 (-)>>>
             <<<Displacing   1/coordinate 3 (-)>>>
             <<<Displacing   2/coordinate 3 (-)>>>
Warning: T+R mode no 5 is zero 

-----------------------
VIBRATIONAL FREQUENCIES
-----------------------

Scaling factor for frequencies =  1.000000000 (already applied!)

   0:         0.00 cm**-1
   1:         0.00 cm**-1
   2:         0.00 cm**-1
   3:         0.00 cm**-1
   4:         0.00 cm**-1
   5:       176.25 cm**-1


------------
NORMAL MODES
------------

These modes are the cartesian displacements weighted by the diagonal matrix
M(i,i)=1/sqrt(m[i]) where m[i] is the mass of the displaced atom
Thus, these vectors are normalized but *not* orthogonal

                  0          1          2          3          4          5    
      0       0.000000   0.000000   0.000000   0.000000   0.000000   0.000000
      1       0.000000   0.000000   0.000000   0.000000   0.000000   0.000000
      2       0.000000   0.000000   0.000000   0.000000   0.000000   0.707107
      3       0.000000   0.000000   0.000000   0.000000   0.000000   0.000000
      4       0.000000   0.000000   0.000000   0.000000   0.000000   0.000000
      5       0.000000   0.000000   0.000000   0.000000   0.000000  -0.707107


-----------
IR SPECTRUM  
-----------

 Mode    freq (cm**-1)   T**2         TX         TY         TZ
-------------------------------------------------------------------
   5:       176.25    0.000000  (  0.000003   0.000004   0.000042)

The first frequency considered to be a vibration is 5
The total number of vibrations considered is 1


--------------------------
THERMOCHEMISTRY AT 298.15K
--------------------------

Temperature         ... 298.15 K
Pressure            ... 1.00 atm
Total Mass          ... 393.93 AMU
The molecule is recognized as being linear

Throughout the following assumptions are being made:
  (1) The electronic state is orbitally nondegenerate
  (2) There are no thermally accessible electronically excited states
  (3) Hindered rotations indicated by low frequency modes are not
      treated as such but are treated as vibrations and this may
      cause some error
  (4) All equations used are the standard statistical mechanics
      equations for an ideal gas
  (5) All vibrations are strictly harmonic

freq.     176.25  E(vib)   ...       0.38 

------------
INNER ENERGY
------------

The inner energy is: U= E(el) + E(ZPE) + E(vib) + E(rot) + E(trans)
    E(el)   - is the total energy from the electronic structure calculation
              = E(kin-el) + E(nuc-el) + E(el-el) + E(nuc-nuc)
    E(ZPE)  - the the zero temperature vibrational energy from the frequency calculation
    E(vib)  - the the finite temperature correction to E(ZPE) due to population
              of excited vibrational states
    E(rot)  - is the rotational thermal energy
    E(trans)- is the translational thermal energy

Summary of contributions to the inner energy U:
Electronic energy                ...   -271.43221682 Eh
Zero point energy                ...      0.00040152 Eh       0.25 kcal/mol
Thermal vibrational correction   ...      0.00059893 Eh       0.38 kcal/mol
Thermal rotational correction    ...      0.00094418 Eh       0.59 kcal/mol
Thermal translational correction ...      0.00141627 Eh       0.89 kcal/mol
-----------------------------------------------------------------------
Total thermal energy                   -271.42885592 Eh


Summary of corrections to the electronic energy:
(perhaps to be used in another calculation)
Total thermal correction                  0.00295938 Eh       1.86 kcal/mol
Non-thermal (ZPE) correction              0.00040152 Eh       0.25 kcal/mol
-----------------------------------------------------------------------
Total correction                          0.00336090 Eh       2.11 kcal/mol


--------
ENTHALPY
--------

The enthalpy is H = U + kB*T
                kB is Boltzmann's constant
Total free energy                 ...   -271.42885592 Eh 
Thermal Enthalpy correction       ...      0.00094421 Eh       0.59 kcal/mol
-----------------------------------------------------------------------
Total Enthalpy                    ...   -271.42791171 Eh


Note: Rotational entropy computed according to Herzberg 
Infrared and Raman Spectra, Chapter V,1, Van Nostrand Reinhold, 1945 
Point Group:  Dinfh, Symmetry Number:   2  
Rotational constants in cm-1:     0.000000     0.027081     0.027081 

Vibrational entropy computed according to the QRRHO of S. Grimme
Chem.Eur.J. 2012 18 9955


-------
ENTROPY
-------

The entropy contributions are T*S = T*(S(el)+S(vib)+S(rot)+S(trans))
     S(el)   - electronic entropy
     S(vib)  - vibrational entropy
     S(rot)  - rotational entropy
     S(trans)- translational entropy
The entropies will be listed as mutliplied by the temperature to get
units of energy

Electronic entropy                ...      0.00000000 Eh      0.00 kcal/mol
Vibrational entropy               ...      0.00112166 Eh      0.70 kcal/mol
Rotational entropy                ...      0.00873327 Eh      5.48 kcal/mol
Translational entropy             ...      0.02081297 Eh     13.06 kcal/mol
-----------------------------------------------------------------------
Final entropy term                ...      0.03066789 Eh     19.24 kcal/mol

In case the symmetry of your molecule has not been determined correctly
or in case you have a reason to use a different symmetry number we print 
out the resulting rotational entropy values for sn=1,12 :
 --------------------------------------------------------
|  sn= 1 | S(rot)=             -inf Eh      -inf kcal/mol|
|  sn= 2 | S(rot)=             -inf Eh      -inf kcal/mol|
|  sn= 3 | S(rot)=             -inf Eh      -inf kcal/mol|
|  sn= 4 | S(rot)=             -inf Eh      -inf kcal/mol|
|  sn= 5 | S(rot)=             -inf Eh      -inf kcal/mol|
|  sn= 6 | S(rot)=             -inf Eh      -inf kcal/mol|
|  sn= 7 | S(rot)=             -inf Eh      -inf kcal/mol|
|  sn= 8 | S(rot)=             -inf Eh      -inf kcal/mol|
|  sn= 9 | S(rot)=             -inf Eh      -inf kcal/mol|
|  sn=10 | S(rot)=             -inf Eh      -inf kcal/mol|
|  sn=11 | S(rot)=             -inf Eh      -inf kcal/mol|
|  sn=12 | S(rot)=             -inf Eh      -inf kcal/mol|
 --------------------------------------------------------


-------------------
GIBBS FREE ENERGY
-------------------

The Gibbs free energy is G = H - T*S

Total enthalpy                    ...   -271.42791171 Eh 
Total entropy correction          ...     -0.03066789 Eh    -19.24 kcal/mol
-----------------------------------------------------------------------
Final Gibbs free energy         ...   -271.45857961 Eh

For completeness - the Gibbs free energy minus the electronic energy
G-E(el)                           ...     -0.02636278 Eh    -16.54 kcal/mol


Total Time for Numerical Frequencies  :        16.297 sec

Timings for individual modules:

Sum of individual times         ...       24.906 sec (=   0.415 min)
GTO integral calculation        ...        4.734 sec (=   0.079 min)  19.0 %
SCF iterations                  ...       13.945 sec (=   0.232 min)  56.0 %
SCF Gradient evaluation         ...        6.063 sec (=   0.101 min)  24.3 %
Geometry relaxation             ...        0.164 sec (=   0.003 min)   0.7 %
                             ****ORCA TERMINATED NORMALLY****
TOTAL RUN TIME: 0 days 0 hours 0 minutes 39 seconds 389 msec
