
                                 *****************
                                 * O   R   C   A *
                                 *****************

           --- An Ab Initio, DFT and Semiempirical electronic structure package ---

                  #######################################################
                  #                        -***-                        #
                  #          Department of theory and spectroscopy      #
                  #               Directorship: Frank Neese             #
                  #        Max Planck Institute fuer Kohlenforschung    #
                  #                Kaiser Wilhelm Platz 1               #
                  #                 D-45470 Muelheim/Ruhr               #
                  #                      Germany                        #
                  #                                                     #
                  #                  All rights reserved                #
                  #                        -***-                        #
                  #######################################################


                         Program Version 4.2.0 -  RELEASE  -


 With contributions from (in alphabetic order):
   Daniel Aravena         : Magnetic Suceptibility
   Michael Atanasov       : Ab Initio Ligand Field Theory (pilot matlab implementation)
   Alexander A. Auer      : GIAO ZORA, VPT2
   Ute Becker             : Parallelization
   Giovanni Bistoni       : ED, misc. LED, open-shell LED, HFLED
   Martin Brehm           : Molecular dynamics
   Dmytro Bykov           : SCF Hessian
   Vijay G. Chilkuri      : MRCI spin determinant printing, contributions to CSF-ICE
   Dipayan Datta          : RHF DLPNO-CCSD density
   Achintya Kumar Dutta   : EOM-CC, STEOM-CC
   Dmitry Ganyushin       : Spin-Orbit,Spin-Spin,Magnetic field MRCI
   Miquel Garcia          : C-PCM Hessian, Gaussian charge scheme
   Yang Guo               : DLPNO-NEVPT2, CIM, IAO-localization
   Andreas Hansen         : Spin unrestricted coupled pair/coupled cluster methods
   Benjamin Helmich-Paris : CASSCF linear response (MC-RPA)
   Lee Huntington         : MR-EOM, pCC
   Robert Izsak           : Overlap fitted RIJCOSX, COSX-SCS-MP3, EOM
   Christian Kollmar      : KDIIS, OOCD, Brueckner-CCSD(T), CCSD density
   Simone Kossmann        : Meta GGA functionals, TD-DFT gradient, OOMP2, MP2 Hessian
   Martin Krupicka        : AUTO-CI
   Lucas Lang             : DCDCAS
   Dagmar Lenk            : GEPOL surface, SMD
   Dimitrios Liakos       : Extrapolation schemes; Compound Job, initial MDCI parallelization
   Dimitrios Manganas     : Further ROCIS development; embedding schemes
   Dimitrios Pantazis     : SARC Basis sets
   Taras Petrenko         : DFT Hessian,TD-DFT gradient, ASA, ECA, R-Raman, ABS, FL, XAS/XES, NRVS
   Peter Pinski           : DLPNO-MP2, DLPNO-MP2 Gradient
   Christoph Reimann      : Effective Core Potentials
   Marius Retegan         : Local ZFS, SOC
   Christoph Riplinger    : Optimizer, TS searches, QM/MM, DLPNO-CCSD(T), (RO)-DLPNO pert. Triples
   Tobias Risthaus        : Range-separated hybrids, TD-DFT gradient, RPA, STAB
   Michael Roemelt        : Original ROCIS implementation
   Masaaki Saitow         : Open-shell DLPNO-CCSD energy and density
   Barbara Sandhoefer     : DKH picture change effects
   Avijit Sen             : IP-ROCIS
   Kantharuban Sivalingam : CASSCF convergence, NEVPT2, FIC-MRCI
   Bernardo de Souza      : ESD, SOC TD-DFT
   Georgi Stoychev        : AutoAux, RI-MP2 NMR
   Willem Van den Heuvel  : Paramagnetic NMR
   Boris Wezisla          : Elementary symmetry handling
   Frank Wennmohs         : Technical directorship


 We gratefully acknowledge several colleagues who have allowed us to
 interface, adapt or use parts of their codes:
   Stefan Grimme, W. Hujo, H. Kruse,             : VdW corrections, initial TS optimization,
                  C. Bannwarth                     DFT functionals, gCP, sTDA/sTD-DF
   Ed Valeev, F. Pavosevic, A. Kumar             : LibInt (2-el integral package), F12 methods
   Garnet Chan, S. Sharma, J. Yang, R. Olivares  : DMRG
   Ulf Ekstrom                                   : XCFun DFT Library
   Mihaly Kallay                                 : mrcc  (arbitrary order and MRCC methods)
   Andreas Klamt, Michael Diedenhofen            : otool_cosmo (COSMO solvation model)
   Jiri Pittner, Ondrej Demel                    : Mk-CCSD
   Frank Weinhold                                : gennbo (NPA and NBO analysis)
   Christopher J. Cramer and Donald G. Truhlar   : smd solvation model
   Lars Goerigk                                  : TD-DFT with DH, B97 family of functionals
   V. Asgeirsson, H. Jonsson                     : NEB implementation
   FAccTs GmbH                                   : IRC, NEB, NEB-TS, Multilevel, MM, QM/MM, CI optimization
   S Lehtola, MJT Oliveira, MAL Marques          : LibXC Library


 Your calculation uses the libint2 library for the computation of 2-el integrals
 For citations please refer to: http://libint.valeyev.net

 Your ORCA version has been built with support for libXC version: 4.2.3
 For citations please refer to: https://tddft.org/programs/libxc/

 This ORCA versions uses:
   CBLAS   interface :  Fast vector & matrix operations
   LAPACKE interface :  Fast linear algebra routines
   SCALAPACK package :  Parallel linear algebra routines


Your calculation utilizes the atom-pairwise dispersion correction
with the Becke-Johnson damping scheme (D3BJ)
Cite in your paper:
S.Grimme, S.Ehrlich, L.Goerigk, J Comput Chem, (2011), 32, 1456–1465 
S.Grimme, J.Antony, S.Ehrlich and H.Krieg, J.Chem.Phys., 132, (2010), 154104 
   

----- Orbital basis set information -----
Your calculation utilizes the basis: def2-TZVPPD
   F. Weigend and R. Ahlrichs, Phys. Chem. Chem. Phys. 7, 3297 (2005).
   D. Rappoport and F. Furche, J. Chem. Phys. 133 134105 (2010).

----- AuxJ basis set information -----
Your calculation utilizes the auxiliary basis: def2/J
   F. Weigend, Phys. Chem. Chem. Phys. 8, 1057 (2006).

cite the ECPs for Au [Def2-ECP] as follows:
Ce-Yb(ecp-28): M. Dolg, H. Stoll, H.Preuss, J. Chem. Phys., 1989, 90, 1730-1734.
Y-Cd(ecp-28), Hf-Hg(ecp-46): D. Andrae,U. Haeussermann, M. Dolg, H. Stoll, H. Preuss, Theor. Chim. Acta, 1990, 77, 123-141.
In-Sb(ecp-28), Tl-Bi(ecp-46): B. Metz, H. Stoll, M. Dolg, J. Chem. Phys., 2000, 113, 2563-2569.
Te-Xe(ecp-28), Po-Rn(ecp-46): K. A. Peterson, D. Figgen, E. Goll, H. Stoll, M. Dolg, J. Chem. Phys., 2003, 119, 11113-11123.
Rb(ecp-28), Cs(ecp-46): T. Leininger, A. Nicklass, W. Kuechle, H. Stoll, M. Dolg, A. Bergner, Chem. Phys. Lett., 1996, 255, 274-280.
Sr(ecp-28), Ba(ecp-46): M. Kaupp, P. V. Schleyer, H. Stoll and H. Preuss, J. Chem. Phys., 1991, 94, 1360-1366.
La(ecp-46): M. Dolg, H. Stoll, A. Savin, H. Preuss, Theor. Chim. Acta, 1989, 75, 173-194.
Lu(ecp-28): X. Cao, M. Dolg, J. Chem. Phys., 2001, 115, 7348-7355.

ECP parameters for Au [Def2-ECP] have been obtained from:
TURBOMOLE (7.0.2)

================================================================================
                                        WARNINGS
                       Please study these warnings very carefully!
================================================================================


WARNING: Geometry Optimization
  ===> : Switching off AutoStart
         For restart on a previous wavefunction, please use MOREAD

INFO   : the flag for use of LIBINT has been found!

================================================================================
                                       INPUT FILE
================================================================================
NAME = Au03C1_LIN.in
|  1> #
|  2> # Au03C1_LIN TPSS-D3BJ/Def2-TZVPPD
|  3> #
|  4> ! tpss d3bj def2-tzvppd def2/j grid4 nofinalgrid opt xyzfile numfreq
|  5> 
|  6> *xyz 1 1
|  7> Au       0.000000    0.000000    0.000000 
|  8> Au       0.000000    0.000000    2.576864 
|  9> Au       0.000000    0.000000   -2.576864 
| 10> *
| 11> 
| 12> %maxcore 5000
| 13> 
| 14> %pal
| 15> nprocs = 24
| 16> end
| 17> 
| 18> 
| 19>                          ****END OF INPUT****
================================================================================

                       *****************************
                       * Geometry Optimization Run *
                       *****************************

Geometry optimization settings:
Update method            Update   .... BFGS
Choice of coordinates    CoordSys .... Z-matrix Internals
Initial Hessian          InHess   .... Almoef's Model

Convergence Tolerances:
Energy Change            TolE     ....  5.0000e-06 Eh
Max. Gradient            TolMAXG  ....  3.0000e-04 Eh/bohr
RMS Gradient             TolRMSG  ....  1.0000e-04 Eh/bohr
Max. Displacement        TolMAXD  ....  4.0000e-03 bohr
RMS Displacement         TolRMSD  ....  2.0000e-03 bohr
Strict Convergence                ....  False
------------------------------------------------------------------------------
                        ORCA OPTIMIZATION COORDINATE SETUP
------------------------------------------------------------------------------

The optimization will be done in new redundant internal coordinates
Making redundant internal coordinates   ...  (new redundants) done
Evaluating the initial hessian          ...  (Almloef) done
Evaluating the coordinates              ...  done
Calculating the B-matrix                .... done
Calculating the G-matrix                .... done
Diagonalizing the G-matrix              .... done
The first mode is                       ....    0
The number of degrees of freedom        ....    4

    -----------------------------------------------------------------
                    Redundant Internal Coordinates


    -----------------------------------------------------------------
         Definition                    Initial Value    Approx d2E/dq
    -----------------------------------------------------------------
      1. B(Au  1,Au  0)                  2.5769         0.015465   
      2. B(Au  2,Au  0)                  2.5769         0.015465   
      3. L(Au  1,Au  0,Au  2, 2)       180.0000         0.160215   
      4. L(Au  1,Au  0,Au  2, 1)       180.0000         0.160215   
    -----------------------------------------------------------------

Number of atoms                         .... 3
Number of degrees of freedom            .... 4

         *************************************************************
         *                GEOMETRY OPTIMIZATION CYCLE   1            *
         *************************************************************
---------------------------------
CARTESIAN COORDINATES (ANGSTROEM)
---------------------------------
  Au     0.000000    0.000000    0.000000
  Au     0.000000    0.000000    2.576864
  Au     0.000000    0.000000   -2.576864

----------------------------
CARTESIAN COORDINATES (A.U.)
----------------------------
  NO LB      ZA    FRAG     MASS         X           Y           Z
   0 Au   19.0000*   0   196.966    0.000000    0.000000    0.000000
   1 Au   19.0000*   0   196.966    0.000000    0.000000    4.869567
   2 Au   19.0000*   0   196.966    0.000000    0.000000   -4.869567
* core charge reduced due to ECP

--------------------------------
INTERNAL COORDINATES (ANGSTROEM)
--------------------------------
 Au     0   0   0     0.000000000000     0.00000000     0.00000000
 Au     1   0   0     2.576864000000     0.00000000     0.00000000
 Au     1   2   0     2.576864000000   179.99999915     0.00000000

---------------------------
INTERNAL COORDINATES (A.U.)
---------------------------
 Au     0   0   0     0.000000000000     0.00000000     0.00000000
 Au     1   0   0     4.869567244361     0.00000000     0.00000000
 Au     1   2   0     4.869567244361   179.99999915     0.00000000

---------------------
BASIS SET INFORMATION
---------------------
There are 1 groups of distinct atoms

 Group   1 Type Au  : 8s8p6d2f1g contracted to 6s5p3d2f1g pattern {311111/41111/411/11/1}

Atom   0Au   basis set group =>   1
Atom   1Au   basis set group =>   1
Atom   2Au   basis set group =>   1
---------------------------------
AUXILIARY/J BASIS SET INFORMATION
---------------------------------
There are 1 groups of distinct atoms

 Group   1 Type Au  : 11s5p5d3f3g contracted to 8s5p5d2f3g pattern {41111111/11111/11111/21/111}

Atom   0Au   basis set group =>   1
Atom   1Au   basis set group =>   1
Atom   2Au   basis set group =>   1
-------------------------
ECP PARAMETER INFORMATION
-------------------------

 Group 1, Type Au ECP Def2-ECP (replacing 60 core electrons, lmax=3)

Atom   0Au   ECP group =>   1
Atom   1Au   ECP group =>   1
Atom   2Au   ECP group =>   1



           ************************************************************
           *        Program running with 24 parallel MPI-processes    *
           *              working on a common directory               *
           ************************************************************
------------------------------------------------------------------------------
                           ORCA GTO INTEGRAL CALCULATION
                           -- RI-GTO INTEGRALS CHOSEN --
------------------------------------------------------------------------------

                         BASIS SET STATISTICS AND STARTUP INFO

Gaussian basis set:
 # of primitive gaussian shells          ...   75
 # of primitive gaussian functions       ...  255
 # of contracted shells                  ...   51
 # of contracted basis functions         ...  177
 Highest angular momentum                ...    4
 Maximum contraction depth               ...    4
Auxiliary gaussian basis set:
 # of primitive gaussian shells          ...   81
 # of primitive gaussian functions       ...  297
 # of contracted shells                  ...   69
 # of contracted aux-basis functions     ...  267
 Highest angular momentum                ...    4
 Maximum contraction depth               ...    4
Ratio of auxiliary to basis functions    ...  1.51
Integral package used                  ... LIBINT
 One Electron integrals                  
   ECP integrals                         ... done
 Ordering auxiliary basis shells         ... done
 Integral threshhold             Thresh  ...  2.500e-11
 Primitive cut-off               TCut    ...  2.500e-12
 Pre-screening matrix                    ... done
 Shell pair data                         ... 
 Ordering of the shell pairs             ... done (   0.000 sec) 1213 of 1326 pairs
 Determination of significant pairs      ... done (   0.000 sec)
 Creation of shell pair data             ... done (   0.000 sec)
 Storage of shell pair data              ... done (   0.009 sec)
 Shell pair data done in (   0.010 sec)
 Computing two index integrals           ... done
 Cholesky decomposition of the V-matrix  ... done


Timings:
 Total evaluation time                   ...   0.530 sec (  0.009 min)
 One electron matrix time                ...   0.353 sec (  0.006 min) = 66.5%
 Schwartz matrix evaluation time         ...   0.137 sec (  0.002 min) = 25.8%
 Two index repulsion integral time       ...   0.001 sec (  0.000 min) =  0.2%
 Cholesky decomposition of V             ...   0.001 sec (  0.000 min) =  0.3%
 Three index repulsion integral time     ...   0.000 sec (  0.000 min) =  0.0%



           ************************************************************
           *        Program running with 24 parallel MPI-processes    *
           *              working on a common directory               *
           ************************************************************
-------------------------------------------------------------------------------
                                 ORCA SCF
-------------------------------------------------------------------------------

------------
SCF SETTINGS
------------
Hamiltonian:
 Density Functional     Method          .... DFT(GTOs)
 Exchange Functional    Exchange        .... TPSS
 Correlation Functional Correlation     .... TPSS
 LDA part of GGA corr.  LDAOpt          .... PW91-LDA
 Gradients option       PostSCFGGA      .... off
   Density functional embedding theory  .... OFF
   NL short-range parameter             ....  5.000000
 RI-approximation to the Coulomb term is turned on
   Number of auxiliary basis functions  .... 267


General Settings:
 Integral files         IntName         .... Au03C1_LIN
 Hartree-Fock type      HFTyp           .... RHF
 Total Charge           Charge          ....    1
 Multiplicity           Mult            ....    1
 Number of Electrons    NEL             ....   56
 Basis Dimension        Dim             ....  177
 Nuclear Repulsion      ENuc            ....    185.3347442825 Eh

Convergence Acceleration:
 DIIS                   CNVDIIS         .... on
   Start iteration      DIISMaxIt       ....    12
   Startup error        DIISStart       ....  0.200000
   # of expansion vecs  DIISMaxEq       ....     5
   Bias factor          DIISBfac        ....   1.050
   Max. coefficient     DIISMaxC        ....  10.000
 Newton-Raphson         CNVNR           .... off
 SOSCF                  CNVSOSCF        .... off
 Level Shifting         CNVShift        .... on
   Level shift para.    LevelShift      ....    0.2500
   Turn off err/grad.   ShiftErr        ....    0.0010
 Zerner damping         CNVZerner       .... off
 Static damping         CNVDamp         .... on
   Fraction old density DampFac         ....    0.7000
   Max. Damping (<1)    DampMax         ....    0.9800
   Min. Damping (>=0)   DampMin         ....    0.0000
   Turn off err/grad.   DampErr         ....    0.1000
 Fernandez-Rico         CNVRico         .... off

SCF Procedure:
 Maximum # iterations   MaxIter         ....   125
 SCF integral mode      SCFMode         .... Direct
   Integral package                     .... LIBINT
 Reset frequency        DirectResetFreq ....    20
 Integral Threshold     Thresh          ....  2.500e-11 Eh
 Primitive CutOff       TCut            ....  2.500e-12 Eh

Convergence Tolerance:
 Convergence Check Mode ConvCheckMode   .... Total+1el-Energy
 Convergence forced     ConvForced      .... 0
 Energy Change          TolE            ....  1.000e-08 Eh
 1-El. energy change                    ....  1.000e-05 Eh
 DIIS Error             TolErr          ....  5.000e-07


Diagonalization of the overlap matrix:
Smallest eigenvalue                        ... 7.965e-04
Time for diagonalization                   ...    0.007 sec
Threshold for overlap eigenvalues          ... 1.000e-08
Number of eigenvalues below threshold      ... 0
Time for construction of square roots      ...    0.004 sec
Total time needed                          ...    0.010 sec

-------------------
DFT GRID GENERATION
-------------------

General Integration Accuracy     IntAcc      ...  4.670
Radial Grid Type                 RadialGrid  ... Gauss-Chebyshev
Angular Grid (max. acc.)         AngularGrid ... Lebedev-302
Angular grid pruning method      GridPruning ... 3 (G Style)
Weight generation scheme         WeightScheme... Becke
Basis function cutoff            BFCut       ...    1.0000e-11
Integration weight cutoff        WCut        ...    1.0000e-14
Grids for H and He will be reduced by one unit

# of grid points (after initial pruning)     ...  34956 (   0.0 sec)
# of grid points (after weights+screening)   ...  34728 (   0.0 sec)
nearest neighbour list constructed           ...    0.0 sec
Grid point re-assignment to atoms done       ...    0.0 sec
Grid point division into batches done        ...    0.3 sec
Reduced shell lists constructed in    0.3 sec

Total number of grid points                  ...    34728
Total number of batches                      ...      545
Average number of points per batch           ...       63
Average number of grid points per atom       ...    11576
Average number of shells per batch           ...    14.46 (28.35%)
Average number of basis functions per batch  ...    44.38 (25.07%)
Average number of large shells per batch     ...    10.50 (72.62%)
Average number of large basis fcns per batch ...    29.00 (65.35%)
Maximum spatial batch extension              ...  37.74, 37.74,  4.83 au
Average spatial batch extension              ...   0.54,  0.53,  0.19 au

Time for grid setup =    0.364 sec

------------------------------
INITIAL GUESS: MODEL POTENTIAL
------------------------------
Loading Hartree-Fock densities                     ... done
  calling /sw/apps/orca/orca_4_2_0_linux_x86-64_openmpi314/orca Au03C1_LIN_atom79.inp > Au03C1_LIN_atom79.out in order to generate an atomic fitting density for atom 0 (Au with ECP) on-the-fly... 
    atom 0 (Au), assumed electronic state with S=2: 1s2 2s2 2p6 3s2 3p6 4s2 3d10 4p6 5s2 4d10 5p6 6s1 4f14 5d10           ... done
Calculating cut-offs                               ... done
Setting up the integral package                    ... done
Initializing the effective Hamiltonian             ... done
Starting the Coulomb interaction                   ... done (   0.0 sec)
Reading the grid                                   ... done
Mapping shells                                     ... done
Starting the XC term evaluation                    ... done (   0.0 sec)
  promolecular density results
     # of electrons  =    237.007918993
     EX              =  -1097.384624364
     EC              =    -14.468152371
     EX+EC           =  -1111.852776735
Transforming the Hamiltonian                       ... done (   0.0 sec)
Diagonalizing the Hamiltonian                      ... done (   0.0 sec)
Back transforming the eigenvectors                 ... done (   0.0 sec)
Now organizing SCF variables                       ... done
                      ------------------
                      INITIAL GUESS DONE (   1.4 sec)
                      ------------------
--------------
SCF ITERATIONS
--------------
ITER       Energy         Delta-E        Max-DP      RMS-DP      [F,P]     Damp
               ***  Starting incremental Fock matrix formation  ***
  0   -406.5752129758   0.000000000000 0.27866487  0.00354377  0.5955875 0.7000
  1   -406.6830307681  -0.107817792302 0.17666327  0.00230754  0.4100125 0.7000
  2   -406.7267656952  -0.043734927068 0.10129755  0.00131937  0.2815063 0.7000
                               ***Turning on DIIS***
  3   -406.7569696280  -0.030203932864 0.06414346  0.00084857  0.1944475 0.7000
  4   -406.7793184856  -0.022348857591 0.04962183  0.00059636  0.1349942 0.7000
  5   -406.7949386245  -0.015620138837 0.11122052  0.00143731  0.0947220 0.0000
  6   -406.8312888278  -0.036350203392 0.00484828  0.00009390  0.0019634 0.0000
  7   -406.8313463201  -0.000057492262 0.00302154  0.00006030  0.0015044 0.0000
  8   -406.8313734318  -0.000027111722 0.00235774  0.00004590  0.0010428 0.0000
  9   -406.8313883797  -0.000014947882 0.00634895  0.00011518  0.0008856 0.0000
 10   -406.8314030183  -0.000014638569 0.00126876  0.00001865  0.0004771 0.0000
 11   -406.8314048966  -0.000001878319 0.00013357  0.00000355  0.0000586 0.0000
 12   -406.8314049082  -0.000000011649 0.00009635  0.00000186  0.0000556 0.0000
 13   -406.8314049219  -0.000000013702 0.00034723  0.00000722  0.0000156 0.0000
 14   -406.8314049010   0.000000020986 0.00031692  0.00000661  0.0000660 0.0000
 15   -406.8314049238  -0.000000022829 0.00002156  0.00000045  0.0000027 0.0000
                 **** Energy Check signals convergence ****

               *****************************************************
               *                     SUCCESS                       *
               *           SCF CONVERGED AFTER  16 CYCLES          *
               *****************************************************


----------------
TOTAL SCF ENERGY
----------------

Total Energy       :         -406.83140492 Eh          -11070.44534 eV

Components:
Nuclear Repulsion  :          185.33474428 Eh            5043.21478 eV
Electronic Energy  :         -592.16614921 Eh          -16113.66012 eV
One Electron Energy:        -1074.83032371 Eh          -29247.62003 eV
Two Electron Energy:          482.66417450 Eh           13133.95991 eV

Virial components:
Potential Energy   :         -544.45592098 Eh          -14815.39881 eV
Kinetic Energy     :          137.62451606 Eh            3744.95347 eV
Virial Ratio       :            3.95609690


DFT components:
N(Alpha)           :       27.999992349717 electrons
N(Beta)            :       27.999992349717 electrons
N(Total)           :       55.999984699434 electrons
E(X)               :      -35.786443016958 Eh       
E(C)               :       -2.395978392381 Eh       
E(XC)              :      -38.182421409339 Eh       
DFET-embed. en.    :        0.000000000000 Eh       

---------------
SCF CONVERGENCE
---------------

  Last Energy change         ...    4.1820e-10  Tolerance :   1.0000e-08
  Last MAX-Density change    ...    7.4319e-06  Tolerance :   1.0000e-07
  Last RMS-Density change    ...    1.5785e-07  Tolerance :   5.0000e-09
  Last DIIS Error            ...    2.1597e-06  Tolerance :   5.0000e-07

             **** THE GBW FILE WAS UPDATED (Au03C1_LIN.gbw) ****
             **** DENSITY FILE WAS UPDATED (Au03C1_LIN.scfp) ****
             **** ENERGY FILE WAS UPDATED (Au03C1_LIN.en.tmp) ****
             **** THE GBW FILE WAS UPDATED (Au03C1_LIN.gbw) ****
             **** DENSITY FILE WAS UPDATED (Au03C1_LIN.scfp) ****
----------------
ORBITAL ENERGIES
----------------

  NO   OCC          E(Eh)            E(eV) 
   0   2.0000      -4.221497      -114.8728 
   1   2.0000      -4.221495      -114.8727 
   2   2.0000      -4.187987      -113.9609 
   3   2.0000      -2.436749       -66.3073 
   4   2.0000      -2.435770       -66.2807 
   5   2.0000      -2.429306       -66.1048 
   6   2.0000      -2.429306       -66.1048 
   7   2.0000      -2.429299       -66.1046 
   8   2.0000      -2.429299       -66.1046 
   9   2.0000      -2.406090       -65.4730 
  10   2.0000      -2.390865       -65.0587 
  11   2.0000      -2.390865       -65.0587 
  12   2.0000      -0.546649       -14.8751 
  13   2.0000      -0.494382       -13.4528 
  14   2.0000      -0.494382       -13.4528 
  15   2.0000      -0.480553       -13.0765 
  16   2.0000      -0.472890       -12.8680 
  17   2.0000      -0.472890       -12.8680 
  18   2.0000      -0.464687       -12.6448 
  19   2.0000      -0.464674       -12.6444 
  20   2.0000      -0.463608       -12.6154 
  21   2.0000      -0.463595       -12.6151 
  22   2.0000      -0.433890       -11.8068 
  23   2.0000      -0.421133       -11.4596 
  24   2.0000      -0.421115       -11.4591 
  25   2.0000      -0.416078       -11.3221 
  26   2.0000      -0.416078       -11.3221 
  27   2.0000      -0.404255       -11.0003 
  28   0.0000      -0.403362       -10.9760 
  29   0.0000      -0.292968        -7.9721 
  30   0.0000      -0.206375        -5.6157 
  31   0.0000      -0.206375        -5.6157 
  32   0.0000      -0.188151        -5.1199 
  33   0.0000      -0.161047        -4.3823 
  34   0.0000      -0.161047        -4.3823 
  35   0.0000      -0.087984        -2.3942 
  36   0.0000      -0.087984        -2.3942 
  37   0.0000      -0.061949        -1.6857 
  38   0.0000      -0.034496        -0.9387 
  39   0.0000      -0.029230        -0.7954 
  40   0.0000       0.014274         0.3884 
  41   0.0000       0.014274         0.3884 
  42   0.0000       0.019333         0.5261 
  43   0.0000       0.048882         1.3301 
  44   0.0000       0.048882         1.3302 
  45   0.0000       0.057796         1.5727 
  46   0.0000       0.092429         2.5151 
  47   0.0000       0.092429         2.5151 
  48   0.0000       0.093831         2.5533 
  49   0.0000       0.093836         2.5534 
  50   0.0000       0.113681         3.0934 
  51   0.0000       0.127540         3.4705 
  52   0.0000       0.127544         3.4706 
  53   0.0000       0.150932         4.1071 
  54   0.0000       0.150932         4.1071 
  55   0.0000       0.161706         4.4002 
  56   0.0000       0.213261         5.8031 
  57   0.0000       0.213268         5.8033 
  58   0.0000       0.219850         5.9824 
  59   0.0000       0.248317         6.7571 
  60   0.0000       0.248317         6.7571 
  61   0.0000       0.332984         9.0610 
  62   0.0000       0.367466         9.9993 
  63   0.0000       0.367466         9.9993 
  64   0.0000       0.402828        10.9615 
  65   0.0000       0.454463        12.3666 
  66   0.0000       0.613709        16.6999 
  67   0.0000       0.713187        19.4068 
  68   0.0000       0.713187        19.4068 
  69   0.0000       0.807448        21.9718 
  70   0.0000       0.816607        22.2210 
  71   0.0000       0.816609        22.2210 
  72   0.0000       0.828760        22.5517 
  73   0.0000       0.828760        22.5517 
  74   0.0000       0.845001        22.9936 
  75   0.0000       0.845001        22.9936 
  76   0.0000       0.880413        23.9572 
  77   0.0000       0.880413        23.9572 
  78   0.0000       0.882584        24.0163 
  79   0.0000       0.882584        24.0163 
  80   0.0000       0.892242        24.2791 
  81   0.0000       0.892244        24.2792 
  82   0.0000       0.895514        24.3682 
  83   0.0000       0.895514        24.3682 
  84   0.0000       0.929403        25.2903 
  85   0.0000       0.929403        25.2903 
  86   0.0000       0.953658        25.9503 
  87   0.0000       0.987096        26.8602 
  88   0.0000       0.987097        26.8603 
  89   0.0000       1.011447        27.5229 
  90   0.0000       1.011447        27.5229 
  91   0.0000       1.029430        28.0122 
  92   0.0000       1.155470        31.4419 
  93   0.0000       1.155470        31.4419 
  94   0.0000       1.200756        32.6742 
  95   0.0000       1.201454        32.6932 
  96   0.0000       1.201454        32.6932 
  97   0.0000       1.226835        33.3839 
  98   0.0000       1.231708        33.5165 
  99   0.0000       1.231734        33.5172 
 100   0.0000       1.243557        33.8389 
 101   0.0000       1.243586        33.8397 
 102   0.0000       1.284278        34.9470 
 103   0.0000       1.312649        35.7190 
 104   0.0000       1.312672        35.7196 
 105   0.0000       1.390143        37.8277 
 106   0.0000       1.390143        37.8277 
 107   0.0000       1.481458        40.3125 
 108   0.0000       1.481458        40.3125 
 109   0.0000       1.627050        44.2743 
 110   0.0000       1.790540        48.7231 
 111   0.0000       1.865609        50.7658 
 112   0.0000       2.137879        58.1746 
 113   0.0000       2.504181        68.1422 
 114   0.0000       3.208009        87.2944 
 115   0.0000       3.208009        87.2944 
 116   0.0000       3.245333        88.3100 
 117   0.0000       3.245551        88.3159 
 118   0.0000       3.300344        89.8069 
 119   0.0000       3.300344        89.8069 
 120   0.0000       3.302376        89.8622 
 121   0.0000       3.302376        89.8622 
 122   0.0000       3.307262        89.9952 
 123   0.0000       3.307458        90.0005 
 124   0.0000       3.345081        91.0243 
 125   0.0000       3.345081        91.0243 
 126   0.0000       3.371481        91.7427 
 127   0.0000       3.371481        91.7427 
 128   0.0000       3.406307        92.6903 
 129   0.0000       3.406574        92.6976 
 130   0.0000       3.433663        93.4347 
 131   0.0000       3.521022        95.8119 
 132   0.0000       3.608691        98.1975 
 133   0.0000       3.608691        98.1975 
 134   0.0000       3.720048       101.2276 
 135   0.0000       3.850789       104.7853 
 136   0.0000       3.850789       104.7853 
 137   0.0000       3.853014       104.8458 
 138   0.0000       3.853151       104.8496 
 139   0.0000       3.856069       104.9290 
 140   0.0000       3.856354       104.9367 
 141   0.0000       3.856354       104.9367 
 142   0.0000       3.856415       104.9384 
 143   0.0000       3.856415       104.9384 
 144   0.0000       3.856775       104.9482 
 145   0.0000       3.856904       104.9517 
 146   0.0000       3.858440       104.9935 
 147   0.0000       3.858441       104.9935 
 148   0.0000       3.859122       105.0120 
 149   0.0000       3.859122       105.0121 
 150   0.0000       3.895422       105.9998 
 151   0.0000       3.895622       106.0053 
 152   0.0000       3.899412       106.1084 
 153   0.0000       3.899412       106.1084 
 154   0.0000       3.909073       106.3713 
 155   0.0000       3.910033       106.3974 
 156   0.0000       3.921938       106.7214 
 157   0.0000       3.921938       106.7214 
 158   0.0000       3.952361       107.5492 
 159   0.0000       3.952361       107.5492 
 160   0.0000       4.143136       112.7405 
 161   0.0000       4.157244       113.1244 
 162   0.0000      26.936872       732.9895 
 163   0.0000      26.936872       732.9895 
 164   0.0000      27.244396       741.3577 
 165   0.0000      27.244396       741.3577 
 166   0.0000      27.478386       747.7249 
 167   0.0000      27.478386       747.7249 
 168   0.0000      27.806030       756.6406 
 169   0.0000      28.069871       763.8200 
 170   0.0000      30.773925       837.4011 
 171   0.0000      43.634654      1187.3593 
 172   0.0000      43.914198      1194.9661 
 173   0.0000      44.327450      1206.2112 
 174   0.0000     204.841285      5574.0147 
 175   0.0000     204.957548      5577.1784 
 176   0.0000     205.149960      5582.4142 

                    ********************************
                    * MULLIKEN POPULATION ANALYSIS *
                    ********************************

-----------------------
MULLIKEN ATOMIC CHARGES
-----------------------
   0 Au:   -0.014788
   1 Au:    0.507401
   2 Au:    0.507387
Sum of atomic charges:    1.0000000

--------------------------------
MULLIKEN REDUCED ORBITAL CHARGES
--------------------------------
  0 Aus       :     3.108560  s :     3.108560
      pz      :     2.039308  p :     6.073266
      px      :     2.016979
      py      :     2.016979
      dz2     :     1.874760  d :     9.819399
      dxz     :     1.973090
      dyz     :     1.973090
      dx2y2   :     1.999229
      dxy     :     1.999229
      f0      :     0.005175  f :     0.013303
      f+1     :     0.003745
      f-1     :     0.003745
      f+2     :     0.000319
      f-2     :     0.000319
      f+3     :     0.000000
      f-3     :     0.000000
      g0      :     0.000101  g :     0.000261
      g+1     :     0.000067
      g-1     :     0.000067
      g+2     :     0.000013
      g-2     :     0.000013
      g+3     :     0.000000
      g-3     :     0.000000
      g+4     :     0.000000
      g-4     :     0.000000
  1 Aus       :     2.574670  s :     2.574670
      pz      :     2.020971  p :     6.047245
      px      :     2.013137
      py      :     2.013137
      dz2     :     1.887936  d :     9.863521
      dxz     :     1.987790
      dyz     :     1.987790
      dx2y2   :     2.000002
      dxy     :     2.000002
      f0      :     0.002423  f :     0.007059
      f+1     :     0.002104
      f-1     :     0.002104
      f+2     :     0.000214
      f-2     :     0.000214
      f+3     :     0.000000
      f-3     :     0.000000
      g0      :     0.000040  g :     0.000104
      g+1     :     0.000028
      g-1     :     0.000028
      g+2     :     0.000004
      g-2     :     0.000004
      g+3     :     0.000000
      g-3     :     0.000000
      g+4     :     0.000000
      g-4     :     0.000000
  2 Aus       :     2.574687  s :     2.574687
      pz      :     2.020970  p :     6.047244
      px      :     2.013137
      py      :     2.013137
      dz2     :     1.887934  d :     9.863519
      dxz     :     1.987790
      dyz     :     1.987790
      dx2y2   :     2.000002
      dxy     :     2.000002
      f0      :     0.002423  f :     0.007059
      f+1     :     0.002104
      f-1     :     0.002104
      f+2     :     0.000214
      f-2     :     0.000214
      f+3     :     0.000000
      f-3     :     0.000000
      g0      :     0.000040  g :     0.000104
      g+1     :     0.000028
      g-1     :     0.000028
      g+2     :     0.000004
      g-2     :     0.000004
      g+3     :     0.000000
      g-3     :     0.000000
      g+4     :     0.000000
      g-4     :     0.000000


                     *******************************
                     * LOEWDIN POPULATION ANALYSIS *
                     *******************************

----------------------
LOEWDIN ATOMIC CHARGES
----------------------
   0 Au:    0.127588
   1 Au:    0.436214
   2 Au:    0.436198

-------------------------------
LOEWDIN REDUCED ORBITAL CHARGES
-------------------------------
  0 Aus       :     2.827419  s :     2.827419
      pz      :     2.076599  p :     6.118031
      px      :     2.020716
      py      :     2.020716
      dz2     :     1.983168  d :     9.903233
      dxz     :     1.961124
      dyz     :     1.961124
      dx2y2   :     1.998908
      dxy     :     1.998908
      f0      :     0.011778  f :     0.023385
      f+1     :     0.005428
      f-1     :     0.005428
      f+2     :     0.000376
      f-2     :     0.000376
      f+3     :     0.000000
      f-3     :     0.000000
      g0      :     0.000143  g :     0.000345
      g+1     :     0.000088
      g-1     :     0.000088
      g+2     :     0.000013
      g-2     :     0.000013
      g+3     :     0.000000
      g-3     :     0.000000
      g+4     :     0.000000
      g-4     :     0.000000
  1 Aus       :     2.525799  s :     2.525799
      pz      :     2.089585  p :     6.123923
      px      :     2.017169
      py      :     2.017169
      dz2     :     1.930604  d :     9.902718
      dxz     :     1.985961
      dyz     :     1.985961
      dx2y2   :     2.000096
      dxy     :     2.000096
      f0      :     0.004388  f :     0.011195
      f+1     :     0.003153
      f-1     :     0.003153
      f+2     :     0.000251
      f-2     :     0.000251
      f+3     :     0.000000
      f-3     :     0.000000
      g0      :     0.000063  g :     0.000151
      g+1     :     0.000040
      g-1     :     0.000040
      g+2     :     0.000004
      g-2     :     0.000004
      g+3     :     0.000000
      g-3     :     0.000000
      g+4     :     0.000000
      g-4     :     0.000000
  2 Aus       :     2.525818  s :     2.525818
      pz      :     2.089584  p :     6.123922
      px      :     2.017169
      py      :     2.017169
      dz2     :     1.930602  d :     9.902716
      dxz     :     1.985961
      dyz     :     1.985961
      dx2y2   :     2.000096
      dxy     :     2.000096
      f0      :     0.004388  f :     0.011195
      f+1     :     0.003153
      f-1     :     0.003153
      f+2     :     0.000251
      f-2     :     0.000251
      f+3     :     0.000000
      f-3     :     0.000000
      g0      :     0.000063  g :     0.000151
      g+1     :     0.000040
      g-1     :     0.000040
      g+2     :     0.000004
      g-2     :     0.000004
      g+3     :     0.000000
      g-3     :     0.000000
      g+4     :     0.000000
      g-4     :     0.000000


                      *****************************
                      * MAYER POPULATION ANALYSIS *
                      *****************************

  NA   - Mulliken gross atomic population
  ZA   - Total nuclear charge
  QA   - Mulliken gross atomic charge
  VA   - Mayer's total valence
  BVA  - Mayer's bonded valence
  FA   - Mayer's free valence

  ATOM       NA         ZA         QA         VA         BVA        FA
  0 Au    19.0148    19.0000    -0.0148     1.3262     1.3262     0.0000
  1 Au    18.4926    19.0000     0.5074     1.1584     1.1584     0.0000
  2 Au    18.4926    19.0000     0.5074     1.1585     1.1585    -0.0000

  Mayer bond orders larger than 0.100000
B(  0-Au,  1-Au) :   0.6631 B(  0-Au,  2-Au) :   0.6631 B(  1-Au,  2-Au) :   0.4954 


-------
TIMINGS
-------

Total SCF time: 0 days 0 hours 0 min 3 sec 

Total time                  ....       3.879 sec
Sum of individual times     ....       3.751 sec  ( 96.7%)

Fock matrix formation       ....       2.188 sec  ( 56.4%)
  Split-RI-J                ....       1.324 sec  ( 60.5% of F)
  XC integration            ....       0.781 sec  ( 35.7% of F)
    Basis function eval.    ....       0.064 sec  (  8.2% of XC)
    Density eval.           ....       0.091 sec  ( 11.7% of XC)
    XC-Functional eval.     ....       0.042 sec  (  5.4% of XC)
    XC-Potential eval.      ....       0.185 sec  ( 23.7% of XC)
Diagonalization             ....       0.072 sec  (  1.8%)
Density matrix formation    ....       0.012 sec  (  0.3%)
Population analysis         ....       0.005 sec  (  0.1%)
Initial guess               ....       1.079 sec  ( 27.8%)
Orbital Transformation      ....       0.000 sec  (  0.0%)
Orbital Orthonormalization  ....       0.000 sec  (  0.0%)
DIIS solution               ....       0.032 sec  (  0.8%)
Grid generation             ....       0.364 sec  (  9.4%)


-------------------------------------------------------------------------------
                          DFT DISPERSION CORRECTION                            
                                                                               
                              DFTD3 V3.1  Rev 1                                
                          USING Becke-Johnson damping                          
-------------------------------------------------------------------------------
The TPSS functional is recognized
Active option DFTDOPT                   ...         4   

molecular C6(AA) [au] = 2858.544030 


            DFT-D V3
 parameters
 s6 scaling factor         :     1.0000 
 a1 scaling factor         :     0.4535 
 s8 scaling factor         :     1.9435 
 a2 scaling factor         :     4.4752 
 ad hoc parameters k1-k3   :    16.0000     1.3333    -4.0000 

 Edisp/kcal,au: -3.018253088482  -0.004809891948 
 E6   /kcal   :  -0.897491049 
 E8   /kcal   :  -2.120762039 
 % E8         :  70.264552934 

-------------------------   ----------------
Dispersion correction           -0.004809892
-------------------------   ----------------


-------------------------   --------------------
FINAL SINGLE POINT ENERGY      -406.836214815321
-------------------------   --------------------



           ************************************************************
           *        Program running with 24 parallel MPI-processes    *
           *              working on a common directory               *
           ************************************************************
------------------------------------------------------------------------------
                         ORCA SCF GRADIENT CALCULATION
------------------------------------------------------------------------------

Gradient of the Kohn-Sham DFT energy:
Kohn-Sham wavefunction type      ... RKS
Hartree-Fock exchange scaling    ...    0.000
Number of operators              ...    1
Number of atoms                  ...    3
Basis set dimensions             ...  177
Integral neglect threshold       ... 2.5e-11
Integral primitive cutoff        ... 2.5e-12

Nuclear repulsion gradient       ... done
One Electron Gradient            
  ECP gradient                   ... done
Pre-screening matrix             ... done
RI-J gradient                    ... done
Exchange-correlation gradient    ... done
Dispersion correction            ... done

------------------
CARTESIAN GRADIENT
------------------

   1   Au  :    0.000000000   -0.000000006   -0.000000045
   2   Au  :   -0.000000047   -0.000000002   -0.002960398
   3   Au  :    0.000000004   -0.000000021    0.002960419

Difference to translation invariance:
           :   -0.0000000420   -0.0000000286   -0.0000000237

Norm of the cartesian gradient     ...    0.0041866498
RMS gradient                       ...    0.0013955499
MAX gradient                       ...    0.0029604192

-------
TIMINGS
-------

Total SCF gradient time            ...        1.456 sec

One electron gradient       ....       1.069 sec  ( 73.4%)
Prescreening matrices       ....       0.032 sec  (  2.2%)
RI-J Coulomb gradient       ....       0.112 sec  (  7.7%)
XC gradient                 ....       0.040 sec  (  2.8%)
------------------------------------------------------------------------------
                         ORCA GEOMETRY RELAXATION STEP
------------------------------------------------------------------------------

Reading the OPT-File                    .... done
Getting information on internals        .... done
Copying old internal coords+grads       .... done
Making the new internal coordinates     .... (new redundants).... done
Validating the new internal coordinates .... (new redundants).... done
Calculating the B-matrix                .... done
Calculating the G,G- and P matrices     .... done
Transforming gradient to internals      .... done
Projecting the internal gradient        .... done
Number of atoms                         ....   3
Number of internal coordinates          ....   4
Current Energy                          ....  -406.836214815 Eh
Current gradient norm                   ....     0.004186650 Eh/bohr
Maximum allowed component of the step   ....  0.300
Current trust radius                    ....  0.300
Evaluating the initial hessian          ....  (Almloef) done
Projecting the Hessian                  .... done
Forming the augmented Hessian           .... done
Diagonalizing the augmented Hessian     .... done
Last element of RFO vector              ....  0.969375500
Lowest eigenvalues of augmented Hessian:
 -0.001060653  0.015465048  0.016525701  0.160215172
Length of the computed step             ....  0.253341729
The final length of the internal step   ....  0.253341729
Converting the step to cartesian space:
 Initial RMS(Int)=    0.1266708645
Transforming coordinates:
 Iter   0:  RMS(Cart)=    0.0844472430 RMS(Int)=    0.1266708645
 Iter   1:  RMS(Cart)=    0.0000000041 RMS(Int)=    0.0000000000
done
Storing new coordinates                 .... done

                                .--------------------.
          ----------------------|Geometry convergence|-------------------------
          Item                value                   Tolerance       Converged
          ---------------------------------------------------------------------
          RMS gradient        0.0020933249            0.0001000000      NO
          MAX gradient        0.0029604271            0.0003000000      NO
          RMS step            0.1266708645            0.0020000000      NO
          MAX step            0.1791407835            0.0040000000      NO
          ........................................................
          Max(Bonds)      0.0948      Max(Angles)    0.00
          Max(Dihed)        0.00      Max(Improp)    0.00
          ---------------------------------------------------------------------

The optimization has not yet converged - more geometry cycles are needed


    ---------------------------------------------------------------------------
                         Redundant Internal Coordinates
                            (Angstroem and degrees)

        Definition                    Value    dE/dq     Step     New-Value
    ----------------------------------------------------------------------------
     1. B(Au  1,Au  0)                2.5769 -0.002960  0.0948    2.6717   
     2. B(Au  2,Au  0)                2.5769 -0.002960  0.0948    2.6717   
     3. L(Au  1,Au  0,Au  2, 2)       180.00 -0.000000    0.00    180.00   
     4. L(Au  1,Au  0,Au  2, 1)       180.00  0.000000   -0.00    180.00   
    ----------------------------------------------------------------------------

         *************************************************************
         *                GEOMETRY OPTIMIZATION CYCLE   2            *
         *************************************************************
---------------------------------
CARTESIAN COORDINATES (ANGSTROEM)
---------------------------------
  Au    -0.000000   -0.000000    0.000000
  Au     0.000000    0.000000    2.671660
  Au     0.000000    0.000000   -2.671661

----------------------------
CARTESIAN COORDINATES (A.U.)
----------------------------
  NO LB      ZA    FRAG     MASS         X           Y           Z
   0 Au   19.0000*   0   196.966   -0.000000   -0.000000    0.000001
   1 Au   19.0000*   0   196.966    0.000000    0.000000    5.048707
   2 Au   19.0000*   0   196.966    0.000000    0.000000   -5.048707
* core charge reduced due to ECP

--------------------------------
INTERNAL COORDINATES (ANGSTROEM)
--------------------------------
 Au     0   0   0     0.000000000000     0.00000000     0.00000000
 Au     1   0   0     2.671660024791     0.00000000     0.00000000
 Au     1   2   0     2.671661219730   179.99999915     0.00000000

---------------------------
INTERNAL COORDINATES (A.U.)
---------------------------
 Au     0   0   0     0.000000000000     0.00000000     0.00000000
 Au     1   0   0     5.048705769801     0.00000000     0.00000000
 Au     1   2   0     5.048708027909   179.99999915     0.00000000



           ************************************************************
           *        Program running with 24 parallel MPI-processes    *
           *              working on a common directory               *
           ************************************************************
 One Electron integrals                  ... done
 Pre-screening matrix                    ... done


           ************************************************************
           *        Program running with 24 parallel MPI-processes    *
           *              working on a common directory               *
           ************************************************************

Diagonalization of the overlap matrix:
Smallest eigenvalue                        ... 1.038e-03
Time for diagonalization                   ...    0.006 sec
Threshold for overlap eigenvalues          ... 1.000e-08
Number of eigenvalues below threshold      ... 0
Time for construction of square roots      ...    0.003 sec
Total time needed                          ...    0.010 sec

-------------------
DFT GRID GENERATION
-------------------

General Integration Accuracy     IntAcc      ...  4.670
Radial Grid Type                 RadialGrid  ... Gauss-Chebyshev
Angular Grid (max. acc.)         AngularGrid ... Lebedev-302
Angular grid pruning method      GridPruning ... 3 (G Style)
Weight generation scheme         WeightScheme... Becke
Basis function cutoff            BFCut       ...    1.0000e-11
Integration weight cutoff        WCut        ...    1.0000e-14
Grids for H and He will be reduced by one unit

# of grid points (after initial pruning)     ...  34956 (   0.0 sec)
# of grid points (after weights+screening)   ...  34728 (   0.0 sec)
nearest neighbour list constructed           ...    0.0 sec
Grid point re-assignment to atoms done       ...    0.0 sec
Grid point division into batches done        ...    0.3 sec
Reduced shell lists constructed in    0.3 sec

Total number of grid points                  ...    34728
Total number of batches                      ...      543
Average number of points per batch           ...       63
Average number of grid points per atom       ...    11576
Average number of shells per batch           ...    13.50 (26.47%)
Average number of basis functions per batch  ...    40.83 (23.07%)
Average number of large shells per batch     ...    10.29 (76.23%)
Average number of large basis fcns per batch ...    27.96 (68.47%)
Maximum spatial batch extension              ...  37.74, 37.74,  5.03 au
Average spatial batch extension              ...   0.55,  0.55,  0.20 au

Time for grid setup =    0.362 sec

--------------
SCF ITERATIONS
--------------
ITER       Energy         Delta-E        Max-DP      RMS-DP      [F,P]     Damp
               ***  Starting incremental Fock matrix formation  ***
  0   -406.8290060541   0.000000000000 0.00744421  0.00011579  0.1643112 0.7000
  1   -406.8293041703  -0.000298116166 0.00775633  0.00011614  0.1151119 0.7000
                               ***Turning on DIIS***
  2   -406.8295245833  -0.000220413025 0.02034398  0.00032046  0.0805752 0.0000
  3   -406.8300421518  -0.000517568497 0.00629001  0.00011237  0.0009497 0.0000
  4   -406.8300395741   0.000002577664 0.00229466  0.00002973  0.0018587 0.0000
  5   -406.8300574719  -0.000017897741 0.00301739  0.00003971  0.0005163 0.0000
  6   -406.8300598968  -0.000002424872 0.00366196  0.00007184  0.0002040 0.0000
  7   -406.8300563134   0.000003583394 0.00320696  0.00007077  0.0008913 0.0000
  8   -406.8300603092  -0.000003995822 0.00055287  0.00000987  0.0000895 0.0000
  9   -406.8300603532  -0.000000044023 0.00020924  0.00000402  0.0000505 0.0000
 10   -406.8300603725  -0.000000019325 0.00003087  0.00000056  0.0000127 0.0000
 11   -406.8300603717   0.000000000836 0.00001124  0.00000021  0.0000047 0.0000
 12   -406.8300603713   0.000000000367 0.00001689  0.00000037  0.0000012 0.0000
                 **** Energy Check signals convergence ****

               *****************************************************
               *                     SUCCESS                       *
               *           SCF CONVERGED AFTER  13 CYCLES          *
               *****************************************************

Total Energy       :         -406.83006037 Eh          -11070.40875 eV
  Last Energy change         ...   -7.9524e-10  Tolerance :   1.0000e-08
  Last MAX-Density change    ...    1.3742e-05  Tolerance :   1.0000e-07
             **** THE GBW FILE WAS UPDATED (Au03C1_LIN.gbw) ****
             **** DENSITY FILE WAS UPDATED (Au03C1_LIN.scfp) ****
             **** ENERGY FILE WAS UPDATED (Au03C1_LIN.en.tmp) ****
             **** THE GBW FILE WAS UPDATED (Au03C1_LIN.gbw) ****
             **** DENSITY FILE WAS UPDATED (Au03C1_LIN.scfp) ****
Total SCF time: 0 days 0 hours 0 min 2 sec 


-------------------------------------------------------------------------------
                          DFT DISPERSION CORRECTION                            
                                                                               
                              DFTD3 V3.1  Rev 1                                
                          USING Becke-Johnson damping                          
-------------------------------------------------------------------------------
-------------------------   ----------------
Dispersion correction           -0.004678295
-------------------------   ----------------


-------------------------   --------------------
FINAL SINGLE POINT ENERGY      -406.834738666950
-------------------------   --------------------



           ************************************************************
           *        Program running with 24 parallel MPI-processes    *
           *              working on a common directory               *
           ************************************************************
------------------------------------------------------------------------------
                         ORCA SCF GRADIENT CALCULATION
------------------------------------------------------------------------------

Gradient of the Kohn-Sham DFT energy:
Kohn-Sham wavefunction type      ... RKS
Hartree-Fock exchange scaling    ...    0.000
Number of operators              ...    1
Number of atoms                  ...    3
Basis set dimensions             ...  177
Integral neglect threshold       ... 2.5e-11
Integral primitive cutoff        ... 2.5e-12

Nuclear repulsion gradient       ... done
One Electron Gradient            
  ECP gradient                   ... done
Pre-screening matrix             ... done
RI-J gradient                    ... done
Exchange-correlation gradient    ... done
Dispersion correction            ... done

------------------
CARTESIAN GRADIENT
------------------

   1   Au  :   -0.000000016   -0.000000005   -0.000000113
   2   Au  :    0.000000024    0.000000015    0.009210569
   3   Au  :    0.000000021    0.000000016   -0.009210449

Difference to translation invariance:
           :    0.0000000293    0.0000000261    0.0000000062

Norm of the cartesian gradient     ...    0.0130256267
RMS gradient                       ...    0.0043418756
MAX gradient                       ...    0.0092105687

-------
TIMINGS
-------

Total SCF gradient time            ...        1.373 sec

One electron gradient       ....       0.988 sec  ( 72.0%)
Prescreening matrices       ....       0.032 sec  (  2.3%)
RI-J Coulomb gradient       ....       0.109 sec  (  7.9%)
XC gradient                 ....       0.038 sec  (  2.8%)
------------------------------------------------------------------------------
                         ORCA GEOMETRY RELAXATION STEP
------------------------------------------------------------------------------

Reading the OPT-File                    .... done
Getting information on internals        .... done
Copying old internal coords+grads       .... done
Making the new internal coordinates     .... (new redundants).... done
Validating the new internal coordinates .... (new redundants).... done
Calculating the B-matrix                .... done
Calculating the G,G- and P matrices     .... done
Transforming gradient to internals      .... done
Projecting the internal gradient        .... done
Number of atoms                         ....   3
Number of internal coordinates          ....   4
Current Energy                          ....  -406.834738667 Eh
Current gradient norm                   ....     0.013025627 Eh/bohr
Maximum allowed component of the step   ....  0.300
Current trust radius                    ....  0.300
Updating the Hessian (BFGS)             .... done
Forming the augmented Hessian           .... done
Diagonalizing the augmented Hessian     .... done
Last element of RFO vector              ....  0.983288597
Lowest eigenvalues of augmented Hessian:
 -0.002411665  0.015465048  0.070352610  0.160215172
Length of the computed step             ....  0.185147739
The final length of the internal step   ....  0.185147739
Converting the step to cartesian space:
 Initial RMS(Int)=    0.0925738693
Transforming coordinates:
 Iter   0:  RMS(Cart)=    0.0617159129 RMS(Int)=    0.0925738693
 Iter   1:  RMS(Cart)=    0.0000000021 RMS(Int)=    0.0000000167
done
Storing new coordinates                 .... done

                                .--------------------.
          ----------------------|Geometry convergence|-------------------------
          Item                value                   Tolerance       Converged
          ---------------------------------------------------------------------
          Energy change       0.0014761484            0.0000050000      NO
          RMS gradient        0.0065128133            0.0001000000      NO
          MAX gradient        0.0092105667            0.0003000000      NO
          RMS step            0.0925738693            0.0020000000      NO
          MAX step            0.1309201395            0.0040000000      NO
          ........................................................
          Max(Bonds)      0.0693      Max(Angles)    0.00
          Max(Dihed)        0.00      Max(Improp)    0.00
          ---------------------------------------------------------------------

The optimization has not yet converged - more geometry cycles are needed


    ---------------------------------------------------------------------------
                         Redundant Internal Coordinates
                            (Angstroem and degrees)

        Definition                    Value    dE/dq     Step     New-Value
    ----------------------------------------------------------------------------
     1. B(Au  1,Au  0)                2.6717  0.009211 -0.0693    2.6024   
     2. B(Au  2,Au  0)                2.6717  0.009210 -0.0693    2.6024   
     3. L(Au  1,Au  0,Au  2, 2)       180.00  0.000000    0.00    180.00   
     4. L(Au  1,Au  0,Au  2, 1)       180.00 -0.000000    0.00    180.00   
    ----------------------------------------------------------------------------

         *************************************************************
         *                GEOMETRY OPTIMIZATION CYCLE   3            *
         *************************************************************
---------------------------------
CARTESIAN COORDINATES (ANGSTROEM)
---------------------------------
  Au    -0.000000    0.000000    0.000001
  Au     0.000000   -0.000000    2.602381
  Au     0.000000   -0.000000   -2.602382

----------------------------
CARTESIAN COORDINATES (A.U.)
----------------------------
  NO LB      ZA    FRAG     MASS         X           Y           Z
   0 Au   19.0000*   0   196.966   -0.000000    0.000000    0.000001
   1 Au   19.0000*   0   196.966    0.000000   -0.000000    4.917787
   2 Au   19.0000*   0   196.966    0.000000   -0.000000   -4.917788
* core charge reduced due to ECP

--------------------------------
INTERNAL COORDINATES (ANGSTROEM)
--------------------------------
 Au     0   0   0     0.000000000000     0.00000000     0.00000000
 Au     1   0   0     2.602380070837     0.00000000     0.00000000
 Au     1   2   0     2.602382237370   179.99999809     0.00000000

---------------------------
INTERNAL COORDINATES (A.U.)
---------------------------
 Au     0   0   0     0.000000000000     0.00000000     0.00000000
 Au     1   0   0     4.917785630257     0.00000000     0.00000000
 Au     1   2   0     4.917789724411   179.99999809     0.00000000



           ************************************************************
           *        Program running with 24 parallel MPI-processes    *
           *              working on a common directory               *
           ************************************************************
 One Electron integrals                  ... done
 Pre-screening matrix                    ... done


           ************************************************************
           *        Program running with 24 parallel MPI-processes    *
           *              working on a common directory               *
           ************************************************************

Diagonalization of the overlap matrix:
Smallest eigenvalue                        ... 8.561e-04
Time for diagonalization                   ...    0.007 sec
Threshold for overlap eigenvalues          ... 1.000e-08
Number of eigenvalues below threshold      ... 0
Time for construction of square roots      ...    0.003 sec
Total time needed                          ...    0.011 sec

-------------------
DFT GRID GENERATION
-------------------

General Integration Accuracy     IntAcc      ...  4.670
Radial Grid Type                 RadialGrid  ... Gauss-Chebyshev
Angular Grid (max. acc.)         AngularGrid ... Lebedev-302
Angular grid pruning method      GridPruning ... 3 (G Style)
Weight generation scheme         WeightScheme... Becke
Basis function cutoff            BFCut       ...    1.0000e-11
Integration weight cutoff        WCut        ...    1.0000e-14
Grids for H and He will be reduced by one unit

# of grid points (after initial pruning)     ...  34956 (   0.0 sec)
# of grid points (after weights+screening)   ...  34728 (   0.0 sec)
nearest neighbour list constructed           ...    0.0 sec
Grid point re-assignment to atoms done       ...    0.0 sec
Grid point division into batches done        ...    0.3 sec
Reduced shell lists constructed in    0.3 sec

Total number of grid points                  ...    34728
Total number of batches                      ...      545
Average number of points per batch           ...       63
Average number of grid points per atom       ...    11576
Average number of shells per batch           ...    14.42 (28.27%)
Average number of basis functions per batch  ...    44.50 (25.14%)
Average number of large shells per batch     ...    10.46 (72.54%)
Average number of large basis fcns per batch ...    28.79 (64.70%)
Maximum spatial batch extension              ...  37.74, 37.74,  4.83 au
Average spatial batch extension              ...   0.55,  0.54,  0.19 au

Time for grid setup =    0.361 sec

--------------
SCF ITERATIONS
--------------
ITER       Energy         Delta-E        Max-DP      RMS-DP      [F,P]     Damp
               ***  Starting incremental Fock matrix formation  ***
  0   -406.8309390805   0.000000000000 0.00530512  0.00008364  0.1232341 0.7000
  1   -406.8310939082  -0.000154827651 0.00553033  0.00008372  0.0863368 0.7000
                               ***Turning on DIIS***
  2   -406.8312076728  -0.000113764643 0.01452789  0.00023027  0.0604349 0.0000
  3   -406.8314736473  -0.000265974465 0.00437106  0.00007600  0.0007143 0.0000
  4   -406.8314729552   0.000000692075 0.00155362  0.00002040  0.0013368 0.0000
  5   -406.8314814868  -0.000008531621 0.00181485  0.00002788  0.0003471 0.0000
  6   -406.8314825054  -0.000001018548 0.00515778  0.00010850  0.0001583 0.0000
  7   -406.8314764092   0.000006096160 0.00029866  0.00000390  0.0011082 0.0000
  8   -406.8314776898  -0.000001280610 0.00464459  0.00009647  0.0009963 0.0000
  9   -406.8314827179  -0.000005028073 0.00017563  0.00000245  0.0000412 0.0000
 10   -406.8314827223  -0.000000004452 0.00012471  0.00000165  0.0000336 0.0000
 11   -406.8314827258  -0.000000003427 0.00007793  0.00000116  0.0000154 0.0000
 12   -406.8314827274  -0.000000001585 0.00003672  0.00000053  0.0000098 0.0000
 13   -406.8314827283  -0.000000000904 0.00001125  0.00000016  0.0000020 0.0000
 14   -406.8314827281   0.000000000151 0.00000929  0.00000019  0.0000014 0.0000
                 **** Energy Check signals convergence ****

               *****************************************************
               *                     SUCCESS                       *
               *           SCF CONVERGED AFTER  15 CYCLES          *
               *****************************************************

Total Energy       :         -406.83148273 Eh          -11070.44746 eV
  Last Energy change         ...    4.4093e-10  Tolerance :   1.0000e-08
  Last MAX-Density change    ...    7.9144e-06  Tolerance :   1.0000e-07
             **** THE GBW FILE WAS UPDATED (Au03C1_LIN.gbw) ****
             **** DENSITY FILE WAS UPDATED (Au03C1_LIN.scfp) ****
             **** ENERGY FILE WAS UPDATED (Au03C1_LIN.en.tmp) ****
             **** THE GBW FILE WAS UPDATED (Au03C1_LIN.gbw) ****
             **** DENSITY FILE WAS UPDATED (Au03C1_LIN.scfp) ****
Total SCF time: 0 days 0 hours 0 min 2 sec 


-------------------------------------------------------------------------------
                          DFT DISPERSION CORRECTION                            
                                                                               
                              DFTD3 V3.1  Rev 1                                
                          USING Becke-Johnson damping                          
-------------------------------------------------------------------------------
-------------------------   ----------------
Dispersion correction           -0.004772975
-------------------------   ----------------


-------------------------   --------------------
FINAL SINGLE POINT ENERGY      -406.836255703110
-------------------------   --------------------



           ************************************************************
           *        Program running with 24 parallel MPI-processes    *
           *              working on a common directory               *
           ************************************************************
------------------------------------------------------------------------------
                         ORCA SCF GRADIENT CALCULATION
------------------------------------------------------------------------------

Gradient of the Kohn-Sham DFT energy:
Kohn-Sham wavefunction type      ... RKS
Hartree-Fock exchange scaling    ...    0.000
Number of operators              ...    1
Number of atoms                  ...    3
Basis set dimensions             ...  177
Integral neglect threshold       ... 2.5e-11
Integral primitive cutoff        ... 2.5e-12

Nuclear repulsion gradient       ... done
One Electron Gradient            
  ECP gradient                   ... done
Pre-screening matrix             ... done
RI-J gradient                    ... done
Exchange-correlation gradient    ... done
Dispersion correction            ... done

------------------
CARTESIAN GRADIENT
------------------

   1   Au  :   -0.000000025    0.000000004    0.000000181
   2   Au  :   -0.000000025    0.000000020    0.000931764
   3   Au  :    0.000000027    0.000000017   -0.000932009

Difference to translation invariance:
           :   -0.0000000237    0.0000000414   -0.0000000636

Norm of the cartesian gradient     ...    0.0013178865
RMS gradient                       ...    0.0004392955
MAX gradient                       ...    0.0009320088

-------
TIMINGS
-------

Total SCF gradient time            ...        1.380 sec

One electron gradient       ....       0.996 sec  ( 72.2%)
Prescreening matrices       ....       0.032 sec  (  2.3%)
RI-J Coulomb gradient       ....       0.109 sec  (  7.9%)
XC gradient                 ....       0.040 sec  (  2.9%)
------------------------------------------------------------------------------
                         ORCA GEOMETRY RELAXATION STEP
------------------------------------------------------------------------------

Reading the OPT-File                    .... done
Getting information on internals        .... done
Copying old internal coords+grads       .... done
Making the new internal coordinates     .... (new redundants).... done
Validating the new internal coordinates .... (new redundants).... done
Calculating the B-matrix                .... done
Calculating the G,G- and P matrices     .... done
Transforming gradient to internals      .... done
Projecting the internal gradient        .... done
Number of atoms                         ....   3
Number of internal coordinates          ....   4
Current Energy                          ....  -406.836255703 Eh
Current gradient norm                   ....     0.001317887 Eh/bohr
Maximum allowed component of the step   ....  0.300
Current trust radius                    ....  0.300
Updating the Hessian (BFGS)             .... done
Forming the augmented Hessian           .... done
Diagonalizing the augmented Hessian     .... done
Last element of RFO vector              ....  0.999783081
Lowest eigenvalues of augmented Hessian:
 -0.000027454  0.015465048  0.063262038  0.160215172
Length of the computed step             ....  0.020832188
The final length of the internal step   ....  0.020832188
Converting the step to cartesian space:
 Initial RMS(Int)=    0.0104160939
Transforming coordinates:
 Iter   0:  RMS(Cart)=    0.0069440620 RMS(Int)=    0.0104160939
 Iter   1:  RMS(Cart)=    0.0000000047 RMS(Int)=    0.0000000105
done
Storing new coordinates                 .... done

                                .--------------------.
          ----------------------|Geometry convergence|-------------------------
          Item                value                   Tolerance       Converged
          ---------------------------------------------------------------------
          Energy change      -0.0015170362            0.0000050000      NO
          RMS gradient        0.0006589432            0.0001000000      NO
          MAX gradient        0.0009319876            0.0003000000      NO
          RMS step            0.0104160939            0.0020000000      NO
          MAX step            0.0147381561            0.0040000000      NO
          ........................................................
          Max(Bonds)      0.0078      Max(Angles)    0.00
          Max(Dihed)        0.00      Max(Improp)    0.00
          ---------------------------------------------------------------------

The optimization has not yet converged - more geometry cycles are needed


    ---------------------------------------------------------------------------
                         Redundant Internal Coordinates
                            (Angstroem and degrees)

        Definition                    Value    dE/dq     Step     New-Value
    ----------------------------------------------------------------------------
     1. B(Au  1,Au  0)                2.6024  0.000932 -0.0078    2.5946   
     2. B(Au  2,Au  0)                2.6024  0.000932 -0.0078    2.5946   
     3. L(Au  1,Au  0,Au  2, 2)       180.00  0.000000   -0.00    180.00   
     4. L(Au  1,Au  0,Au  2, 1)       180.00 -0.000000    0.00    180.00   
    ----------------------------------------------------------------------------

         *************************************************************
         *                GEOMETRY OPTIMIZATION CYCLE   4            *
         *************************************************************
---------------------------------
CARTESIAN COORDINATES (ANGSTROEM)
---------------------------------
  Au    -0.000000    0.000000   -0.000002
  Au     0.000000   -0.000000    2.594587
  Au     0.000000   -0.000000   -2.594585

----------------------------
CARTESIAN COORDINATES (A.U.)
----------------------------
  NO LB      ZA    FRAG     MASS         X           Y           Z
   0 Au   19.0000*   0   196.966   -0.000000    0.000000   -0.000004
   1 Au   19.0000*   0   196.966    0.000000   -0.000000    4.903059
   2 Au   19.0000*   0   196.966    0.000000   -0.000000   -4.903055
* core charge reduced due to ECP

--------------------------------
INTERNAL COORDINATES (ANGSTROEM)
--------------------------------
 Au     0   0   0     0.000000000000     0.00000000     0.00000000
 Au     1   0   0     2.594588993430     0.00000000     0.00000000
 Au     1   2   0     2.594583141071   180.00000000     0.00000000

---------------------------
INTERNAL COORDINATES (A.U.)
---------------------------
 Au     0   0   0     0.000000000000     0.00000000     0.00000000
 Au     1   0   0     4.903062627669     0.00000000     0.00000000
 Au     1   2   0     4.903051568314   180.00000000     0.00000000



           ************************************************************
           *        Program running with 24 parallel MPI-processes    *
           *              working on a common directory               *
           ************************************************************
 One Electron integrals                  ... done
 Pre-screening matrix                    ... done


           ************************************************************
           *        Program running with 24 parallel MPI-processes    *
           *              working on a common directory               *
           ************************************************************

Diagonalization of the overlap matrix:
Smallest eigenvalue                        ... 8.374e-04
Time for diagonalization                   ...    0.006 sec
Threshold for overlap eigenvalues          ... 1.000e-08
Number of eigenvalues below threshold      ... 0
Time for construction of square roots      ...    0.004 sec
Total time needed                          ...    0.010 sec

-------------------
DFT GRID GENERATION
-------------------

General Integration Accuracy     IntAcc      ...  4.670
Radial Grid Type                 RadialGrid  ... Gauss-Chebyshev
Angular Grid (max. acc.)         AngularGrid ... Lebedev-302
Angular grid pruning method      GridPruning ... 3 (G Style)
Weight generation scheme         WeightScheme... Becke
Basis function cutoff            BFCut       ...    1.0000e-11
Integration weight cutoff        WCut        ...    1.0000e-14
Grids for H and He will be reduced by one unit

# of grid points (after initial pruning)     ...  34956 (   0.0 sec)
# of grid points (after weights+screening)   ...  34728 (   0.0 sec)
nearest neighbour list constructed           ...    0.0 sec
Grid point re-assignment to atoms done       ...    0.0 sec
Grid point division into batches done        ...    0.3 sec
Reduced shell lists constructed in    0.3 sec

Total number of grid points                  ...    34728
Total number of batches                      ...      545
Average number of points per batch           ...       63
Average number of grid points per atom       ...    11576
Average number of shells per batch           ...    14.54 (28.51%)
Average number of basis functions per batch  ...    45.12 (25.49%)
Average number of large shells per batch     ...    10.42 (71.63%)
Average number of large basis fcns per batch ...    28.58 (63.34%)
Maximum spatial batch extension              ...  37.74, 37.74,  4.83 au
Average spatial batch extension              ...   0.55,  0.54,  0.19 au

Time for grid setup =    0.357 sec

--------------
SCF ITERATIONS
--------------
ITER       Energy         Delta-E        Max-DP      RMS-DP      [F,P]     Damp
               ***  Starting incremental Fock matrix formation  ***
  0   -406.8314905561   0.000000000000 0.00063171  0.00000990  0.0142868 0.7000
  1   -406.8314927243  -0.000002168243 0.00065177  0.00000989  0.0100090 0.7000
                               ***Turning on DIIS***
  2   -406.8314943154  -0.000001591015 0.00170166  0.00002715  0.0070061 0.0000
  3   -406.8314980447  -0.000003729343 0.00049384  0.00000879  0.0000819 0.0000
  4   -406.8314980311   0.000000013558 0.00039225  0.00000561  0.0001563 0.0000
  5   -406.8314981564  -0.000000125264 0.00103046  0.00002186  0.0000485 0.0000
  6   -406.8314979186   0.000000237810 0.00104642  0.00002226  0.0002186 0.0000
  7   -406.8314981594  -0.000000240767 0.00020801  0.00000427  0.0000355 0.0000
  8   -406.8314981664  -0.000000007071 0.00008523  0.00000173  0.0000163 0.0000
  9   -406.8314981671  -0.000000000722 0.00001201  0.00000022  0.0000025 0.0000
 10   -406.8314981669   0.000000000233 0.00000534  0.00000009  0.0000020 0.0000
                 **** Energy Check signals convergence ****

               *****************************************************
               *                     SUCCESS                       *
               *           SCF CONVERGED AFTER  11 CYCLES          *
               *****************************************************

Total Energy       :         -406.83149817 Eh          -11070.44788 eV
  Last Energy change         ...    1.7081e-10  Tolerance :   1.0000e-08
  Last MAX-Density change    ...    3.1028e-06  Tolerance :   1.0000e-07
             **** THE GBW FILE WAS UPDATED (Au03C1_LIN.gbw) ****
             **** DENSITY FILE WAS UPDATED (Au03C1_LIN.scfp) ****
             **** ENERGY FILE WAS UPDATED (Au03C1_LIN.en.tmp) ****
             **** THE GBW FILE WAS UPDATED (Au03C1_LIN.gbw) ****
             **** DENSITY FILE WAS UPDATED (Au03C1_LIN.scfp) ****
Total SCF time: 0 days 0 hours 0 min 2 sec 


-------------------------------------------------------------------------------
                          DFT DISPERSION CORRECTION                            
                                                                               
                              DFTD3 V3.1  Rev 1                                
                          USING Becke-Johnson damping                          
-------------------------------------------------------------------------------
-------------------------   ----------------
Dispersion correction           -0.004784141
-------------------------   ----------------


-------------------------   --------------------
FINAL SINGLE POINT ENERGY      -406.836282308007
-------------------------   --------------------



           ************************************************************
           *        Program running with 24 parallel MPI-processes    *
[...]
      g-3     :     0.000000
      g+4     :     0.000000
      g-4     :     0.000000
  2 Aus       :     2.574848  s :     2.574848
      pz      :     2.021579  p :     6.046842
      px      :     2.012632
      py      :     2.012632
      dz2     :     1.890248  d :     9.866979
      dxz     :     1.988352
      dyz     :     1.988352
      dx2y2   :     2.000014
      dxy     :     2.000014
      f0      :     0.002297  f :     0.006611
      f+1     :     0.001960
      f-1     :     0.001960
      f+2     :     0.000197
      f-2     :     0.000197
      f+3     :     0.000000
      f-3     :     0.000000
      g0      :     0.000037  g :     0.000095
      g+1     :     0.000026
      g-1     :     0.000026
      g+2     :     0.000003
      g-2     :     0.000003
      g+3     :     0.000000
      g-3     :     0.000000
      g+4     :     0.000000
      g-4     :     0.000000


                     *******************************
                     * LOEWDIN POPULATION ANALYSIS *
                     *******************************

----------------------
LOEWDIN ATOMIC CHARGES
----------------------
   0 Au:    0.127425
   1 Au:    0.436290
   2 Au:    0.436285

-------------------------------
LOEWDIN REDUCED ORBITAL CHARGES
-------------------------------
  0 Aus       :     2.828176  s :     2.828176
      pz      :     2.075343  p :     6.115351
      px      :     2.020004
      py      :     2.020004
      dz2     :     1.983742  d :     9.907048
      dxz     :     1.962677
      dyz     :     1.962677
      dx2y2   :     1.998976
      dxy     :     1.998976
      f0      :     0.011026  f :     0.021685
      f+1     :     0.004990
      f-1     :     0.004990
      f+2     :     0.000339
      f-2     :     0.000339
      f+3     :     0.000000
      f-3     :     0.000000
      g0      :     0.000132  g :     0.000315
      g+1     :     0.000080
      g-1     :     0.000080
      g+2     :     0.000012
      g-2     :     0.000012
      g+3     :     0.000000
      g-3     :     0.000000
      g+4     :     0.000000
      g-4     :     0.000000
  1 Aus       :     2.526749  s :     2.526749
      pz      :     2.088230  p :     6.121242
      px      :     2.016506
      py      :     2.016506
      dz2     :     1.931640  d :     9.905192
      dxz     :     1.986673
      dyz     :     1.986673
      dx2y2   :     2.000103
      dxy     :     2.000103
      f0      :     0.004114  f :     0.010391
      f+1     :     0.002909
      f-1     :     0.002909
      f+2     :     0.000229
      f-2     :     0.000229
      f+3     :     0.000000
      f-3     :     0.000000
      g0      :     0.000058  g :     0.000137
      g+1     :     0.000036
      g-1     :     0.000036
      g+2     :     0.000004
      g-2     :     0.000004
      g+3     :     0.000000
      g-3     :     0.000000
      g+4     :     0.000000
      g-4     :     0.000000
  2 Aus       :     2.526744  s :     2.526744
      pz      :     2.088234  p :     6.121248
      px      :     2.016507
      py      :     2.016507
      dz2     :     1.931643  d :     9.905193
      dxz     :     1.986672
      dyz     :     1.986672
      dx2y2   :     2.000103
      dxy     :     2.000103
      f0      :     0.004114  f :     0.010393
      f+1     :     0.002910
      f-1     :     0.002910
      f+2     :     0.000229
      f-2     :     0.000229
      f+3     :     0.000000
      f-3     :     0.000000
      g0      :     0.000058  g :     0.000137
      g+1     :     0.000036
      g-1     :     0.000036
      g+2     :     0.000004
      g-2     :     0.000004
      g+3     :     0.000000
      g-3     :     0.000000
      g+4     :     0.000000
      g-4     :     0.000000


                      *****************************
                      * MAYER POPULATION ANALYSIS *
                      *****************************

  NA   - Mulliken gross atomic population
  ZA   - Total nuclear charge
  QA   - Mulliken gross atomic charge
  VA   - Mayer's total valence
  BVA  - Mayer's bonded valence
  FA   - Mayer's free valence

  ATOM       NA         ZA         QA         VA         BVA        FA
  0 Au    19.0093    19.0000    -0.0093     1.3184     1.3184     0.0000
  1 Au    18.4954    19.0000     0.5046     1.1512     1.1512     0.0000
  2 Au    18.4954    19.0000     0.5046     1.1512     1.1512     0.0000

  Mayer bond orders larger than 0.100000
B(  0-Au,  1-Au) :   0.6592 B(  0-Au,  2-Au) :   0.6592 B(  1-Au,  2-Au) :   0.4920 


-------
TIMINGS
-------

Total SCF time: 0 days 0 hours 0 min 0 sec 

Total time                  ....       0.884 sec
Sum of individual times     ....       0.763 sec  ( 86.3%)

Fock matrix formation       ....       0.381 sec  ( 43.1%)
  Split-RI-J                ....       0.185 sec  ( 48.5% of F)
  XC integration            ....       0.155 sec  ( 40.7% of F)
    Basis function eval.    ....       0.008 sec  (  5.0% of XC)
    Density eval.           ....       0.012 sec  (  7.8% of XC)
    XC-Functional eval.     ....       0.005 sec  (  3.1% of XC)
    XC-Potential eval.      ....       0.018 sec  ( 11.9% of XC)
Diagonalization             ....       0.008 sec  (  0.9%)
Density matrix formation    ....       0.002 sec  (  0.2%)
Population analysis         ....       0.005 sec  (  0.6%)
Initial guess               ....       0.012 sec  (  1.3%)
Orbital Transformation      ....       0.000 sec  (  0.0%)
Orbital Orthonormalization  ....       0.007 sec  (  0.8%)
DIIS solution               ....       0.001 sec  (  0.2%)
Grid generation             ....       0.354 sec  ( 40.0%)


-------------------------------------------------------------------------------
                          DFT DISPERSION CORRECTION                            
                                                                               
                              DFTD3 V3.1  Rev 1                                
                          USING Becke-Johnson damping                          
-------------------------------------------------------------------------------
The TPSS functional is recognized
Active option DFTDOPT                   ...         4   

molecular C6(AA) [au] = 2858.826828 


            DFT-D V3
 parameters
 s6 scaling factor         :     1.0000 
 a1 scaling factor         :     0.4535 
 s8 scaling factor         :     1.9435 
 a2 scaling factor         :     4.4752 
 ad hoc parameters k1-k3   :    16.0000     1.3333    -4.0000 

 Edisp/kcal,au: -3.000858758952  -0.004782172322 
 E6   /kcal   :  -0.892717936 
 E8   /kcal   :  -2.108140823 
 % E8         :  70.251251136 

-------------------------   ----------------
Dispersion correction           -0.004782172
-------------------------   ----------------


-------------------------   --------------------
FINAL SINGLE POINT ENERGY      -406.836280097085
-------------------------   --------------------

                                *** OPTIMIZATION RUN DONE ***

                            ***************************************
                            *     ORCA property calculations      *
                            ***************************************

                                    ---------------------
                                    Active property flags
                                    ---------------------
   (+) Dipole Moment


------------------------------------------------------------------------------
                       ORCA ELECTRIC PROPERTIES CALCULATION
------------------------------------------------------------------------------

Dipole Moment Calculation                       ... on
Quadrupole Moment Calculation                   ... off
Polarizability Calculation                      ... off
GBWName                                         ... Au03C1_LIN.gbw
Electron density file                           ... Au03C1_LIN.scfp
The origin for moment calculation is the CENTER OF MASS  = ( 0.000000,  0.000000  0.000000)

-------------
DIPOLE MOMENT
-------------
                                X             Y             Z
Electronic contribution:      0.00000       0.00000       0.00002
Nuclear contribution   :      0.00000       0.00000       0.00000
                        -----------------------------------------
Total Dipole Moment    :      0.00000       0.00000       0.00002
                        -----------------------------------------
Magnitude (a.u.)       :      0.00002
Magnitude (Debye)      :      0.00006



--------------------
Rotational spectrum 
--------------------
 
Rotational constants in cm-1:     0.000000     0.006350     0.006350 
Rotational constants in MHz :     0.000000   190.370968   190.370968 

 Dipole components along the rotational axes: 
x,y,z [a.u.] :     0.000022    -0.000000    -0.000000 
x,y,z [Debye]:     0.000057    -0.000000    -0.000000 

 

----------------------------------------------------------------------------
                           ORCA NUMERICAL FREQUENCIES
                              (24-process run)
----------------------------------------------------------------------------

Number of atoms                ... 3
Central differences            ... used
Number of displacements        ... 18
Numerical increment            ... 5.000e-03 bohr
IR-spectrum generation         ... on
Raman-spectrum generation      ... off
Surface Crossing Hessian       ... off

 WARNING: There are more processes than displacements to do
  ====> : Reducing number of processes to   9

The output will be reduced. Please look at the following files:
SCF program output             ... >Au03C1_LIN.lastscf
Integral program output        ... >Au03C1_LIN.lastint
Gradient program output        ... >Au03C1_LIN.lastgrad
Dipole moment program output   ... >Au03C1_LIN.lastmom
AutoCI program output          ... >Au03C1_LIN.lastautoci


         <<< Energy and Gradient at the input geometry >>>

        <<< Energy and Gradient at displaced geometries >>>
             <<<Displacing   1/coordinate 3 (+)>>>
             <<<Displacing   3/coordinate 1 (+)>>>
             <<<Displacing   2/coordinate 3 (+)>>>
             <<<Displacing   2/coordinate 2 (+)>>>
             <<<Displacing   2/coordinate 1 (+)>>>
             <<<Displacing   1/coordinate 1 (+)>>>
             <<<Displacing   3/coordinate 3 (+)>>>
             <<<Displacing   3/coordinate 2 (+)>>>
             <<<Displacing   1/coordinate 2 (+)>>>
             <<<Displacing   2/coordinate 2 (-)>>>
             <<<Displacing   3/coordinate 1 (-)>>>
             <<<Displacing   1/coordinate 2 (-)>>>
             <<<Displacing   2/coordinate 1 (-)>>>
             <<<Displacing   3/coordinate 2 (-)>>>
             <<<Displacing   1/coordinate 1 (-)>>>
             <<<Displacing   2/coordinate 3 (-)>>>
             <<<Displacing   3/coordinate 3 (-)>>>

ORCA finished by error termination in SCF
Calling Command: /sw/apps/orca/orca_4_2_0_linux_x86-64_openmpi314/orca_scf Au03C1_LIN.proc2.gbw b >Au03C1_LIN.proc2.lastscf
Check for SCF-logfiles
ORCA_NUMFREQ: ORCA finished with an error in the energy calculation
              Please check Au03C1_LIN.lastint.dpl2 for details
              Please check Au03C1_LIN.lastscf.dpl2 for details

HESS(2,2)<Thresh ! - Please check !

############################################################################

WARNING: It seems that the Hessian Matrix ISN'T COMPLETE!
         Please check your results VERY carefully!
         For possible error information check files Au03C1_LIN.last*.dpl*
         If necessary - restart the job with local HessianFiles.
         Modify your input options to ensure convergence and/or
         avoid other sources of problems

############################################################################


Warning: T+R mode no 5 is zero 

-----------------------
VIBRATIONAL FREQUENCIES
-----------------------

Scaling factor for frequencies =  1.000000000 (already applied!)

   0:         0.00 cm**-1
   1:         0.00 cm**-1
   2:         0.00 cm**-1
   3:         0.00 cm**-1
   4:         0.00 cm**-1
   5:       -81.52 cm**-1 ***imaginary mode***
   6:       -81.51 cm**-1 ***imaginary mode***
   7:        92.38 cm**-1
   8:       102.31 cm**-1


------------
NORMAL MODES
------------

These modes are the cartesian displacements weighted by the diagonal matrix
M(i,i)=1/sqrt(m[i]) where m[i] is the mass of the displaced atom
Thus, these vectors are normalized but *not* orthogonal

                  0          1          2          3          4          5    
      0       0.000000   0.000000   0.000000   0.000000   0.000000   0.007307
      1       0.000000   0.000000   0.000000   0.000000   0.000000  -0.816464
      2       0.000000   0.000000   0.000000   0.000000   0.000000   0.000013
      3       0.000000   0.000000   0.000000   0.000000   0.000000  -0.003653
      4       0.000000   0.000000   0.000000   0.000000   0.000000   0.408228
      5       0.000000   0.000000   0.000000   0.000000   0.000000  -0.000002
      6       0.000000   0.000000   0.000000   0.000000   0.000000  -0.003653
      7       0.000000   0.000000   0.000000   0.000000   0.000000   0.408235
      8       0.000000   0.000000   0.000000   0.000000   0.000000  -0.000011
                   6          7          8    
      0       0.816464  -0.000002  -0.000007
      1       0.007307  -0.000013   0.000005
      2      -0.000002  -0.816497   0.000044
      3      -0.408228   0.000001   0.000004
      4      -0.003653   0.000006  -0.000002
      5       0.000008   0.408287   0.707085
      6      -0.408235   0.000001   0.000004
      7      -0.003653   0.000006  -0.000002
      8      -0.000005   0.408210  -0.707129


-----------
IR SPECTRUM  
-----------

 Mode    freq (cm**-1)   T**2         TX         TY         TZ
-------------------------------------------------------------------
   7:        92.38    3.184122  ( -0.000002  -0.000004   1.784411)
   8:       102.31    0.000176  ( -0.000008   0.000000   0.013265)

The first frequency considered to be a vibration is 7
The total number of vibrations considered is 2


--------------------------
THERMOCHEMISTRY AT 298.15K
--------------------------

Temperature         ... 298.15 K
Pressure            ... 1.00 atm
Total Mass          ... 590.90 AMU
The molecule is recognized as being linear

Throughout the following assumptions are being made:
  (1) The electronic state is orbitally nondegenerate
  (2) There are no thermally accessible electronically excited states
  (3) Hindered rotations indicated by low frequency modes are not
      treated as such but are treated as vibrations and this may
      cause some error
  (4) All equations used are the standard statistical mechanics
      equations for an ideal gas
  (5) All vibrations are strictly harmonic

freq.      92.38  E(vib)   ...       0.47 
freq.     102.31  E(vib)   ...       0.46 

------------
INNER ENERGY
------------

The inner energy is: U= E(el) + E(ZPE) + E(vib) + E(rot) + E(trans)
    E(el)   - is the total energy from the electronic structure calculation
              = E(kin-el) + E(nuc-el) + E(el-el) + E(nuc-nuc)
    E(ZPE)  - the the zero temperature vibrational energy from the frequency calculation
    E(vib)  - the the finite temperature correction to E(ZPE) due to population
              of excited vibrational states
    E(rot)  - is the rotational thermal energy
    E(trans)- is the translational thermal energy

Summary of contributions to the inner energy U:
Electronic energy                ...   -406.83628010 Eh
Zero point energy                ...      0.00044353 Eh       0.28 kcal/mol
Thermal vibrational correction   ...      0.00147957 Eh       0.93 kcal/mol
Thermal rotational correction    ...      0.00094418 Eh       0.59 kcal/mol
Thermal translational correction ...      0.00141627 Eh       0.89 kcal/mol
-----------------------------------------------------------------------
Total thermal energy                   -406.83199654 Eh


Summary of corrections to the electronic energy:
(perhaps to be used in another calculation)
Total thermal correction                  0.00384002 Eh       2.41 kcal/mol
Non-thermal (ZPE) correction              0.00044353 Eh       0.28 kcal/mol
-----------------------------------------------------------------------
Total correction                          0.00428356 Eh       2.69 kcal/mol


--------
ENTHALPY
--------

The enthalpy is H = U + kB*T
                kB is Boltzmann's constant
Total free energy                 ...   -406.83199654 Eh 
Thermal Enthalpy correction       ...      0.00094421 Eh       0.59 kcal/mol
-----------------------------------------------------------------------
Total Enthalpy                    ...   -406.83105233 Eh


Note: Rotational entropy computed according to Herzberg 
Infrared and Raman Spectra, Chapter V,1, Van Nostrand Reinhold, 1945 
Point Group:  Cinfv, Symmetry Number:   1  
Rotational constants in cm-1:     0.000000     0.006350     0.006350 

Vibrational entropy computed according to the QRRHO of S. Grimme
Chem.Eur.J. 2012 18 9955


-------
ENTROPY
-------

The entropy contributions are T*S = T*(S(el)+S(vib)+S(rot)+S(trans))
     S(el)   - electronic entropy
     S(vib)  - vibrational entropy
     S(rot)  - rotational entropy
     S(trans)- translational entropy
The entropies will be listed as mutliplied by the temperature to get
units of energy

Electronic entropy                ...      0.00000000 Eh      0.00 kcal/mol
Vibrational entropy               ...      0.00301843 Eh      1.89 kcal/mol
Rotational entropy                ...      0.01075714 Eh      6.75 kcal/mol
Translational entropy             ...      0.02138721 Eh     13.42 kcal/mol
-----------------------------------------------------------------------
Final entropy term                ...      0.03516278 Eh     22.06 kcal/mol

In case the symmetry of your molecule has not been determined correctly
or in case you have a reason to use a different symmetry number we print 
out the resulting rotational entropy values for sn=1,12 :
 --------------------------------------------------------
|  sn= 1 | S(rot)=      -0.00100470 Eh     -0.63 kcal/mol|
|  sn= 2 | S(rot)=      -0.00165916 Eh     -1.04 kcal/mol|
|  sn= 3 | S(rot)=      -0.00204199 Eh     -1.28 kcal/mol|
|  sn= 4 | S(rot)=      -0.00231362 Eh     -1.45 kcal/mol|
|  sn= 5 | S(rot)=      -0.00252430 Eh     -1.58 kcal/mol|
|  sn= 6 | S(rot)=      -0.00269645 Eh     -1.69 kcal/mol|
|  sn= 7 | S(rot)=      -0.00284199 Eh     -1.78 kcal/mol|
|  sn= 8 | S(rot)=      -0.00296807 Eh     -1.86 kcal/mol|
|  sn= 9 | S(rot)=      -0.00307928 Eh     -1.93 kcal/mol|
|  sn=10 | S(rot)=      -0.00317876 Eh     -1.99 kcal/mol|
|  sn=11 | S(rot)=      -0.00326875 Eh     -2.05 kcal/mol|
|  sn=12 | S(rot)=      -0.00335090 Eh     -2.10 kcal/mol|
 --------------------------------------------------------


-------------------
GIBBS FREE ENERGY
-------------------

The Gibbs free energy is G = H - T*S

Total enthalpy                    ...   -406.83105233 Eh 
Total entropy correction          ...     -0.03516278 Eh    -22.06 kcal/mol
-----------------------------------------------------------------------
Final Gibbs free energy         ...   -406.86621512 Eh

For completeness - the Gibbs free energy minus the electronic energy
G-E(el)                           ...     -0.02993502 Eh    -18.78 kcal/mol


Total Time for Numerical Frequencies  :        84.145 sec

Timings for individual modules:

Sum of individual times         ...       34.966 sec (=   0.583 min)
GTO integral calculation        ...        6.199 sec (=   0.103 min)  17.7 %
SCF iterations                  ...       17.833 sec (=   0.297 min)  51.0 %
SCF Gradient evaluation         ...       10.768 sec (=   0.179 min)  30.8 %
Geometry relaxation             ...        0.166 sec (=   0.003 min)   0.5 %
                             ****ORCA TERMINATED NORMALLY****
TOTAL RUN TIME: 0 days 0 hours 1 minutes 56 seconds 116 msec
