
                                 *****************
                                 * O   R   C   A *
                                 *****************

           --- An Ab Initio, DFT and Semiempirical electronic structure package ---

                  #######################################################
                  #                        -***-                        #
                  #          Department of theory and spectroscopy      #
                  #               Directorship: Frank Neese             #
                  #        Max Planck Institute fuer Kohlenforschung    #
                  #                Kaiser Wilhelm Platz 1               #
                  #                 D-45470 Muelheim/Ruhr               #
                  #                      Germany                        #
                  #                                                     #
                  #                  All rights reserved                #
                  #                        -***-                        #
                  #######################################################


                         Program Version 4.2.0 -  RELEASE  -


 With contributions from (in alphabetic order):
   Daniel Aravena         : Magnetic Suceptibility
   Michael Atanasov       : Ab Initio Ligand Field Theory (pilot matlab implementation)
   Alexander A. Auer      : GIAO ZORA, VPT2
   Ute Becker             : Parallelization
   Giovanni Bistoni       : ED, misc. LED, open-shell LED, HFLED
   Martin Brehm           : Molecular dynamics
   Dmytro Bykov           : SCF Hessian
   Vijay G. Chilkuri      : MRCI spin determinant printing, contributions to CSF-ICE
   Dipayan Datta          : RHF DLPNO-CCSD density
   Achintya Kumar Dutta   : EOM-CC, STEOM-CC
   Dmitry Ganyushin       : Spin-Orbit,Spin-Spin,Magnetic field MRCI
   Miquel Garcia          : C-PCM Hessian, Gaussian charge scheme
   Yang Guo               : DLPNO-NEVPT2, CIM, IAO-localization
   Andreas Hansen         : Spin unrestricted coupled pair/coupled cluster methods
   Benjamin Helmich-Paris : CASSCF linear response (MC-RPA)
   Lee Huntington         : MR-EOM, pCC
   Robert Izsak           : Overlap fitted RIJCOSX, COSX-SCS-MP3, EOM
   Christian Kollmar      : KDIIS, OOCD, Brueckner-CCSD(T), CCSD density
   Simone Kossmann        : Meta GGA functionals, TD-DFT gradient, OOMP2, MP2 Hessian
   Martin Krupicka        : AUTO-CI
   Lucas Lang             : DCDCAS
   Dagmar Lenk            : GEPOL surface, SMD
   Dimitrios Liakos       : Extrapolation schemes; Compound Job, initial MDCI parallelization
   Dimitrios Manganas     : Further ROCIS development; embedding schemes
   Dimitrios Pantazis     : SARC Basis sets
   Taras Petrenko         : DFT Hessian,TD-DFT gradient, ASA, ECA, R-Raman, ABS, FL, XAS/XES, NRVS
   Peter Pinski           : DLPNO-MP2, DLPNO-MP2 Gradient
   Christoph Reimann      : Effective Core Potentials
   Marius Retegan         : Local ZFS, SOC
   Christoph Riplinger    : Optimizer, TS searches, QM/MM, DLPNO-CCSD(T), (RO)-DLPNO pert. Triples
   Tobias Risthaus        : Range-separated hybrids, TD-DFT gradient, RPA, STAB
   Michael Roemelt        : Original ROCIS implementation
   Masaaki Saitow         : Open-shell DLPNO-CCSD energy and density
   Barbara Sandhoefer     : DKH picture change effects
   Avijit Sen             : IP-ROCIS
   Kantharuban Sivalingam : CASSCF convergence, NEVPT2, FIC-MRCI
   Bernardo de Souza      : ESD, SOC TD-DFT
   Georgi Stoychev        : AutoAux, RI-MP2 NMR
   Willem Van den Heuvel  : Paramagnetic NMR
   Boris Wezisla          : Elementary symmetry handling
   Frank Wennmohs         : Technical directorship


 We gratefully acknowledge several colleagues who have allowed us to
 interface, adapt or use parts of their codes:
   Stefan Grimme, W. Hujo, H. Kruse,             : VdW corrections, initial TS optimization,
                  C. Bannwarth                     DFT functionals, gCP, sTDA/sTD-DF
   Ed Valeev, F. Pavosevic, A. Kumar             : LibInt (2-el integral package), F12 methods
   Garnet Chan, S. Sharma, J. Yang, R. Olivares  : DMRG
   Ulf Ekstrom                                   : XCFun DFT Library
   Mihaly Kallay                                 : mrcc  (arbitrary order and MRCC methods)
   Andreas Klamt, Michael Diedenhofen            : otool_cosmo (COSMO solvation model)
   Jiri Pittner, Ondrej Demel                    : Mk-CCSD
   Frank Weinhold                                : gennbo (NPA and NBO analysis)
   Christopher J. Cramer and Donald G. Truhlar   : smd solvation model
   Lars Goerigk                                  : TD-DFT with DH, B97 family of functionals
   V. Asgeirsson, H. Jonsson                     : NEB implementation
   FAccTs GmbH                                   : IRC, NEB, NEB-TS, Multilevel, MM, QM/MM, CI optimization
   S Lehtola, MJT Oliveira, MAL Marques          : LibXC Library


 Your calculation uses the libint2 library for the computation of 2-el integrals
 For citations please refer to: http://libint.valeyev.net

 Your ORCA version has been built with support for libXC version: 4.2.3
 For citations please refer to: https://tddft.org/programs/libxc/

 This ORCA versions uses:
   CBLAS   interface :  Fast vector & matrix operations
   LAPACKE interface :  Fast linear algebra routines
   SCALAPACK package :  Parallel linear algebra routines


Your calculation utilizes the atom-pairwise dispersion correction
with the Becke-Johnson damping scheme (D3BJ)
Cite in your paper:
S.Grimme, S.Ehrlich, L.Goerigk, J Comput Chem, (2011), 32, 1456–1465 
S.Grimme, J.Antony, S.Ehrlich and H.Krieg, J.Chem.Phys., 132, (2010), 154104 
   

----- Orbital basis set information -----
Your calculation utilizes the basis: def2-TZVPPD
   F. Weigend and R. Ahlrichs, Phys. Chem. Chem. Phys. 7, 3297 (2005).
   D. Rappoport and F. Furche, J. Chem. Phys. 133 134105 (2010).

----- AuxJ basis set information -----
Your calculation utilizes the auxiliary basis: def2/J
   F. Weigend, Phys. Chem. Chem. Phys. 8, 1057 (2006).

cite the ECPs for Au [Def2-ECP] as follows:
Ce-Yb(ecp-28): M. Dolg, H. Stoll, H.Preuss, J. Chem. Phys., 1989, 90, 1730-1734.
Y-Cd(ecp-28), Hf-Hg(ecp-46): D. Andrae,U. Haeussermann, M. Dolg, H. Stoll, H. Preuss, Theor. Chim. Acta, 1990, 77, 123-141.
In-Sb(ecp-28), Tl-Bi(ecp-46): B. Metz, H. Stoll, M. Dolg, J. Chem. Phys., 2000, 113, 2563-2569.
Te-Xe(ecp-28), Po-Rn(ecp-46): K. A. Peterson, D. Figgen, E. Goll, H. Stoll, M. Dolg, J. Chem. Phys., 2003, 119, 11113-11123.
Rb(ecp-28), Cs(ecp-46): T. Leininger, A. Nicklass, W. Kuechle, H. Stoll, M. Dolg, A. Bergner, Chem. Phys. Lett., 1996, 255, 274-280.
Sr(ecp-28), Ba(ecp-46): M. Kaupp, P. V. Schleyer, H. Stoll and H. Preuss, J. Chem. Phys., 1991, 94, 1360-1366.
La(ecp-46): M. Dolg, H. Stoll, A. Savin, H. Preuss, Theor. Chim. Acta, 1989, 75, 173-194.
Lu(ecp-28): X. Cao, M. Dolg, J. Chem. Phys., 2001, 115, 7348-7355.

ECP parameters for Au [Def2-ECP] have been obtained from:
TURBOMOLE (7.0.2)

================================================================================
                                        WARNINGS
                       Please study these warnings very carefully!
================================================================================


WARNING: your system is open-shell and RHF/RKS was chosen
  ===> : WILL SWITCH to UHF/UKS


WARNING: Geometry Optimization
  ===> : Switching off AutoStart
         For restart on a previous wavefunction, please use MOREAD

INFO   : the flag for use of LIBINT has been found!

================================================================================
                                       INPUT FILE
================================================================================
NAME = Au03N0_D3H.in
|  1> #
|  2> # Au03N0_D3H TPSS-D3BJ/Def2-TZVPPD
|  3> #
|  4> ! tpss d3bj def2-tzvppd def2/j grid4 nofinalgrid opt xyzfile numfreq
|  5> 
|  6> *xyz 0 2
|  7> Au       0.000000    1.515176   -0.000000 
|  8> Au       1.312181   -0.757588    0.000000 
|  9> Au      -1.312181   -0.757588   -0.000000 
| 10> *
| 11> 
| 12> %maxcore 5000
| 13> 
| 14> %pal
| 15> nprocs = 24
| 16> end
| 17> 
| 18> 
| 19>                          ****END OF INPUT****
================================================================================

                       *****************************
                       * Geometry Optimization Run *
                       *****************************

Geometry optimization settings:
Update method            Update   .... BFGS
Choice of coordinates    CoordSys .... Z-matrix Internals
Initial Hessian          InHess   .... Almoef's Model

Convergence Tolerances:
Energy Change            TolE     ....  5.0000e-06 Eh
Max. Gradient            TolMAXG  ....  3.0000e-04 Eh/bohr
RMS Gradient             TolRMSG  ....  1.0000e-04 Eh/bohr
Max. Displacement        TolMAXD  ....  4.0000e-03 bohr
RMS Displacement         TolRMSD  ....  2.0000e-03 bohr
Strict Convergence                ....  False
------------------------------------------------------------------------------
                        ORCA OPTIMIZATION COORDINATE SETUP
------------------------------------------------------------------------------

The optimization will be done in new redundant internal coordinates
Making redundant internal coordinates   ...  (new redundants) done
Evaluating the initial hessian          ...  (Almloef) done
Evaluating the coordinates              ...  done
Calculating the B-matrix                .... done
Calculating the G-matrix                .... done
Diagonalizing the G-matrix              .... done
The first mode is                       ....    3
The number of degrees of freedom        ....    3

    -----------------------------------------------------------------
                    Redundant Internal Coordinates


    -----------------------------------------------------------------
         Definition                    Initial Value    Approx d2E/dq
    -----------------------------------------------------------------
      1. B(Au  1,Au  0)                  2.6244         0.012989   
      2. B(Au  2,Au  1)                  2.6244         0.012989   
      3. B(Au  2,Au  0)                  2.6244         0.012989   
      4. A(Au  1,Au  0,Au  2)           60.0000         0.154807   
      5. A(Au  0,Au  1,Au  2)           60.0000         0.154807   
      6. A(Au  0,Au  2,Au  1)           60.0000         0.154807   
    -----------------------------------------------------------------

Number of atoms                         .... 3
Number of degrees of freedom            .... 6

         *************************************************************
         *                GEOMETRY OPTIMIZATION CYCLE   1            *
         *************************************************************
---------------------------------
CARTESIAN COORDINATES (ANGSTROEM)
---------------------------------
  Au     0.000000    1.515176   -0.000000
  Au     1.312181   -0.757588    0.000000
  Au    -1.312181   -0.757588   -0.000000

----------------------------
CARTESIAN COORDINATES (A.U.)
----------------------------
  NO LB      ZA    FRAG     MASS         X           Y           Z
   0 Au   19.0000*   0   196.966    0.000000    2.863268   -0.000000
   1 Au   19.0000*   0   196.966    2.479663   -1.431634    0.000000
   2 Au   19.0000*   0   196.966   -2.479663   -1.431634   -0.000000
* core charge reduced due to ECP

--------------------------------
INTERNAL COORDINATES (ANGSTROEM)
--------------------------------
 Au     0   0   0     0.000000000000     0.00000000     0.00000000
 Au     1   0   0     2.624361860807     0.00000000     0.00000000
 Au     1   2   0     2.624361860807    60.00000351     0.00000000

---------------------------
INTERNAL COORDINATES (A.U.)
---------------------------
 Au     0   0   0     0.000000000000     0.00000000     0.00000000
 Au     1   0   0     4.959325193233     0.00000000     0.00000000
 Au     1   2   0     4.959325193233    60.00000351     0.00000000

---------------------
BASIS SET INFORMATION
---------------------
There are 1 groups of distinct atoms

 Group   1 Type Au  : 8s8p6d2f1g contracted to 6s5p3d2f1g pattern {311111/41111/411/11/1}

Atom   0Au   basis set group =>   1
Atom   1Au   basis set group =>   1
Atom   2Au   basis set group =>   1
---------------------------------
AUXILIARY/J BASIS SET INFORMATION
---------------------------------
There are 1 groups of distinct atoms

 Group   1 Type Au  : 11s5p5d3f3g contracted to 8s5p5d2f3g pattern {41111111/11111/11111/21/111}

Atom   0Au   basis set group =>   1
Atom   1Au   basis set group =>   1
Atom   2Au   basis set group =>   1
-------------------------
ECP PARAMETER INFORMATION
-------------------------

 Group 1, Type Au ECP Def2-ECP (replacing 60 core electrons, lmax=3)

Atom   0Au   ECP group =>   1
Atom   1Au   ECP group =>   1
Atom   2Au   ECP group =>   1



           ************************************************************
           *        Program running with 24 parallel MPI-processes    *
           *              working on a common directory               *
           ************************************************************
------------------------------------------------------------------------------
                           ORCA GTO INTEGRAL CALCULATION
                           -- RI-GTO INTEGRALS CHOSEN --
------------------------------------------------------------------------------

                         BASIS SET STATISTICS AND STARTUP INFO

Gaussian basis set:
 # of primitive gaussian shells          ...   75
 # of primitive gaussian functions       ...  255
 # of contracted shells                  ...   51
 # of contracted basis functions         ...  177
 Highest angular momentum                ...    4
 Maximum contraction depth               ...    4
Auxiliary gaussian basis set:
 # of primitive gaussian shells          ...   81
 # of primitive gaussian functions       ...  297
 # of contracted shells                  ...   69
 # of contracted aux-basis functions     ...  267
 Highest angular momentum                ...    4
 Maximum contraction depth               ...    4
Ratio of auxiliary to basis functions    ...  1.51
Integral package used                  ... LIBINT
 One Electron integrals                  
   ECP integrals                         ... done
 Ordering auxiliary basis shells         ... done
 Integral threshhold             Thresh  ...  2.500e-11
 Primitive cut-off               TCut    ...  2.500e-12
 Pre-screening matrix                    ... done
 Shell pair data                         ... 
 Ordering of the shell pairs             ... done (   0.000 sec) 1296 of 1326 pairs
 Determination of significant pairs      ... done (   0.000 sec)
 Creation of shell pair data             ... done (   0.000 sec)
 Storage of shell pair data              ... done (   0.011 sec)
 Shell pair data done in (   0.011 sec)
 Computing two index integrals           ... done
 Cholesky decomposition of the V-matrix  ... done


Timings:
 Total evaluation time                   ...   0.557 sec (  0.009 min)
 One electron matrix time                ...   0.381 sec (  0.006 min) = 68.4%
 Schwartz matrix evaluation time         ...   0.134 sec (  0.002 min) = 24.1%
 Two index repulsion integral time       ...   0.001 sec (  0.000 min) =  0.2%
 Cholesky decomposition of V             ...   0.001 sec (  0.000 min) =  0.3%
 Three index repulsion integral time     ...   0.000 sec (  0.000 min) =  0.0%



           ************************************************************
           *        Program running with 24 parallel MPI-processes    *
           *              working on a common directory               *
           ************************************************************
-------------------------------------------------------------------------------
                                 ORCA SCF
-------------------------------------------------------------------------------

------------
SCF SETTINGS
------------
Hamiltonian:
 Density Functional     Method          .... DFT(GTOs)
 Exchange Functional    Exchange        .... TPSS
 Correlation Functional Correlation     .... TPSS
 LDA part of GGA corr.  LDAOpt          .... PW91-LDA
 Gradients option       PostSCFGGA      .... off
   Density functional embedding theory  .... OFF
   NL short-range parameter             ....  5.000000
 RI-approximation to the Coulomb term is turned on
   Number of auxiliary basis functions  .... 267


General Settings:
 Integral files         IntName         .... Au03N0_D3H
 Hartree-Fock type      HFTyp           .... UHF
 Total Charge           Charge          ....    0
 Multiplicity           Mult            ....    2
 Number of Electrons    NEL             ....   57
 Basis Dimension        Dim             ....  177
 Nuclear Repulsion      ENuc            ....    218.3764803991 Eh

Convergence Acceleration:
 DIIS                   CNVDIIS         .... on
   Start iteration      DIISMaxIt       ....    12
   Startup error        DIISStart       ....  0.200000
   # of expansion vecs  DIISMaxEq       ....     5
   Bias factor          DIISBfac        ....   1.050
   Max. coefficient     DIISMaxC        ....  10.000
 Newton-Raphson         CNVNR           .... off
 SOSCF                  CNVSOSCF        .... off
 Level Shifting         CNVShift        .... on
   Level shift para.    LevelShift      ....    0.2500
   Turn off err/grad.   ShiftErr        ....    0.0010
 Zerner damping         CNVZerner       .... off
 Static damping         CNVDamp         .... on
   Fraction old density DampFac         ....    0.7000
   Max. Damping (<1)    DampMax         ....    0.9800
   Min. Damping (>=0)   DampMin         ....    0.0000
   Turn off err/grad.   DampErr         ....    0.1000
 Fernandez-Rico         CNVRico         .... off

SCF Procedure:
 Maximum # iterations   MaxIter         ....   125
 SCF integral mode      SCFMode         .... Direct
   Integral package                     .... LIBINT
 Reset frequency        DirectResetFreq ....    20
 Integral Threshold     Thresh          ....  2.500e-11 Eh
 Primitive CutOff       TCut            ....  2.500e-12 Eh

Convergence Tolerance:
 Convergence Check Mode ConvCheckMode   .... Total+1el-Energy
 Convergence forced     ConvForced      .... 0
 Energy Change          TolE            ....  1.000e-08 Eh
 1-El. energy change                    ....  1.000e-05 Eh
 DIIS Error             TolErr          ....  5.000e-07


Diagonalization of the overlap matrix:
Smallest eigenvalue                        ... 1.685e-03
Time for diagonalization                   ...    0.006 sec
Threshold for overlap eigenvalues          ... 1.000e-08
Number of eigenvalues below threshold      ... 0
Time for construction of square roots      ...    0.004 sec
Total time needed                          ...    0.010 sec

-------------------
DFT GRID GENERATION
-------------------

General Integration Accuracy     IntAcc      ...  4.670
Radial Grid Type                 RadialGrid  ... Gauss-Chebyshev
Angular Grid (max. acc.)         AngularGrid ... Lebedev-302
Angular grid pruning method      GridPruning ... 3 (G Style)
Weight generation scheme         WeightScheme... Becke
Basis function cutoff            BFCut       ...    1.0000e-11
Integration weight cutoff        WCut        ...    1.0000e-14
Grids for H and He will be reduced by one unit

# of grid points (after initial pruning)     ...  34956 (   0.0 sec)
# of grid points (after weights+screening)   ...  34814 (   0.0 sec)
nearest neighbour list constructed           ...    0.0 sec
Grid point re-assignment to atoms done       ...    0.0 sec
Grid point division into batches done        ...    0.3 sec
Reduced shell lists constructed in    0.3 sec

Total number of grid points                  ...    34814
Total number of batches                      ...      545
Average number of points per batch           ...       63
Average number of grid points per atom       ...    11605
Average number of shells per batch           ...     5.00 ( 9.80%)
Average number of basis functions per batch  ...    13.17 ( 7.44%)
Average number of large shells per batch     ...     3.00 (60.00%)
Average number of large basis fcns per batch ...     6.92 (52.53%)
Maximum spatial batch extension              ...  27.54, 22.91, 24.85 au
Average spatial batch extension              ...   0.73,  0.63,  0.66 au

Time for grid setup =    0.369 sec

------------------------------
INITIAL GUESS: MODEL POTENTIAL
------------------------------
Loading Hartree-Fock densities                     ... done
  calling /sw/apps/orca/orca_4_2_0_linux_x86-64_openmpi314/orca Au03N0_D3H_atom79.inp > Au03N0_D3H_atom79.out in order to generate an atomic fitting density for atom 0 (Au with ECP) on-the-fly... 
    atom 0 (Au), assumed electronic state with S=2: 1s2 2s2 2p6 3s2 3p6 4s2 3d10 4p6 5s2 4d10 5p6 6s1 4f14 5d10           ... done
Calculating cut-offs                               ... done
Setting up the integral package                    ... done
Initializing the effective Hamiltonian             ... done
Starting the Coulomb interaction                   ... done (   0.0 sec)
Reading the grid                                   ... done
Mapping shells                                     ... done
Starting the XC term evaluation                    ... done (   0.0 sec)
  promolecular density results
     # of electrons  =    237.007571951
     EX              =  -1097.415459146
     EC              =    -14.480828760
     EX+EC           =  -1111.896287906
Transforming the Hamiltonian                       ... done (   0.0 sec)
Diagonalizing the Hamiltonian                      ... done (   0.0 sec)
Back transforming the eigenvectors                 ... done (   0.0 sec)
Now organizing SCF variables                       ... done
                      ------------------
                      INITIAL GUESS DONE (   1.4 sec)
                      ------------------
--------------
SCF ITERATIONS
--------------
ITER       Energy         Delta-E        Max-DP      RMS-DP      [F,P]     Damp
               ***  Starting incremental Fock matrix formation  ***
  0   -406.7831516598   0.000000000000 0.15166485  0.00197460  0.5850178 0.7000
  1   -406.9496418258  -0.166490165998 0.09491222  0.00125858  0.3993679 0.7000
  2   -407.0050555978  -0.055413771945 0.05244247  0.00068934  0.2729766 0.7000
                               ***Turning on DIIS***
  3   -407.0450862815  -0.040030683683 0.03271693  0.00043715  0.1889810 0.7000
  4   -407.0754306955  -0.030344414008 0.02621882  0.00031502  0.1318962 0.7000
  5   -407.0965498806  -0.021119185116 0.05950445  0.00074846  0.0924007 0.0000
  6   -407.1457431935  -0.049193312909 0.00323897  0.00004280  0.0011539 0.0000
  7   -407.1457862994  -0.000043105895 0.38430478  0.00505939  0.0007651 0.0000
  8   -407.1264437503   0.019342549128 0.00003409  0.00000055  0.0381528 0.0000
  9   -407.1264212597   0.000022490533 0.00001773  0.00000027  0.0381706 0.0000
 10   -407.1264110192   0.000010240554 0.00001300  0.00000022  0.0381783 0.0000
 11   -407.1264045214   0.000006497788 0.00037534  0.00000683  0.0381725 0.0000
 12   -407.1264099571  -0.000005435674 0.10530550  0.00129985  0.0377274 0.0000
 13   -407.1312823674  -0.004872410293 0.01884751  0.00038908  0.0478009 0.0000
 14   -407.1431401968  -0.011857829473 0.01757733  0.00019829  0.0134490 0.0000
 15   -407.1448503216  -0.001710124727 0.00971548  0.00011555  0.0059469 0.0000
 16   -407.1453431761  -0.000492854555 0.00317048  0.00006088  0.0022877 0.0000
 17   -407.1454880098  -0.000144833738 0.00251792  0.00004626  0.0015169 0.0000
 18   -407.1455679743  -0.000079964435 0.37880609  0.00503267  0.0006977 0.0000
 19   -407.1255996620   0.019968312276 0.00056980  0.00000641  0.0417794 0.0000
               *** Restarting incremental Fock matrix formation ***
                                   *** Resetting DIIS ***
 20   -407.1258739189  -0.000274256868 0.10146284  0.00132866  0.0413817 0.0000
 21   -407.1269297033  -0.001055784406 0.02750409  0.00042379  0.0693956 0.0000
 22   -407.1422416436  -0.015311940326 0.02590752  0.00022457  0.0206484 0.0000
 23   -407.1448038495  -0.002562205854 0.01278136  0.00012280  0.0096606 0.0000
 24   -407.1454219190  -0.000618069585 0.00311285  0.00005889  0.0017419 0.0000
 25   -407.1455671997  -0.000145280703 0.00191756  0.00004531  0.0015281 0.0000
 26   -407.1456514499  -0.000084250179 0.37910679  0.00504571  0.0005583 0.0000
 27   -407.1265793176   0.019072132358 0.00021949  0.00000311  0.0384364 0.0000
 28   -407.1266980992  -0.000118781645 0.00010561  0.00000214  0.0382811 0.0000
 29   -407.1266939580   0.000004141190 0.00018050  0.00000256  0.0384461 0.0000
 30   -407.1266295483   0.000064409760 0.00006736  0.00000111  0.0384996 0.0000
 31   -407.1266123028   0.000017245422 0.10577649  0.00130257  0.0384665 0.0000
 32   -407.1313836309  -0.004771328046 0.01924670  0.00038845  0.0484889 0.0000
 33   -407.1432219538  -0.011838322957 0.01755322  0.00019575  0.0136590 0.0000
 34   -407.1448944728  -0.001672518960 0.00974295  0.00011316  0.0060135 0.0000
 35   -407.1453677013  -0.000473228495 0.00319980  0.00005849  0.0024166 0.0000
 36   -407.1455024750  -0.000134773689 0.00248213  0.00004401  0.0014895 0.0000
 37   -407.1455756273  -0.000073152349 0.37882372  0.00503224  0.0006969 0.0000
 38   -407.1256768372   0.019898790134 0.00057819  0.00000655  0.0417125 0.0000
 39   -407.1259571417  -0.000280304498 0.00012524  0.00000350  0.0413179 0.0000
               *** Restarting incremental Fock matrix formation ***
                                   *** Resetting DIIS ***
 40   -407.1259605640  -0.000003422341 0.10094071  0.00132105  0.0415046 0.0000
 41   -407.1271895174  -0.001228953317 0.02741941  0.00042128  0.0687236 0.0000
 42   -407.1423046376  -0.015115120252 0.02574702  0.00022328  0.0202468 0.0000
 43   -407.1448173764  -0.002512738808 0.01270424  0.00012210  0.0094865 0.0000
 44   -407.1454228713  -0.000605494903 0.00304792  0.00005873  0.0017117 0.0000
 45   -407.1455665525  -0.000143681163 0.00192471  0.00004529  0.0014976 0.0000
 46   -407.1456505629  -0.000084010412 0.37911037  0.00504579  0.0005449 0.0000
 47   -407.1265682215   0.019082341375 0.00021783  0.00000309  0.0384403 0.0000
 48   -407.1266862613  -0.000118039776 0.00010248  0.00000212  0.0382869 0.0000
 49   -407.1266792192   0.000007042066 0.00017565  0.00000249  0.0384518 0.0000
 50   -407.1266166882   0.000062531002 0.00006450  0.00000111  0.0384992 0.0000
 51   -407.1266010311   0.000015657096 0.10582731  0.00130319  0.0384630 0.0000
 52   -407.1313709004  -0.004769869286 0.01925826  0.00038859  0.0485238 0.0000
 53   -407.1432195945  -0.011848694069 0.01756686  0.00019585  0.0136616 0.0000
 54   -407.1448940757  -0.001674481193 0.00974586  0.00011318  0.0060184 0.0000
 55   -407.1453676456  -0.000473569916 0.00320427  0.00005851  0.0024172 0.0000
 56   -407.1455024823  -0.000134836706 0.00248407  0.00004402  0.0014907 0.0000
 57   -407.1455756499  -0.000073167600 0.37882383  0.00503225  0.0006973 0.0000
 58   -407.1256766654   0.019898984549 0.00057719  0.00000654  0.0417114 0.0000
 59   -407.1259565142  -0.000279848799 0.00012483  0.00000349  0.0413174 0.0000
               *** Restarting incremental Fock matrix formation ***
                                   *** Resetting DIIS ***
 60   -407.1259599583  -0.000003444143 0.10094522  0.00132110  0.0415029 0.0000
 61   -407.1271879383  -0.001227980029 0.02742039  0.00042129  0.0687278 0.0000
 62   -407.1423042591  -0.015116320741 0.02574796  0.00022329  0.0202490 0.0000
 63   -407.1448172837  -0.002513024587 0.01270494  0.00012211  0.0094876 0.0000
 64   -407.1454228580  -0.000605574327 0.00304796  0.00005873  0.0017118 0.0000
 65   -407.1455665474  -0.000143689448 0.00192470  0.00004529  0.0014980 0.0000
 66   -407.1456505620  -0.000084014538 0.37911050  0.00504579  0.0005449 0.0000
 67   -407.1265682358   0.019082326210 0.00021782  0.00000309  0.0384403 0.0000
 68   -407.1266862698  -0.000118034010 0.00010246  0.00000212  0.0382869 0.0000
 69   -407.1266792416   0.000007028145 0.00017568  0.00000249  0.0384518 0.0000
 70   -407.1266166989   0.000062542677 0.00006449  0.00000111  0.0384992 0.0000
 71   -407.1266010480   0.000015650922 0.10582730  0.00130319  0.0384630 0.0000
 72   -407.1313708960  -0.004769847945 0.01925825  0.00038859  0.0485238 0.0000
 73   -407.1432195926  -0.011848696638 0.01756686  0.00019585  0.0136616 0.0000
 74   -407.1448940749  -0.001674482257 0.00974588  0.00011318  0.0060184 0.0000
 75   -407.1453676456  -0.000473570741 0.00320426  0.00005851  0.0024172 0.0000
 76   -407.1455024821  -0.000134836536 0.00248407  0.00004402  0.0014907 0.0000
 77   -407.1455756499  -0.000073167731 0.37882384  0.00503225  0.0006973 0.0000
 78   -407.1256766652   0.019898984662 0.00057719  0.00000654  0.0417114 0.0000
 79   -407.1259565140  -0.000279848755 0.00012483  0.00000349  0.0413174 0.0000
               *** Restarting incremental Fock matrix formation ***
                                   *** Resetting DIIS ***
 80   -407.1259599584  -0.000003444392 0.10094522  0.00132110  0.0415029 0.0000
 81   -407.1271879379  -0.001227979575 0.02742039  0.00042129  0.0687278 0.0000
 82   -407.1423042587  -0.015116320810 0.02574796  0.00022329  0.0202490 0.0000
 83   -407.1448172835  -0.002513024780 0.01270494  0.00012211  0.0094876 0.0000
 84   -407.1454228579  -0.000605574369 0.00304796  0.00005873  0.0017118 0.0000
 85   -407.1455665474  -0.000143689494 0.00192470  0.00004529  0.0014980 0.0000
 86   -407.1456505619  -0.000084014538 0.37911050  0.00504579  0.0005449 0.0000
 87   -407.1265682363   0.019082325627 0.00021782  0.00000309  0.0384403 0.0000
 88   -407.1266862703  -0.000118034025 0.00010246  0.00000212  0.0382869 0.0000
 89   -407.1266792422   0.000007028143 0.00017568  0.00000249  0.0384518 0.0000
 90   -407.1266166995   0.000062542656 0.00006449  0.00000111  0.0384992 0.0000
 91   -407.1266010485   0.000015650971 0.10582730  0.00130319  0.0384630 0.0000
 92   -407.1313708966  -0.004769848017 0.01925825  0.00038859  0.0485238 0.0000
 93   -407.1432195927  -0.011848696172 0.01756686  0.00019585  0.0136616 0.0000
 94   -407.1448940749  -0.001674482166 0.00974588  0.00011318  0.0060184 0.0000
 95   -407.1453676456  -0.000473570714 0.00320426  0.00005851  0.0024172 0.0000
 96   -407.1455024822  -0.000134836539 0.00248407  0.00004402  0.0014907 0.0000
 97   -407.1455756498  -0.000073167651 0.37882384  0.00503225  0.0006973 0.0000
 98   -407.1256766652   0.019898984643 0.00057719  0.00000654  0.0417114 0.0000
 99   -407.1259565139  -0.000279848762 0.00012483  0.00000349  0.0413174 0.0000
               *** Restarting incremental Fock matrix formation ***
                                   *** Resetting DIIS ***
100   -407.1259599584  -0.000003444452 0.10094522  0.00132110  0.0415029 0.0000
101   -407.1271879380  -0.001227979622 0.02742039  0.00042129  0.0687278 0.0000
102   -407.1423042588  -0.015116320752 0.02574796  0.00022329  0.0202490 0.0000
103   -407.1448172835  -0.002513024770 0.01270494  0.00012211  0.0094876 0.0000
104   -407.1454228579  -0.000605574372 0.00304796  0.00005873  0.0017119 0.0000
105   -407.1455665474  -0.000143689488 0.00192471  0.00004529  0.0014980 0.0000
106   -407.1456505619  -0.000084014543 0.37911050  0.00504579  0.0005449 0.0000
107   -407.1265682363   0.019082325632 0.00021782  0.00000309  0.0384403 0.0000
108   -407.1266862703  -0.000118034033 0.00010246  0.00000212  0.0382869 0.0000
109   -407.1266792422   0.000007028148 0.00017568  0.00000249  0.0384518 0.0000
110   -407.1266166995   0.000062542654 0.00006449  0.00000111  0.0384992 0.0000
111   -407.1266010486   0.000015650971 0.10582730  0.00130319  0.0384630 0.0000
112   -407.1313708966  -0.004769848001 0.01925825  0.00038859  0.0485238 0.0000
113   -407.1432195927  -0.011848696180 0.01756686  0.00019585  0.0136616 0.0000
114   -407.1448940749  -0.001674482174 0.00974588  0.00011318  0.0060184 0.0000
115   -407.1453676456  -0.000473570721 0.00320426  0.00005851  0.0024172 0.0000
116   -407.1455024822  -0.000134836526 0.00248407  0.00004402  0.0014907 0.0000
117   -407.1455756498  -0.000073167666 0.37882384  0.00503225  0.0006973 0.0000
118   -407.1256766652   0.019898984644 0.00057719  0.00000654  0.0417114 0.0000
119   -407.1259565139  -0.000279848764 0.00012483  0.00000349  0.0413174 0.0000
               *** Restarting incremental Fock matrix formation ***
                                   *** Resetting DIIS ***
120   -407.1259599584  -0.000003444445 0.10094522  0.00132110  0.0415029 0.0000
121   -407.1271879380  -0.001227979622 0.02742039  0.00042129  0.0687278 0.0000
122   -407.1423042588  -0.015116320748 0.02574796  0.00022329  0.0202490 0.0000
123   -407.1448172835  -0.002513024763 0.01270494  0.00012211  0.0094876 0.0000
124   -407.1454228579  -0.000605574368 0.00304796  0.00005873  0.0017119 0.0000

               *****************************************************
               *                      ERROR                        *
               *        SCF NOT CONVERGED AFTER 125 CYCLES         *
               *****************************************************


---------------
SCF CONVERGENCE
---------------

  Last Energy change         ...   -6.0557e-04  Tolerance :   1.0000e-08
  Last MAX-Density change    ...    3.0480e-03  Tolerance :   1.0000e-07
  Last RMS-Density change    ...    5.8729e-05  Tolerance :   5.0000e-09
  Last DIIS Error            ...    1.7119e-03  Tolerance :   5.0000e-07

             **** DENSITY FILE WAS UPDATED (Au03N0_D3H.scfp) ****
             **** ENERGY FILE WAS UPDATED (Au03N0_D3H.en.tmp) ****

     --------------------------------------------------------------------
                                      WARNING
     The wavefunction IS NOT YET CONVERGED! It shows however signs of
     convergence. Therefore the wavefunction will be stored and can be
     used as input for another calculation. 
     DO NOT USE THIS WAVEFUNCTION  FOR ANYHTING ELSE. It is NOT RELIABLE
     --------------------------------------------------------------------

-------
TIMINGS
-------

Total SCF time: 0 days 0 hours 0 min 23 sec 

Total time                  ....      23.975 sec
Sum of individual times     ....      23.490 sec  ( 98.0%)

Fock matrix formation       ....      20.572 sec  ( 85.8%)
  Split-RI-J                ....      10.101 sec  ( 49.1% of F)
  XC integration            ....       9.761 sec  ( 47.4% of F)
    Basis function eval.    ....       0.558 sec  (  5.7% of XC)
    Density eval.           ....       1.684 sec  ( 17.3% of XC)
    XC-Functional eval.     ....       0.363 sec  (  3.7% of XC)
    XC-Potential eval.      ....       3.641 sec  ( 37.3% of XC)
Diagonalization             ....       1.012 sec  (  4.2%)
Density matrix formation    ....       0.151 sec  (  0.6%)
Population analysis         ....       0.000 sec  (  0.0%)
Initial guess               ....       1.015 sec  (  4.2%)
Orbital Transformation      ....       0.000 sec  (  0.0%)
Orbital Orthonormalization  ....       0.000 sec  (  0.0%)
DIIS solution               ....       0.370 sec  (  1.5%)
Grid generation             ....       0.369 sec  (  1.5%)


-------------------------------------------------------------------------------
                          DFT DISPERSION CORRECTION                            
                                                                               
                              DFTD3 V3.1  Rev 1                                
                          USING Becke-Johnson damping                          
-------------------------------------------------------------------------------
The TPSS functional is recognized
Active option DFTDOPT                   ...         4   

molecular C6(AA) [au] = 2854.410647 


            DFT-D V3
 parameters
 s6 scaling factor         :     1.0000 
 a1 scaling factor         :     0.4535 
 s8 scaling factor         :     1.9435 
 a2 scaling factor         :     4.4752 
 ad hoc parameters k1-k3   :    16.0000     1.3333    -4.0000 

 Edisp/kcal,au: -3.834202218170  -0.006110189515 
 E6   /kcal   :  -1.123356479 
 E8   /kcal   :  -2.710845739 
 % E8         :  70.701689289 

-------------------------   ----------------
Dispersion correction           -0.006110190
-------------------------   ----------------


-------------------------   --------------------
FINAL SINGLE POINT ENERGY      -407.151533047407   (Wavefunction not fully converged!)
-------------------------   --------------------



           ************************************************************
           *        Program running with 24 parallel MPI-processes    *
           *              working on a common directory               *
           ************************************************************
------------------------------------------------------------------------------
                         ORCA SCF GRADIENT CALCULATION
------------------------------------------------------------------------------

Gradient of the Kohn-Sham DFT energy:
Kohn-Sham wavefunction type      ... UKS
Hartree-Fock exchange scaling    ...    0.000
Number of operators              ...    2
Number of atoms                  ...    3
Basis set dimensions             ...  177
Integral neglect threshold       ... 2.5e-11
Integral primitive cutoff        ... 2.5e-12

Nuclear repulsion gradient       ... done
One Electron Gradient            
  ECP gradient                   ... done
Pre-screening matrix             ... done
RI-J gradient                    ... done
Exchange-correlation gradient    ... done
Dispersion correction            ... done

------------------
CARTESIAN GRADIENT
------------------

   1   Au  :   -0.000000322   -0.016906301    0.000000004
   2   Au  :    0.001751425    0.008529325    0.000000002
   3   Au  :   -0.001751082    0.008529913   -0.000000002

Difference to translation invariance:
           :    0.0000000207    0.0001529365    0.0000000034

Norm of the cartesian gradient     ...    0.0209156783
RMS gradient                       ...    0.0069718928
MAX gradient                       ...    0.0169063013

-------
TIMINGS
-------

Total SCF gradient time            ...        1.830 sec

One electron gradient       ....       1.268 sec  ( 69.3%)
Prescreening matrices       ....       0.045 sec  (  2.4%)
RI-J Coulomb gradient       ....       0.119 sec  (  6.5%)
XC gradient                 ....       0.190 sec  ( 10.4%)
------------------------------------------------------------------------------
                         ORCA GEOMETRY RELAXATION STEP
------------------------------------------------------------------------------

Reading the OPT-File                    .... done
Getting information on internals        .... done
Copying old internal coords+grads       .... done
Making the new internal coordinates     .... (new redundants).... done
Validating the new internal coordinates .... (new redundants).... done
Calculating the B-matrix                .... done
Calculating the G,G- and P matrices     .... done
Transforming gradient to internals      .... done
Projecting the internal gradient        .... done
Number of atoms                         ....   3
Number of internal coordinates          ....   6
Current Energy                          ....  -407.151533047 Eh
Current gradient norm                   ....     0.020915678 Eh/bohr
Maximum allowed component of the step   ....  0.300
Current trust radius                    ....  0.300
Evaluating the initial hessian          ....  (Almloef) done
Projecting the Hessian                  .... done
Forming the augmented Hessian           .... done
Diagonalizing the augmented Hessian     .... done
Last element of RFO vector              ....  0.890065475
Lowest eigenvalues of augmented Hessian:
 -0.007255850  0.015049107  0.028406677  0.033602290 1000.000000000
Length of the computed step             ....  0.512133896
Warning: the length of the step is outside the trust region - taking restricted step instead
The input lambda is                     ....    -0.007256
   iter:   1  x=   -0.015652  g=   20.520202 f(x)=     0.172281
   iter:   2  x=   -0.022789  g=    8.501402 f(x)=     0.060682
   iter:   3  x=   -0.025857  g=    4.827795 f(x)=     0.014810
   iter:   4  x=   -0.026233  g=    3.911991 f(x)=     0.001472
   iter:   5  x=   -0.026238  g=    3.816518 f(x)=     0.000018
   iter:   6  x=   -0.026238  g=    3.815337 f(x)=     0.000000
   iter:   7  x=   -0.026238  g=    3.815337 f(x)=     0.000000
The output lambda is                    ....    -0.026238 (7 iterations)
The final length of the internal step   ....  0.300000000
Converting the step to cartesian space:
 Initial RMS(Int)=    0.1224744871
Transforming coordinates:
 Iter   0:  RMS(Cart)=    0.0699393368 RMS(Int)=    0.1234336794
 Iter   1:  RMS(Cart)=    0.0005561698 RMS(Int)=    0.0011500945
 Iter   2:  RMS(Cart)=    0.0000034077 RMS(Int)=    0.0000072230
 Iter   3:  RMS(Cart)=    0.0000000143 RMS(Int)=    0.0000000233
done
Storing new coordinates                 .... done

                                .--------------------.
          ----------------------|Geometry convergence|-------------------------
          Item                value                   Tolerance       Converged
          ---------------------------------------------------------------------
          RMS gradient        0.0060040739            0.0001000000      NO
          MAX gradient        0.0091949463            0.0003000000      NO
          RMS step            0.1224744871            0.0020000000      NO
          MAX step            0.1992784969            0.0040000000      NO
          ........................................................
          Max(Bonds)      0.1055      Max(Angles)    3.58
          Max(Dihed)        0.00      Max(Improp)    0.00
          ---------------------------------------------------------------------

The optimization has not yet converged - more geometry cycles are needed


    ---------------------------------------------------------------------------
                         Redundant Internal Coordinates
                            (Angstroem and degrees)

        Definition                    Value    dE/dq     Step     New-Value
    ----------------------------------------------------------------------------
     1. B(Au  1,Au  0)                2.6244 -0.009194  0.1054    2.7298   
     2. B(Au  2,Au  1)                2.6244  0.005455 -0.0364    2.5879   
     3. B(Au  2,Au  0)                2.6244 -0.009195  0.1055    2.7298   
     4. A(Au  1,Au  0,Au  2)           60.00  0.003411   -3.58     56.42   
     5. A(Au  0,Au  1,Au  2)           60.00 -0.001706    1.79     61.79   
     6. A(Au  0,Au  2,Au  1)           60.00 -0.001705    1.79     61.79   
    ----------------------------------------------------------------------------

         *************************************************************
         *                GEOMETRY OPTIMIZATION CYCLE   2            *
         *************************************************************
---------------------------------
CARTESIAN COORDINATES (ANGSTROEM)
---------------------------------
  Au     0.000002    1.602700    0.000000
  Au     1.293730   -0.801348    0.000000
  Au    -1.293732   -0.801352    0.000000

----------------------------
CARTESIAN COORDINATES (A.U.)
----------------------------
  NO LB      ZA    FRAG     MASS         X           Y           Z
   0 Au   19.0000*   0   196.966    0.000004    3.028665    0.000000
   1 Au   19.0000*   0   196.966    2.444795   -1.514329    0.000000
   2 Au   19.0000*   0   196.966   -2.444798   -1.514335    0.000000
* core charge reduced due to ECP

--------------------------------
INTERNAL COORDINATES (ANGSTROEM)
--------------------------------
 Au     0   0   0     0.000000000000     0.00000000     0.00000000
 Au     1   0   0     2.730051568271     0.00000000     0.00000000
 Au     2   1   0     2.587461231200    61.71336435     0.00000000

---------------------------
INTERNAL COORDINATES (A.U.)
---------------------------
 Au     0   0   0     0.000000000000     0.00000000     0.00000000
 Au     1   0   0     5.159049795514     0.00000000     0.00000000
 Au     2   1   0     4.889593109107    61.71336435     0.00000000



           ************************************************************
           *        Program running with 24 parallel MPI-processes    *
           *              working on a common directory               *
           ************************************************************
 One Electron integrals                  ... done
 Pre-screening matrix                    ... done


           ************************************************************
           *        Program running with 24 parallel MPI-processes    *
           *              working on a common directory               *
           ************************************************************

Diagonalization of the overlap matrix:
Smallest eigenvalue                        ... 1.687e-03
Time for diagonalization                   ...    0.007 sec
Threshold for overlap eigenvalues          ... 1.000e-08
Number of eigenvalues below threshold      ... 0
Time for construction of square roots      ...    0.003 sec
Total time needed                          ...    0.010 sec

-------------------
DFT GRID GENERATION
-------------------

General Integration Accuracy     IntAcc      ...  4.670
Radial Grid Type                 RadialGrid  ... Gauss-Chebyshev
Angular Grid (max. acc.)         AngularGrid ... Lebedev-302
Angular grid pruning method      GridPruning ... 3 (G Style)
Weight generation scheme         WeightScheme... Becke
Basis function cutoff            BFCut       ...    1.0000e-11
Integration weight cutoff        WCut        ...    1.0000e-14
Grids for H and He will be reduced by one unit

# of grid points (after initial pruning)     ...  34956 (   0.0 sec)
# of grid points (after weights+screening)   ...  34822 (   0.0 sec)
nearest neighbour list constructed           ...    0.0 sec
Grid point re-assignment to atoms done       ...    0.0 sec
Grid point division into batches done        ...    0.3 sec
Reduced shell lists constructed in    0.3 sec

Total number of grid points                  ...    34822
Total number of batches                      ...      546
Average number of points per batch           ...       63
Average number of grid points per atom       ...    11607
Average number of shells per batch           ...     4.79 ( 9.40%)
Average number of basis functions per batch  ...    12.62 ( 7.13%)
Average number of large shells per batch     ...     2.92 (60.87%)
Average number of large basis fcns per batch ...     6.92 (54.79%)
Maximum spatial batch extension              ...  27.47, 23.15, 24.85 au
Average spatial batch extension              ...   0.73,  0.62,  0.67 au

Time for grid setup =    0.351 sec

--------------
SCF ITERATIONS
--------------
ITER       Energy         Delta-E        Max-DP      RMS-DP      [F,P]     Damp
               ***  Starting incremental Fock matrix formation  ***
  0   -407.1453283243   0.000000000000 0.00283542  0.00006687  0.1815305 0.7000
  1   -407.1459030274  -0.000574703103 0.00342269  0.00007124  0.1272066 0.7000
                               ***Turning on DIIS***
  2   -407.1463321190  -0.000429091598 0.01117942  0.00020733  0.0890680 0.0000
  3   -407.1473707589  -0.001038639937 0.00375686  0.00005200  0.0020132 0.0000
  4   -407.1474135167  -0.000042757759 0.00128784  0.00002846  0.0022674 0.0000
  5   -407.1474518244  -0.000038307721 0.00533366  0.00009781  0.0004340 0.0000
  6   -407.1475078908  -0.000056066425 0.00108074  0.00001945  0.0006997 0.0000
  7   -407.1475144318  -0.000006540982 0.00087597  0.00001827  0.0002559 0.0000
  8   -407.1475184330  -0.000004001203 0.00042633  0.00000949  0.0000770 0.0000
  9   -407.1475196357  -0.000001202696 0.00031236  0.00000630  0.0000349 0.0000
 10   -407.1475201082  -0.000000472514 0.00037816  0.00000626  0.0000264 0.0000
 11   -407.1475202640  -0.000000155732 0.00031335  0.00000457  0.0000525 0.0000
 12   -407.1475203312  -0.000000067275 0.00011911  0.00000255  0.0000115 0.0000
 13   -407.1475203781  -0.000000046910 0.00002965  0.00000062  0.0000113 0.0000
 14   -407.1475203833  -0.000000005116 0.00001773  0.00000039  0.0000070 0.0000
 15   -407.1475203850  -0.000000001745 0.00001449  0.00000031  0.0000045 0.0000
 16   -407.1475203857  -0.000000000730 0.00001841  0.00000027  0.0000023 0.0000
                 **** Energy Check signals convergence ****

               *****************************************************
               *                     SUCCESS                       *
               *           SCF CONVERGED AFTER  17 CYCLES          *
               *****************************************************

Total Energy       :         -407.14752039 Eh          -11079.04728 eV
  Last Energy change         ...    1.7525e-10  Tolerance :   1.0000e-08
  Last MAX-Density change    ...    1.7767e-05  Tolerance :   1.0000e-07
             **** THE GBW FILE WAS UPDATED (Au03N0_D3H.gbw) ****
             **** DENSITY FILE WAS UPDATED (Au03N0_D3H.scfp) ****
             **** ENERGY FILE WAS UPDATED (Au03N0_D3H.en.tmp) ****
----------------------
UHF SPIN CONTAMINATION
----------------------

Warning: in a DFT calculation there is little theoretical justification to 
         calculate <S**2> as in Hartree-Fock theory. We will do it anyways
         but you should keep in mind that the values have only limited relevance

Expectation value of <S**2>     :     0.764489
Ideal value S*(S+1) for S=0.5   :     0.750000
Deviation                       :     0.014489

             **** THE GBW FILE WAS UPDATED (Au03N0_D3H.gbw) ****
             **** DENSITY FILE WAS UPDATED (Au03N0_D3H.scfp) ****
Total SCF time: 0 days 0 hours 0 min 3 sec 


-------------------------------------------------------------------------------
                          DFT DISPERSION CORRECTION                            
                                                                               
                              DFTD3 V3.1  Rev 1                                
                          USING Becke-Johnson damping                          
-------------------------------------------------------------------------------
-------------------------   ----------------
Dispersion correction           -0.006094723
-------------------------   ----------------


-------------------------   --------------------
FINAL SINGLE POINT ENERGY      -407.153615108825
-------------------------   --------------------



           ************************************************************
           *        Program running with 24 parallel MPI-processes    *
           *              working on a common directory               *
           ************************************************************
------------------------------------------------------------------------------
                         ORCA SCF GRADIENT CALCULATION
------------------------------------------------------------------------------

Gradient of the Kohn-Sham DFT energy:
Kohn-Sham wavefunction type      ... UKS
Hartree-Fock exchange scaling    ...    0.000
Number of operators              ...    2
Number of atoms                  ...    3
Basis set dimensions             ...  177
Integral neglect threshold       ... 2.5e-11
Integral primitive cutoff        ... 2.5e-12

Nuclear repulsion gradient       ... done
One Electron Gradient            
  ECP gradient                   ... done
Pre-screening matrix             ... done
RI-J gradient                    ... done
Exchange-correlation gradient    ... done
Dispersion correction            ... done

------------------
CARTESIAN GRADIENT
------------------

   1   Au  :   -0.000001133    0.003054874   -0.000000004
   2   Au  :    0.003625668   -0.001418188    0.000000001
   3   Au  :   -0.003624513   -0.001416090   -0.000000000

Difference to translation invariance:
           :    0.0000000217    0.0002205953   -0.0000000028

Norm of the cartesian gradient     ...    0.0062953469
RMS gradient                       ...    0.0020984490
MAX gradient                       ...    0.0036256681

-------
TIMINGS
-------

Total SCF gradient time            ...        1.838 sec

One electron gradient       ....       1.275 sec  ( 69.4%)
Prescreening matrices       ....       0.045 sec  (  2.4%)
RI-J Coulomb gradient       ....       0.119 sec  (  6.5%)
XC gradient                 ....       0.176 sec  (  9.6%)
------------------------------------------------------------------------------
                         ORCA GEOMETRY RELAXATION STEP
------------------------------------------------------------------------------

Reading the OPT-File                    .... done
Getting information on internals        .... done
Copying old internal coords+grads       .... done
Making the new internal coordinates     .... (new redundants).... done
Validating the new internal coordinates .... (new redundants).... done
Calculating the B-matrix                .... done
Calculating the G,G- and P matrices     .... done
Transforming gradient to internals      .... done
Projecting the internal gradient        .... done
Number of atoms                         ....   3
Number of internal coordinates          ....   6
Current Energy                          ....  -407.153615109 Eh
Current gradient norm                   ....     0.006295347 Eh/bohr
Maximum allowed component of the step   ....  0.300
Current trust radius                    ....  0.300
Updating the Hessian (BFGS)             .... done
Forming the augmented Hessian           .... done
Diagonalizing the augmented Hessian     .... done
Last element of RFO vector              ....  0.982897519
Lowest eigenvalues of augmented Hessian:
 -0.000647910  0.017099421  0.028406677  0.054145601 147.747686012
Length of the computed step             ....  0.187357662
The final length of the internal step   ....  0.187357662
Converting the step to cartesian space:
 Initial RMS(Int)=    0.0764884450
Transforming coordinates:
 Iter   0:  RMS(Cart)=    0.0403545995 RMS(Int)=    0.0764077396
 Iter   1:  RMS(Cart)=    0.0001618867 RMS(Int)=    0.0003037473
 Iter   2:  RMS(Cart)=    0.0000011224 RMS(Int)=    0.0000022278
 Iter   3:  RMS(Cart)=    0.0000000056 RMS(Int)=    0.0000000113
done
Storing new coordinates                 .... done

                                .--------------------.
          ----------------------|Geometry convergence|-------------------------
          Item                value                   Tolerance       Converged
          ---------------------------------------------------------------------
          Energy change      -0.0020820614            0.0000050000      NO
          RMS gradient        0.0015056749            0.0001000000      NO
          MAX gradient        0.0027427714            0.0003000000      NO
          RMS step            0.0764884450            0.0020000000      NO
          MAX step            0.1706939237            0.0040000000      NO
          ........................................................
          Max(Bonds)      0.0903      Max(Angles)    1.60
          Max(Dihed)        0.00      Max(Improp)    0.00
          ---------------------------------------------------------------------

The optimization has not yet converged - more geometry cycles are needed


    ---------------------------------------------------------------------------
                         Redundant Internal Coordinates
                            (Angstroem and degrees)

        Definition                    Value    dE/dq     Step     New-Value
    ----------------------------------------------------------------------------
     1. B(Au  1,Au  0)                2.7301  0.001732 -0.0259    2.7041   
     2. B(Au  2,Au  1)                2.5875  0.002743 -0.0903    2.4971   
     3. B(Au  2,Au  0)                2.7301  0.001730 -0.0259    2.7042   
     4. A(Au  1,Au  0,Au  2)           56.57  0.000243   -1.60     54.98   
     5. A(Au  0,Au  1,Au  2)           61.71 -0.000122    0.80     62.51   
     6. A(Au  0,Au  2,Au  1)           61.71 -0.000121    0.80     62.51   
    ----------------------------------------------------------------------------

         *************************************************************
         *                GEOMETRY OPTIMIZATION CYCLE   3            *
         *************************************************************
---------------------------------
CARTESIAN COORDINATES (ANGSTROEM)
---------------------------------
  Au     0.000014    1.599114    0.000000
  Au     1.248531   -0.799544    0.000000
  Au    -1.248545   -0.799570    0.000000

----------------------------
CARTESIAN COORDINATES (A.U.)
----------------------------
  NO LB      ZA    FRAG     MASS         X           Y           Z
   0 Au   19.0000*   0   196.966    0.000027    3.021887    0.000000
   1 Au   19.0000*   0   196.966    2.359381   -1.510919    0.000000
   2 Au   19.0000*   0   196.966   -2.359408   -1.510968    0.000000
* core charge reduced due to ECP

--------------------------------
INTERNAL COORDINATES (ANGSTROEM)
--------------------------------
 Au     0   0   0     0.000000000000     0.00000000     0.00000000
 Au     1   0   0     2.704135977719     0.00000000     0.00000000
 Au     2   1   0     2.497075437545    62.50332467     0.00000000

---------------------------
INTERNAL COORDINATES (A.U.)
---------------------------
 Au     0   0   0     0.000000000000     0.00000000     0.00000000
 Au     1   0   0     5.110076426773     0.00000000     0.00000000
 Au     2   1   0     4.718788712702    62.50332467     0.00000000



           ************************************************************
           *        Program running with 24 parallel MPI-processes    *
           *              working on a common directory               *
           ************************************************************
 One Electron integrals                  ... done
 Pre-screening matrix                    ... done


           ************************************************************
           *        Program running with 24 parallel MPI-processes    *
           *              working on a common directory               *
           ************************************************************

Diagonalization of the overlap matrix:
Smallest eigenvalue                        ... 1.453e-03
Time for diagonalization                   ...    0.007 sec
Threshold for overlap eigenvalues          ... 1.000e-08
Number of eigenvalues below threshold      ... 0
Time for construction of square roots      ...    0.004 sec
Total time needed                          ...    0.011 sec

-------------------
DFT GRID GENERATION
-------------------

General Integration Accuracy     IntAcc      ...  4.670
Radial Grid Type                 RadialGrid  ... Gauss-Chebyshev
Angular Grid (max. acc.)         AngularGrid ... Lebedev-302
Angular grid pruning method      GridPruning ... 3 (G Style)
Weight generation scheme         WeightScheme... Becke
Basis function cutoff            BFCut       ...    1.0000e-11
Integration weight cutoff        WCut        ...    1.0000e-14
Grids for H and He will be reduced by one unit

# of grid points (after initial pruning)     ...  34956 (   0.0 sec)
# of grid points (after weights+screening)   ...  34828 (   0.0 sec)
nearest neighbour list constructed           ...    0.0 sec
Grid point re-assignment to atoms done       ...    0.0 sec
Grid point division into batches done        ...    0.3 sec
Reduced shell lists constructed in    0.3 sec

Total number of grid points                  ...    34828
Total number of batches                      ...      546
Average number of points per batch           ...       63
Average number of grid points per atom       ...    11609
Average number of shells per batch           ...     4.79 ( 9.40%)
Average number of basis functions per batch  ...    12.38 ( 6.99%)
Average number of large shells per batch     ...     2.83 (59.13%)
Average number of large basis fcns per batch ...     6.75 (54.55%)
Maximum spatial batch extension              ...  27.30, 24.11, 24.85 au
Average spatial batch extension              ...   0.74,  0.64,  0.67 au

Time for grid setup =    0.352 sec

--------------
SCF ITERATIONS
--------------
ITER       Energy         Delta-E        Max-DP      RMS-DP      [F,P]     Damp
               ***  Starting incremental Fock matrix formation  ***
  0   -407.1458850021   0.000000000000 0.00147284  0.00004088  0.1185574 0.7000
  1   -407.1461222848  -0.000237282665 0.00157452  0.00004011  0.0830667 0.7000
                               ***Turning on DIIS***
  2   -407.1462886726  -0.000166387875 0.00453052  0.00010943  0.0581529 0.0000
  3   -407.1466802265  -0.000391553839 0.00174661  0.00004047  0.0007878 0.0000
  4   -407.1466844998  -0.000004273315 0.00025435  0.00000779  0.0013136 0.0000
  5   -407.1466926435  -0.000008143679 0.00020859  0.00000579  0.0001924 0.0000
  6   -407.1466930796  -0.000000436151 0.00014426  0.00000305  0.0001220 0.0000
  7   -407.1466931337  -0.000000054112 0.00016612  0.00000246  0.0000829 0.0000
  8   -407.1466931755  -0.000000041813 0.00019985  0.00000276  0.0000270 0.0000
  9   -407.1466931736   0.000000001938 0.00011517  0.00000152  0.0000345 0.0000
 10   -407.1466931823  -0.000000008707 0.00001164  0.00000020  0.0000040 0.0000
                 **** Energy Check signals convergence ****

               *****************************************************
               *                     SUCCESS                       *
               *           SCF CONVERGED AFTER  11 CYCLES          *
               *****************************************************

Total Energy       :         -407.14669318 Eh          -11079.02477 eV
  Last Energy change         ...   -6.0777e-10  Tolerance :   1.0000e-08
  Last MAX-Density change    ...    6.8474e-06  Tolerance :   1.0000e-07
             **** THE GBW FILE WAS UPDATED (Au03N0_D3H.gbw) ****
             **** DENSITY FILE WAS UPDATED (Au03N0_D3H.scfp) ****
             **** ENERGY FILE WAS UPDATED (Au03N0_D3H.en.tmp) ****
----------------------
UHF SPIN CONTAMINATION
----------------------

Warning: in a DFT calculation there is little theoretical justification to 
         calculate <S**2> as in Hartree-Fock theory. We will do it anyways
         but you should keep in mind that the values have only limited relevance

Expectation value of <S**2>     :     0.764486
Ideal value S*(S+1) for S=0.5   :     0.750000
Deviation                       :     0.014486

             **** THE GBW FILE WAS UPDATED (Au03N0_D3H.gbw) ****
             **** DENSITY FILE WAS UPDATED (Au03N0_D3H.scfp) ****
Total SCF time: 0 days 0 hours 0 min 2 sec 


-------------------------------------------------------------------------------
                          DFT DISPERSION CORRECTION                            
                                                                               
                              DFTD3 V3.1  Rev 1                                
                          USING Becke-Johnson damping                          
-------------------------------------------------------------------------------
-------------------------   ----------------
Dispersion correction           -0.006105333
-------------------------   ----------------


-------------------------   --------------------
FINAL SINGLE POINT ENERGY      -407.152798516104
-------------------------   --------------------



           ************************************************************
           *        Program running with 24 parallel MPI-processes    *
           *              working on a common directory               *
           ************************************************************
------------------------------------------------------------------------------
                         ORCA SCF GRADIENT CALCULATION
------------------------------------------------------------------------------

Gradient of the Kohn-Sham DFT energy:
Kohn-Sham wavefunction type      ... UKS
Hartree-Fock exchange scaling    ...    0.000
Number of operators              ...    2
Number of atoms                  ...    3
Basis set dimensions             ...  177
Integral neglect threshold       ... 2.5e-11
Integral primitive cutoff        ... 2.5e-12

Nuclear repulsion gradient       ... done
One Electron Gradient            
  ECP gradient                   ... done
Pre-screening matrix             ... done
RI-J gradient                    ... done
Exchange-correlation gradient    ... done
Dispersion correction            ... done

------------------
CARTESIAN GRADIENT
------------------

   1   Au  :   -0.000000610   -0.001992239    0.000000002
   2   Au  :   -0.015749598    0.001099878   -0.000000006
   3   Au  :    0.015750190    0.001101357    0.000000001

Difference to translation invariance:
           :   -0.0000000176    0.0002089951   -0.0000000024

Norm of the cartesian gradient     ...    0.0224167359
RMS gradient                       ...    0.0074722453
MAX gradient                       ...    0.0157501898

-------
TIMINGS
-------

Total SCF gradient time            ...        1.845 sec

One electron gradient       ....       1.276 sec  ( 69.2%)
Prescreening matrices       ....       0.045 sec  (  2.4%)
RI-J Coulomb gradient       ....       0.119 sec  (  6.5%)
XC gradient                 ....       0.199 sec  ( 10.8%)
------------------------------------------------------------------------------
                         ORCA GEOMETRY RELAXATION STEP
------------------------------------------------------------------------------

Reading the OPT-File                    .... done
Getting information on internals        .... done
Copying old internal coords+grads       .... done
Making the new internal coordinates     .... (new redundants).... done
Validating the new internal coordinates .... (new redundants).... done
Calculating the B-matrix                .... done
Calculating the G,G- and P matrices     .... done
Transforming gradient to internals      .... done
Projecting the internal gradient        .... done
Number of atoms                         ....   3
Number of internal coordinates          ....   6
Current Energy                          ....  -407.152798516 Eh
Current gradient norm                   ....     0.022416736 Eh/bohr
Maximum allowed component of the step   ....  0.300
Current trust radius                    ....  0.300
Updating the Hessian (BFGS)             .... done
Forming the augmented Hessian           .... done
Diagonalizing the augmented Hessian     .... done
Last element of RFO vector              ....  0.989257524
Lowest eigenvalues of augmented Hessian:
 -0.002196363  0.028406673  0.048787410  0.100588628 141.541322839
Length of the computed step             ....  0.147770701
The final length of the internal step   ....  0.147770701
Converting the step to cartesian space:
 Initial RMS(Int)=    0.0603271359
Transforming coordinates:
 Iter   0:  RMS(Cart)=    0.0338158851 RMS(Int)=    0.0603620989
 Iter   1:  RMS(Cart)=    0.0001521330 RMS(Int)=    0.0002891908
 Iter   2:  RMS(Cart)=    0.0000009425 RMS(Int)=    0.0000018926
 Iter   3:  RMS(Cart)=    0.0000000040 RMS(Int)=    0.0000000082
done
Storing new coordinates                 .... done

                                .--------------------.
          ----------------------|Geometry convergence|-------------------------
          Item                value                   Tolerance       Converged
          ---------------------------------------------------------------------
          Energy change       0.0008165927            0.0000050000      NO
          RMS gradient        0.0060680204            0.0001000000      NO
          MAX gradient        0.0142783342            0.0003000000      NO
          RMS step            0.0603271359            0.0020000000      NO
          MAX step            0.1417781765            0.0040000000      NO
          ........................................................
          Max(Bonds)      0.0750      Max(Angles)    1.62
          Max(Dihed)        0.00      Max(Improp)    0.00
          ---------------------------------------------------------------------

The optimization has not yet converged - more geometry cycles are needed


    ---------------------------------------------------------------------------
                         Redundant Internal Coordinates
                            (Angstroem and degrees)

        Definition                    Value    dE/dq     Step     New-Value
    ----------------------------------------------------------------------------
     1. B(Au  1,Au  0)                2.7041 -0.001593  0.0087    2.7128   
     2. B(Au  2,Au  1)                2.4971 -0.014278  0.0750    2.5721   
     3. B(Au  2,Au  0)                2.7042 -0.001595  0.0087    2.7129   
     4. A(Au  1,Au  0,Au  2)           55.00 -0.002825    1.62     56.61   
     5. A(Au  0,Au  1,Au  2)           62.50  0.001412   -0.81     61.69   
     6. A(Au  0,Au  2,Au  1)           62.50  0.001413   -0.81     61.69   
    ----------------------------------------------------------------------------

         *************************************************************
         *                GEOMETRY OPTIMIZATION CYCLE   4            *
         *************************************************************
---------------------------------
CARTESIAN COORDINATES (ANGSTROEM)
---------------------------------
  Au     0.000016    1.592395    0.000000
  Au     1.286067   -0.796182    0.000000
  Au    -1.286082   -0.796212    0.000000

----------------------------
CARTESIAN COORDINATES (A.U.)
----------------------------
  NO LB      ZA    FRAG     MASS         X           Y           Z
   0 Au   19.0000*   0   196.966    0.000030    3.009190    0.000000
   1 Au   19.0000*   0   196.966    2.430314   -1.504567    0.000000
   2 Au   19.0000*   0   196.966   -2.430343   -1.504623    0.000000
* core charge reduced due to ECP

--------------------------------
INTERNAL COORDINATES (ANGSTROEM)
--------------------------------
 Au     0   0   0     0.000000000000     0.00000000     0.00000000
 Au     1   0   0     2.712789591903     0.00000000     0.00000000
 Au     2   1   0     2.572148882810    61.70187670     0.00000000

---------------------------
INTERNAL COORDINATES (A.U.)
---------------------------
 Au     0   0   0     0.000000000000     0.00000000     0.00000000
 Au     1   0   0     5.126429387648     0.00000000     0.00000000
 Au     2   1   0     4.860656964182    61.70187670     0.00000000



           ************************************************************
           *        Program running with 24 parallel MPI-processes    *
           *              working on a common directory               *
           ************************************************************
 One Electron integrals                  ... done
 Pre-screening matrix                    ... done


           ************************************************************
           *        Program running with 24 parallel MPI-processes    *
           *              working on a common directory               *
           ************************************************************

Diagonalization of the overlap matrix:
Smallest eigenvalue                        ... 1.637e-03
Time for diagonalization                   ...    0.007 sec
Threshold for overlap eigenvalues          ... 1.000e-08
Number of eigenvalues below threshold      ... 0
Time for construction of square roots      ...    0.003 sec
Total time needed                          ...    0.010 sec

-------------------
DFT GRID GENERATION
-------------------

General Integration Accuracy     IntAcc      ...  4.670
Radial Grid Type                 RadialGrid  ... Gauss-Chebyshev
Angular Grid (max. acc.)         AngularGrid ... Lebedev-302
Angular grid pruning method      GridPruning ... 3 (G Style)
Weight generation scheme         WeightScheme... Becke
Basis function cutoff            BFCut       ...    1.0000e-11
Integration weight cutoff        WCut        ...    1.0000e-14
Grids for H and He will be reduced by one unit

# of grid points (after initial pruning)     ...  34956 (   0.0 sec)
# of grid points (after weights+screening)   ...  34822 (   0.0 sec)
nearest neighbour list constructed           ...    0.0 sec
Grid point re-assignment to atoms done       ...    0.0 sec
Grid point division into batches done        ...    0.3 sec
Reduced shell lists constructed in    0.3 sec

Total number of grid points                  ...    34822
Total number of batches                      ...      545
Average number of points per batch           ...       63
Average number of grid points per atom       ...    11607
Average number of shells per batch           ...     4.79 ( 9.40%)
Average number of basis functions per batch  ...    12.62 ( 7.13%)
Average number of large shells per batch     ...     2.92 (60.87%)
Average number of large basis fcns per batch ...     6.92 (54.79%)
Maximum spatial batch extension              ...  27.44, 23.13, 24.85 au
Average spatial batch extension              ...   0.73,  0.62,  0.66 au

Time for grid setup =    0.358 sec

--------------
SCF ITERATIONS
--------------
ITER       Energy         Delta-E        Max-DP      RMS-DP      [F,P]     Damp
               ***  Starting incremental Fock matrix formation  ***
  0   -407.1470817609   0.000000000000 0.00124547  0.00003294  0.0950981 0.7000
  1   -407.1472403218  -0.000158560904 0.00134046  0.00003318  0.0666364 0.7000
                               ***Turning on DIIS***
  2   -407.1473553698  -0.000115047994 0.00386876  0.00009287  0.0466519 0.0000
  3   -407.1476295915  -0.000274221786 0.00147861  0.00003744  0.0005768 0.0000
  4   -407.1476354876  -0.000005896015 0.00022759  0.00000810  0.0009241 0.0000
  5   -407.1476392554  -0.000003767807 0.00028536  0.00000600  0.0001752 0.0000
  6   -407.1476392924  -0.000000036989 0.00080875  0.00001180  0.0001500 0.0000
  7   -407.1476392363   0.000000056043 0.00085688  0.00001223  0.0001334 0.0000
  8   -407.1476393941  -0.000000157749 0.00037438  0.00000540  0.0000663 0.0000
  9   -407.1476394254  -0.000000031320 0.00012830  0.00000185  0.0000374 0.0000
 10   -407.1476394313  -0.000000005909 0.00002666  0.00000048  0.0000229 0.0000
 11   -407.1476394350  -0.000000003667 0.00000275  0.00000006  0.0000037 0.0000
 12   -407.1476394348   0.000000000123 0.00000286  0.00000005  0.0000017 0.0000
                            ***DIIS convergence achieved***

               *****************************************************
               *                     SUCCESS                       *
               *           SCF CONVERGED AFTER  13 CYCLES          *
               *****************************************************

Total Energy       :         -407.14763943 Eh          -11079.05052 eV
  Last Energy change         ...    1.2367e-09  Tolerance :   1.0000e-08
  Last MAX-Density change    ...    2.7827e-06  Tolerance :   1.0000e-07
             **** THE GBW FILE WAS UPDATED (Au03N0_D3H.gbw) ****
             **** DENSITY FILE WAS UPDATED (Au03N0_D3H.scfp) ****
             **** ENERGY FILE WAS UPDATED (Au03N0_D3H.en.tmp) ****
----------------------
UHF SPIN CONTAMINATION
----------------------

Warning: in a DFT calculation there is little theoretical justification to 
         calculate <S**2> as in Hartree-Fock theory. We will do it anyways
         but you should keep in mind that the values have only limited relevance

Expectation value of <S**2>     :     0.764961
Ideal value S*(S+1) for S=0.5   :     0.750000
Deviation                       :     0.014961

             **** THE GBW FILE WAS UPDATED (Au03N0_D3H.gbw) ****
             **** DENSITY FILE WAS UPDATED (Au03N0_D3H.scfp) ****
Total SCF time: 0 days 0 hours 0 min 2 sec 


-------------------------------------------------------------------------------
                          DFT DISPERSION CORRECTION                            
                                                                               
                              DFTD3 V3.1  Rev 1                                
                          USING Becke-Johnson damping                          
-------------------------------------------------------------------------------
-------------------------   ----------------
Dispersion correction           -0.006099037
-------------------------   ----------------


-------------------------   --------------------
FINAL SINGLE POINT ENERGY      -407.153738470530
-------------------------   --------------------



           ************************************************************
           *        Program running with 24 parallel MPI-processes    *
           *              working on a common directory               *
           ************************************************************
------------------------------------------------------------------------------
                         ORCA SCF GRADIENT CALCULATION
------------------------------------------------------------------------------

Gradient of the Kohn-Sham DFT energy:
Kohn-Sham wavefunction type      ... UKS
Hartree-Fock exchange scaling    ...    0.000
Number of operators              ...    2
Number of atoms                  ...    3
Basis set dimensions             ...  177
Integral neglect threshold       ... 2.5e-11
Integral primitive cutoff        ... 2.5e-12

Nuclear repulsion gradient       ... done
One Electron Gradient            
  ECP gradient                   ... done
Pre-screening matrix             ... done
RI-J gradient                    ... done
Exchange-correlation gradient    ... done
Dispersion correction            ... done

------------------
CARTESIAN GRADIENT
------------------

   1   Au  :   -0.000001144    0.000288006   -0.000000002
   2   Au  :    0.000174918   -0.000035862    0.000000008
   3   Au  :   -0.000173790   -0.000033666   -0.000000000

Difference to translation invariance:
           :   -0.0000000161    0.0002184783    0.0000000052

Norm of the cartesian gradient     ...    0.0003823190
RMS gradient                       ...    0.0001274397
MAX gradient                       ...    0.0002880062

-------
TIMINGS
-------

Total SCF gradient time            ...        1.855 sec

One electron gradient       ....       1.289 sec  ( 69.5%)
Prescreening matrices       ....       0.045 sec  (  2.4%)
RI-J Coulomb gradient       ....       0.119 sec  (  6.4%)
XC gradient                 ....       0.192 sec  ( 10.4%)
------------------------------------------------------------------------------
                         ORCA GEOMETRY RELAXATION STEP
------------------------------------------------------------------------------

Reading the OPT-File                    .... done
Getting information on internals        .... done
Copying old internal coords+grads       .... done
Making the new internal coordinates     .... (new redundants).... done
Validating the new internal coordinates .... (new redundants).... done
Calculating the B-matrix                .... done
Calculating the G,G- and P matrices     .... done
Transforming gradient to internals      .... done
Projecting the internal gradient        .... done
Number of atoms                         ....   3
[...]
      dyz     :     1.976932
      dx2y2   :     1.972471
      dxy     :     1.883323
      f0      :     0.001114  f :     0.013283
      f+1     :     0.000770
      f-1     :     0.002325
      f+2     :     0.000662
      f-2     :     0.001460
      f+3     :     0.004491
      f-3     :     0.002461
      g0      :     0.000015  g :     0.000164
      g+1     :     0.000007
      g-1     :     0.000019
      g+2     :     0.000012
      g-2     :     0.000020
      g+3     :     0.000016
      g-3     :     0.000003
      g+4     :     0.000029
      g-4     :     0.000043
  1 Aus       :     2.712925  s :     2.712925
      pz      :     2.027237  p :     6.342180
      px      :     2.110931
      py      :     2.204012
      dz2     :     1.989654  d :     9.891480
      dxz     :     1.981083
      dyz     :     1.990946
      dx2y2   :     1.957839
      dxy     :     1.971958
      f0      :     0.001674  f :     0.019041
      f+1     :     0.002291
      f-1     :     0.001410
      f+2     :     0.002256
      f-2     :     0.000978
      f+3     :     0.006588
      f-3     :     0.003844
      g0      :     0.000018  g :     0.000240
      g+1     :     0.000026
      g-1     :     0.000010
      g+2     :     0.000031
      g-2     :     0.000016
      g+3     :     0.000026
      g-3     :     0.000006
      g+4     :     0.000058
      g-4     :     0.000051
  2 Aus       :     2.713016  s :     2.713016
      pz      :     2.027232  p :     6.342189
      px      :     2.110954
      py      :     2.204003
      dz2     :     1.989659  d :     9.891441
      dxz     :     1.981081
      dyz     :     1.990947
      dx2y2   :     1.957806
      dxy     :     1.971949
      f0      :     0.001673  f :     0.019038
      f+1     :     0.002291
      f-1     :     0.001409
      f+2     :     0.002256
      f-2     :     0.000978
      f+3     :     0.006587
      f-3     :     0.003843
      g0      :     0.000018  g :     0.000240
      g+1     :     0.000026
      g-1     :     0.000010
      g+2     :     0.000031
      g-2     :     0.000016
      g+3     :     0.000026
      g-3     :     0.000006
      g+4     :     0.000058
      g-4     :     0.000051

SPIN
  0 Aus       :     0.338716  s :     0.338716
      pz      :     0.000627  p :     0.151170
      px      :     0.001880
      py      :     0.148662
      dz2     :     0.009669  d :     0.050189
      dxz     :     0.000010
      dyz     :     0.000947
      dx2y2   :     0.012073
      dxy     :     0.027490
      f0      :    -0.000004  f :     0.000391
      f+1     :     0.000009
      f-1     :     0.000367
      f+2     :     0.000003
      f-2     :    -0.000014
      f+3     :     0.000046
      f-3     :    -0.000017
      g0      :     0.000002  g :     0.000010
      g+1     :     0.000000
      g-1     :     0.000001
      g+2     :     0.000001
      g-2     :     0.000001
      g+3     :     0.000000
      g-3     :     0.000000
      g+4     :     0.000002
      g-4     :     0.000001
  1 Aus       :     0.061023  s :     0.061023
      pz      :    -0.000107  p :     0.133752
      px      :    -0.002322
      py      :     0.136181
      dz2     :     0.004001  d :     0.034252
      dxz     :    -0.000367
      dyz     :    -0.000303
      dx2y2   :     0.012924
      dxy     :     0.017997
      f0      :    -0.000001  f :     0.000656
      f+1     :    -0.000029
      f-1     :     0.000230
      f+2     :    -0.000006
      f-2     :    -0.000002
      f+3     :     0.000490
      f-3     :    -0.000027
      g0      :     0.000001  g :     0.000003
      g+1     :    -0.000000
      g-1     :     0.000000
      g+2     :    -0.000000
      g-2     :     0.000001
      g+3     :    -0.000000
      g-3     :    -0.000000
      g+4     :    -0.000002
      g-4     :     0.000003
  2 Aus       :     0.061175  s :     0.061175
      pz      :    -0.000106  p :     0.133764
      px      :    -0.002308
      py      :     0.136178
      dz2     :     0.004005  d :     0.034241
      dxz     :    -0.000367
      dyz     :    -0.000302
      dx2y2   :     0.012904
      dxy     :     0.018001
      f0      :    -0.000001  f :     0.000655
      f+1     :    -0.000029
      f-1     :     0.000230
      f+2     :    -0.000006
      f-2     :    -0.000002
      f+3     :     0.000490
      f-3     :    -0.000027
      g0      :     0.000001  g :     0.000003
      g+1     :    -0.000000
      g-1     :     0.000000
      g+2     :    -0.000000
      g-2     :     0.000001
      g+3     :    -0.000000
      g-3     :    -0.000000
      g+4     :    -0.000002
      g-4     :     0.000003


                      *****************************
                      * MAYER POPULATION ANALYSIS *
                      *****************************

  NA   - Mulliken gross atomic population
  ZA   - Total nuclear charge
  QA   - Mulliken gross atomic charge
  VA   - Mayer's total valence
  BVA  - Mayer's bonded valence
  FA   - Mayer's free valence

  ATOM       NA         ZA         QA         VA         BVA        FA
  0 Au    19.1027    19.0000    -0.1027     1.5977     1.2178     0.3799
  1 Au    18.9486    19.0000     0.0514     1.5157     1.4529     0.0628
  2 Au    18.9487    19.0000     0.0513     1.5158     1.4528     0.0629

  Mayer bond orders larger than 0.100000
B(  0-Au,  1-Au) :   0.6089 B(  0-Au,  2-Au) :   0.6089 B(  1-Au,  2-Au) :   0.8440 


-------
TIMINGS
-------

Total SCF time: 0 days 0 hours 0 min 2 sec 

Total time                  ....       2.224 sec
Sum of individual times     ....       2.071 sec  ( 93.1%)

Fock matrix formation       ....       1.576 sec  ( 70.8%)
  Split-RI-J                ....       0.924 sec  ( 58.6% of F)
  XC integration            ....       0.500 sec  ( 31.7% of F)
    Basis function eval.    ....       0.040 sec  (  8.1% of XC)
    Density eval.           ....       0.113 sec  ( 22.5% of XC)
    XC-Functional eval.     ....       0.027 sec  (  5.5% of XC)
    XC-Potential eval.      ....       0.182 sec  ( 36.5% of XC)
Diagonalization             ....       0.082 sec  (  3.7%)
Density matrix formation    ....       0.013 sec  (  0.6%)
Population analysis         ....       0.010 sec  (  0.4%)
Initial guess               ....       0.018 sec  (  0.8%)
Orbital Transformation      ....       0.000 sec  (  0.0%)
Orbital Orthonormalization  ....       0.010 sec  (  0.5%)
DIIS solution               ....       0.024 sec  (  1.1%)
Grid generation             ....       0.349 sec  ( 15.7%)


-------------------------------------------------------------------------------
                          DFT DISPERSION CORRECTION                            
                                                                               
                              DFTD3 V3.1  Rev 1                                
                          USING Becke-Johnson damping                          
-------------------------------------------------------------------------------
The TPSS functional is recognized
Active option DFTDOPT                   ...         4   

molecular C6(AA) [au] = 2854.414737 


            DFT-D V3
 parameters
 s6 scaling factor         :     1.0000 
 a1 scaling factor         :     0.4535 
 s8 scaling factor         :     1.9435 
 a2 scaling factor         :     4.4752 
 ad hoc parameters k1-k3   :    16.0000     1.3333    -4.0000 

 Edisp/kcal,au: -3.827368430525  -0.006099299183 
 E6   /kcal   :  -1.120047495 
 E8   /kcal   :  -2.707320935 
 % E8         :  70.735832842 

-------------------------   ----------------
Dispersion correction           -0.006099299
-------------------------   ----------------


-------------------------   --------------------
FINAL SINGLE POINT ENERGY      -407.153739779984
-------------------------   --------------------

                                *** OPTIMIZATION RUN DONE ***

                            ***************************************
                            *     ORCA property calculations      *
                            ***************************************

                                    ---------------------
                                    Active property flags
                                    ---------------------
   (+) Dipole Moment


------------------------------------------------------------------------------
                       ORCA ELECTRIC PROPERTIES CALCULATION
------------------------------------------------------------------------------

Dipole Moment Calculation                       ... on
Quadrupole Moment Calculation                   ... off
Polarizability Calculation                      ... off
GBWName                                         ... Au03N0_D3H.gbw
Electron density file                           ... Au03N0_D3H.scfp
The origin for moment calculation is the CENTER OF MASS  = ( 0.000000,  0.000000  0.000000)

-------------
DIPOLE MOMENT
-------------
                                X             Y             Z
Electronic contribution:      0.00024      -0.49272      -0.00000
Nuclear contribution   :      0.00000       0.00000       0.00000
                        -----------------------------------------
Total Dipole Moment    :      0.00024      -0.49272      -0.00000
                        -----------------------------------------
Magnitude (a.u.)       :      0.49272
Magnitude (Debye)      :      1.25240



--------------------
Rotational spectrum 
--------------------
 
Rotational constants in cm-1:     0.025883     0.022525     0.012044 
Rotational constants in MHz :   775.948949   675.293062   361.065169 

 Dipole components along the rotational axes: 
x,y,z [a.u.] :     0.492723    -0.000374    -0.000000 
x,y,z [Debye]:     1.252401    -0.000951    -0.000000 

 

----------------------------------------------------------------------------
                           ORCA NUMERICAL FREQUENCIES
                              (24-process run)
----------------------------------------------------------------------------

Number of atoms                ... 3
Central differences            ... used
Number of displacements        ... 18
Numerical increment            ... 5.000e-03 bohr
IR-spectrum generation         ... on
Raman-spectrum generation      ... off
Surface Crossing Hessian       ... off

 WARNING: There are more processes than displacements to do
  ====> : Reducing number of processes to   9

The output will be reduced. Please look at the following files:
SCF program output             ... >Au03N0_D3H.lastscf
Integral program output        ... >Au03N0_D3H.lastint
Gradient program output        ... >Au03N0_D3H.lastgrad
Dipole moment program output   ... >Au03N0_D3H.lastmom
AutoCI program output          ... >Au03N0_D3H.lastautoci


         <<< Energy and Gradient at the input geometry >>>

        <<< Energy and Gradient at displaced geometries >>>
             <<<Displacing   2/coordinate 2 (+)>>>
             <<<Displacing   2/coordinate 1 (+)>>>
             <<<Displacing   1/coordinate 1 (+)>>>
             <<<Displacing   1/coordinate 3 (+)>>>
             <<<Displacing   3/coordinate 2 (+)>>>
             <<<Displacing   3/coordinate 3 (+)>>>
             <<<Displacing   3/coordinate 1 (+)>>>
             <<<Displacing   2/coordinate 3 (+)>>>
             <<<Displacing   1/coordinate 2 (+)>>>
             <<<Displacing   2/coordinate 3 (-)>>>
             <<<Displacing   3/coordinate 3 (-)>>>
             <<<Displacing   2/coordinate 1 (-)>>>
             <<<Displacing   1/coordinate 3 (-)>>>
             <<<Displacing   3/coordinate 1 (-)>>>
             <<<Displacing   1/coordinate 1 (-)>>>
             <<<Displacing   3/coordinate 2 (-)>>>
             <<<Displacing   2/coordinate 2 (-)>>>
             <<<Displacing   1/coordinate 2 (-)>>>

-----------------------
VIBRATIONAL FREQUENCIES
-----------------------

Scaling factor for frequencies =  1.000000000 (already applied!)

   0:         0.00 cm**-1
   1:         0.00 cm**-1
   2:         0.00 cm**-1
   3:         0.00 cm**-1
   4:         0.00 cm**-1
   5:         0.00 cm**-1
   6:      -110.05 cm**-1 ***imaginary mode***
   7:       110.22 cm**-1
   8:       168.64 cm**-1


------------
NORMAL MODES
------------

These modes are the cartesian displacements weighted by the diagonal matrix
M(i,i)=1/sqrt(m[i]) where m[i] is the mass of the displaced atom
Thus, these vectors are normalized but *not* orthogonal

                  0          1          2          3          4          5    
      0       0.000000   0.000000   0.000000   0.000000   0.000000   0.000000
      1       0.000000   0.000000   0.000000   0.000000   0.000000   0.000000
      2       0.000000   0.000000   0.000000   0.000000   0.000000   0.000000
      3       0.000000   0.000000   0.000000   0.000000   0.000000   0.000000
      4       0.000000   0.000000   0.000000   0.000000   0.000000   0.000000
      5       0.000000   0.000000   0.000000   0.000000   0.000000   0.000000
      6       0.000000   0.000000   0.000000   0.000000   0.000000   0.000000
      7       0.000000   0.000000   0.000000   0.000000   0.000000   0.000000
      8       0.000000   0.000000   0.000000   0.000000   0.000000   0.000000
                   6          7          8    
      0       0.556968   0.000028  -0.000153
      1       0.000065   0.745888   0.332140
      2       0.000000   0.000000   0.000000
      3      -0.278303  -0.287656   0.646035
      4       0.517016  -0.372937  -0.166204
      5       0.000000   0.000000   0.000000
      6      -0.278665   0.287628  -0.645882
      7      -0.517082  -0.372952  -0.165936
      8       0.000000   0.000000   0.000000


-----------
IR SPECTRUM  
-----------

 Mode    freq (cm**-1)   T**2         TX         TY         TZ
-------------------------------------------------------------------
   7:       110.22    0.136332  (  0.010247  -0.369089   0.000003)
   8:       168.64    0.018618  (  0.009439  -0.136121  -0.000006)

The first frequency considered to be a vibration is 7
The total number of vibrations considered is 2


--------------------------
THERMOCHEMISTRY AT 298.15K
--------------------------

Temperature         ... 298.15 K
Pressure            ... 1.00 atm
Total Mass          ... 590.90 AMU

Throughout the following assumptions are being made:
  (1) The electronic state is orbitally nondegenerate
      but the spin degeneracy is treated
  (2) There are no thermally accessible electronically excited states
  (3) Hindered rotations indicated by low frequency modes are not
      treated as such but are treated as vibrations and this may
      cause some error
  (4) All equations used are the standard statistical mechanics
      equations for an ideal gas
  (5) All vibrations are strictly harmonic

freq.     110.22  E(vib)   ...       0.45 
freq.     168.64  E(vib)   ...       0.38 

------------
INNER ENERGY
------------

The inner energy is: U= E(el) + E(ZPE) + E(vib) + E(rot) + E(trans)
    E(el)   - is the total energy from the electronic structure calculation
              = E(kin-el) + E(nuc-el) + E(el-el) + E(nuc-nuc)
    E(ZPE)  - the the zero temperature vibrational energy from the frequency calculation
    E(vib)  - the the finite temperature correction to E(ZPE) due to population
              of excited vibrational states
    E(rot)  - is the rotational thermal energy
    E(trans)- is the translational thermal energy

Summary of contributions to the inner energy U:
Electronic energy                ...   -407.15373978 Eh
Zero point energy                ...      0.00063530 Eh       0.40 kcal/mol
Thermal vibrational correction   ...      0.00132682 Eh       0.83 kcal/mol
Thermal rotational correction    ...      0.00141627 Eh       0.89 kcal/mol
Thermal translational correction ...      0.00141627 Eh       0.89 kcal/mol
-----------------------------------------------------------------------
Total thermal energy                   -407.14894512 Eh


Summary of corrections to the electronic energy:
(perhaps to be used in another calculation)
Total thermal correction                  0.00415936 Eh       2.61 kcal/mol
Non-thermal (ZPE) correction              0.00063530 Eh       0.40 kcal/mol
-----------------------------------------------------------------------
Total correction                          0.00479466 Eh       3.01 kcal/mol


--------
ENTHALPY
--------

The enthalpy is H = U + kB*T
                kB is Boltzmann's constant
Total free energy                 ...   -407.14894512 Eh 
Thermal Enthalpy correction       ...      0.00094421 Eh       0.59 kcal/mol
-----------------------------------------------------------------------
Total Enthalpy                    ...   -407.14800091 Eh


Note: Rotational entropy computed according to Herzberg 
Infrared and Raman Spectra, Chapter V,1, Van Nostrand Reinhold, 1945 
Point Group:  Cs, Symmetry Number:   1  
Rotational constants in cm-1:     0.025883     0.022525     0.012044 

Vibrational entropy computed according to the QRRHO of S. Grimme
Chem.Eur.J. 2012 18 9955


-------
ENTROPY
-------

The entropy contributions are T*S = T*(S(el)+S(vib)+S(rot)+S(trans))
     S(el)   - electronic entropy
     S(vib)  - vibrational entropy
     S(rot)  - rotational entropy
     S(trans)- translational entropy
The entropies will be listed as mutliplied by the temperature to get
units of energy

Electronic entropy                ...      0.00065446 Eh      0.41 kcal/mol
Vibrational entropy               ...      0.00261248 Eh      1.64 kcal/mol
Rotational entropy                ...      0.01511287 Eh      9.48 kcal/mol
Translational entropy             ...      0.02138721 Eh     13.42 kcal/mol
-----------------------------------------------------------------------
Final entropy term                ...      0.03976702 Eh     24.95 kcal/mol

In case the symmetry of your molecule has not been determined correctly
or in case you have a reason to use a different symmetry number we print 
out the resulting rotational entropy values for sn=1,12 :
 --------------------------------------------------------
|  sn= 1 | S(rot)=       0.01511287 Eh      9.48 kcal/mol|
|  sn= 2 | S(rot)=       0.01445841 Eh      9.07 kcal/mol|
|  sn= 3 | S(rot)=       0.01407558 Eh      8.83 kcal/mol|
|  sn= 4 | S(rot)=       0.01380395 Eh      8.66 kcal/mol|
|  sn= 5 | S(rot)=       0.01359327 Eh      8.53 kcal/mol|
|  sn= 6 | S(rot)=       0.01342112 Eh      8.42 kcal/mol|
|  sn= 7 | S(rot)=       0.01327558 Eh      8.33 kcal/mol|
|  sn= 8 | S(rot)=       0.01314950 Eh      8.25 kcal/mol|
|  sn= 9 | S(rot)=       0.01303829 Eh      8.18 kcal/mol|
|  sn=10 | S(rot)=       0.01293881 Eh      8.12 kcal/mol|
|  sn=11 | S(rot)=       0.01284882 Eh      8.06 kcal/mol|
|  sn=12 | S(rot)=       0.01276667 Eh      8.01 kcal/mol|
 --------------------------------------------------------


-------------------
GIBBS FREE ENERGY
-------------------

The Gibbs free energy is G = H - T*S

Total enthalpy                    ...   -407.14800091 Eh 
Total entropy correction          ...     -0.03976702 Eh    -24.95 kcal/mol
-----------------------------------------------------------------------
Final Gibbs free energy         ...   -407.18776793 Eh

For completeness - the Gibbs free energy minus the electronic energy
G-E(el)                           ...     -0.03402815 Eh    -21.35 kcal/mol


Total Time for Numerical Frequencies  :        44.027 sec

Timings for individual modules:

Sum of individual times         ...       55.460 sec (=   0.924 min)
GTO integral calculation        ...        5.850 sec (=   0.098 min)  10.5 %
SCF iterations                  ...       38.363 sec (=   0.639 min)  69.2 %
SCF Gradient evaluation         ...       11.103 sec (=   0.185 min)  20.0 %
Geometry relaxation             ...        0.144 sec (=   0.002 min)   0.3 %
                             ****ORCA TERMINATED NORMALLY****
TOTAL RUN TIME: 0 days 0 hours 1 minutes 35 seconds 858 msec
