
                                 *****************
                                 * O   R   C   A *
                                 *****************

           --- An Ab Initio, DFT and Semiempirical electronic structure package ---

                  #######################################################
                  #                        -***-                        #
                  #          Department of theory and spectroscopy      #
                  #               Directorship: Frank Neese             #
                  #        Max Planck Institute fuer Kohlenforschung    #
                  #                Kaiser Wilhelm Platz 1               #
                  #                 D-45470 Muelheim/Ruhr               #
                  #                      Germany                        #
                  #                                                     #
                  #                  All rights reserved                #
                  #                        -***-                        #
                  #######################################################


                         Program Version 4.2.0 -  RELEASE  -


 With contributions from (in alphabetic order):
   Daniel Aravena         : Magnetic Suceptibility
   Michael Atanasov       : Ab Initio Ligand Field Theory (pilot matlab implementation)
   Alexander A. Auer      : GIAO ZORA, VPT2
   Ute Becker             : Parallelization
   Giovanni Bistoni       : ED, misc. LED, open-shell LED, HFLED
   Martin Brehm           : Molecular dynamics
   Dmytro Bykov           : SCF Hessian
   Vijay G. Chilkuri      : MRCI spin determinant printing, contributions to CSF-ICE
   Dipayan Datta          : RHF DLPNO-CCSD density
   Achintya Kumar Dutta   : EOM-CC, STEOM-CC
   Dmitry Ganyushin       : Spin-Orbit,Spin-Spin,Magnetic field MRCI
   Miquel Garcia          : C-PCM Hessian, Gaussian charge scheme
   Yang Guo               : DLPNO-NEVPT2, CIM, IAO-localization
   Andreas Hansen         : Spin unrestricted coupled pair/coupled cluster methods
   Benjamin Helmich-Paris : CASSCF linear response (MC-RPA)
   Lee Huntington         : MR-EOM, pCC
   Robert Izsak           : Overlap fitted RIJCOSX, COSX-SCS-MP3, EOM
   Christian Kollmar      : KDIIS, OOCD, Brueckner-CCSD(T), CCSD density
   Simone Kossmann        : Meta GGA functionals, TD-DFT gradient, OOMP2, MP2 Hessian
   Martin Krupicka        : AUTO-CI
   Lucas Lang             : DCDCAS
   Dagmar Lenk            : GEPOL surface, SMD
   Dimitrios Liakos       : Extrapolation schemes; Compound Job, initial MDCI parallelization
   Dimitrios Manganas     : Further ROCIS development; embedding schemes
   Dimitrios Pantazis     : SARC Basis sets
   Taras Petrenko         : DFT Hessian,TD-DFT gradient, ASA, ECA, R-Raman, ABS, FL, XAS/XES, NRVS
   Peter Pinski           : DLPNO-MP2, DLPNO-MP2 Gradient
   Christoph Reimann      : Effective Core Potentials
   Marius Retegan         : Local ZFS, SOC
   Christoph Riplinger    : Optimizer, TS searches, QM/MM, DLPNO-CCSD(T), (RO)-DLPNO pert. Triples
   Tobias Risthaus        : Range-separated hybrids, TD-DFT gradient, RPA, STAB
   Michael Roemelt        : Original ROCIS implementation
   Masaaki Saitow         : Open-shell DLPNO-CCSD energy and density
   Barbara Sandhoefer     : DKH picture change effects
   Avijit Sen             : IP-ROCIS
   Kantharuban Sivalingam : CASSCF convergence, NEVPT2, FIC-MRCI
   Bernardo de Souza      : ESD, SOC TD-DFT
   Georgi Stoychev        : AutoAux, RI-MP2 NMR
   Willem Van den Heuvel  : Paramagnetic NMR
   Boris Wezisla          : Elementary symmetry handling
   Frank Wennmohs         : Technical directorship


 We gratefully acknowledge several colleagues who have allowed us to
 interface, adapt or use parts of their codes:
   Stefan Grimme, W. Hujo, H. Kruse,             : VdW corrections, initial TS optimization,
                  C. Bannwarth                     DFT functionals, gCP, sTDA/sTD-DF
   Ed Valeev, F. Pavosevic, A. Kumar             : LibInt (2-el integral package), F12 methods
   Garnet Chan, S. Sharma, J. Yang, R. Olivares  : DMRG
   Ulf Ekstrom                                   : XCFun DFT Library
   Mihaly Kallay                                 : mrcc  (arbitrary order and MRCC methods)
   Andreas Klamt, Michael Diedenhofen            : otool_cosmo (COSMO solvation model)
   Jiri Pittner, Ondrej Demel                    : Mk-CCSD
   Frank Weinhold                                : gennbo (NPA and NBO analysis)
   Christopher J. Cramer and Donald G. Truhlar   : smd solvation model
   Lars Goerigk                                  : TD-DFT with DH, B97 family of functionals
   V. Asgeirsson, H. Jonsson                     : NEB implementation
   FAccTs GmbH                                   : IRC, NEB, NEB-TS, Multilevel, MM, QM/MM, CI optimization
   S Lehtola, MJT Oliveira, MAL Marques          : LibXC Library


 Your calculation uses the libint2 library for the computation of 2-el integrals
 For citations please refer to: http://libint.valeyev.net

 Your ORCA version has been built with support for libXC version: 4.2.3
 For citations please refer to: https://tddft.org/programs/libxc/

 This ORCA versions uses:
   CBLAS   interface :  Fast vector & matrix operations
   LAPACKE interface :  Fast linear algebra routines
   SCALAPACK package :  Parallel linear algebra routines


Your calculation utilizes the atom-pairwise dispersion correction
with the Becke-Johnson damping scheme (D3BJ)
Cite in your paper:
S.Grimme, S.Ehrlich, L.Goerigk, J Comput Chem, (2011), 32, 1456–1465 
S.Grimme, J.Antony, S.Ehrlich and H.Krieg, J.Chem.Phys., 132, (2010), 154104 
   

----- Orbital basis set information -----
Your calculation utilizes the basis: def2-TZVPPD
   F. Weigend and R. Ahlrichs, Phys. Chem. Chem. Phys. 7, 3297 (2005).
   D. Rappoport and F. Furche, J. Chem. Phys. 133 134105 (2010).

----- AuxJ basis set information -----
Your calculation utilizes the auxiliary basis: def2/J
   F. Weigend, Phys. Chem. Chem. Phys. 8, 1057 (2006).

cite the ECPs for Au [Def2-ECP] as follows:
Ce-Yb(ecp-28): M. Dolg, H. Stoll, H.Preuss, J. Chem. Phys., 1989, 90, 1730-1734.
Y-Cd(ecp-28), Hf-Hg(ecp-46): D. Andrae,U. Haeussermann, M. Dolg, H. Stoll, H. Preuss, Theor. Chim. Acta, 1990, 77, 123-141.
In-Sb(ecp-28), Tl-Bi(ecp-46): B. Metz, H. Stoll, M. Dolg, J. Chem. Phys., 2000, 113, 2563-2569.
Te-Xe(ecp-28), Po-Rn(ecp-46): K. A. Peterson, D. Figgen, E. Goll, H. Stoll, M. Dolg, J. Chem. Phys., 2003, 119, 11113-11123.
Rb(ecp-28), Cs(ecp-46): T. Leininger, A. Nicklass, W. Kuechle, H. Stoll, M. Dolg, A. Bergner, Chem. Phys. Lett., 1996, 255, 274-280.
Sr(ecp-28), Ba(ecp-46): M. Kaupp, P. V. Schleyer, H. Stoll and H. Preuss, J. Chem. Phys., 1991, 94, 1360-1366.
La(ecp-46): M. Dolg, H. Stoll, A. Savin, H. Preuss, Theor. Chim. Acta, 1989, 75, 173-194.
Lu(ecp-28): X. Cao, M. Dolg, J. Chem. Phys., 2001, 115, 7348-7355.

ECP parameters for Au [Def2-ECP] have been obtained from:
TURBOMOLE (7.0.2)

================================================================================
                                        WARNINGS
                       Please study these warnings very carefully!
================================================================================


WARNING: your system is open-shell and RHF/RKS was chosen
  ===> : WILL SWITCH to UHF/UKS


WARNING: Geometry Optimization
  ===> : Switching off AutoStart
         For restart on a previous wavefunction, please use MOREAD

INFO   : the flag for use of LIBINT has been found!

================================================================================
                                       INPUT FILE
================================================================================
NAME = Au03N0_LIN.in
|  1> #
|  2> # Au03N0_LIN TPSS-D3BJ/Def2-TZVPPD
|  3> #
|  4> ! tpss d3bj def2-tzvppd def2/j grid4 nofinalgrid opt xyzfile numfreq
|  5> 
|  6> *xyz 0 2
|  7> Au       0.000000    0.000000    0.000000 
|  8> Au       0.000000    0.000000    2.547414 
|  9> Au       0.000000    0.000000   -2.547414 
| 10> *
| 11> 
| 12> %maxcore 5000
| 13> 
| 14> %pal
| 15> nprocs = 24
| 16> end
| 17> 
| 18> 
| 19>                          ****END OF INPUT****
================================================================================

                       *****************************
                       * Geometry Optimization Run *
                       *****************************

Geometry optimization settings:
Update method            Update   .... BFGS
Choice of coordinates    CoordSys .... Z-matrix Internals
Initial Hessian          InHess   .... Almoef's Model

Convergence Tolerances:
Energy Change            TolE     ....  5.0000e-06 Eh
Max. Gradient            TolMAXG  ....  3.0000e-04 Eh/bohr
RMS Gradient             TolRMSG  ....  1.0000e-04 Eh/bohr
Max. Displacement        TolMAXD  ....  4.0000e-03 bohr
RMS Displacement         TolRMSD  ....  2.0000e-03 bohr
Strict Convergence                ....  False
------------------------------------------------------------------------------
                        ORCA OPTIMIZATION COORDINATE SETUP
------------------------------------------------------------------------------

The optimization will be done in new redundant internal coordinates
Making redundant internal coordinates   ...  (new redundants) done
Evaluating the initial hessian          ...  (Almloef) done
Evaluating the coordinates              ...  done
Calculating the B-matrix                .... done
Calculating the G-matrix                .... done
Diagonalizing the G-matrix              .... done
The first mode is                       ....    0
The number of degrees of freedom        ....    4

    -----------------------------------------------------------------
                    Redundant Internal Coordinates


    -----------------------------------------------------------------
         Definition                    Initial Value    Approx d2E/dq
    -----------------------------------------------------------------
      1. B(Au  1,Au  0)                  2.5474         0.017232   
      2. B(Au  2,Au  0)                  2.5474         0.017232   
      3. L(Au  1,Au  0,Au  2, 2)       180.0000         0.163790   
      4. L(Au  1,Au  0,Au  2, 1)       180.0000         0.163790   
    -----------------------------------------------------------------

Number of atoms                         .... 3
Number of degrees of freedom            .... 4

         *************************************************************
         *                GEOMETRY OPTIMIZATION CYCLE   1            *
         *************************************************************
---------------------------------
CARTESIAN COORDINATES (ANGSTROEM)
---------------------------------
  Au     0.000000    0.000000    0.000000
  Au     0.000000    0.000000    2.547414
  Au     0.000000    0.000000   -2.547414

----------------------------
CARTESIAN COORDINATES (A.U.)
----------------------------
  NO LB      ZA    FRAG     MASS         X           Y           Z
   0 Au   19.0000*   0   196.966    0.000000    0.000000    0.000000
   1 Au   19.0000*   0   196.966    0.000000    0.000000    4.813915
   2 Au   19.0000*   0   196.966    0.000000    0.000000   -4.813915
* core charge reduced due to ECP

--------------------------------
INTERNAL COORDINATES (ANGSTROEM)
--------------------------------
 Au     0   0   0     0.000000000000     0.00000000     0.00000000
 Au     1   0   0     2.547414000000     0.00000000     0.00000000
 Au     1   2   0     2.547414000000   179.99999915     0.00000000

---------------------------
INTERNAL COORDINATES (A.U.)
---------------------------
 Au     0   0   0     0.000000000000     0.00000000     0.00000000
 Au     1   0   0     4.813914809717     0.00000000     0.00000000
 Au     1   2   0     4.813914809717   179.99999915     0.00000000

---------------------
BASIS SET INFORMATION
---------------------
There are 1 groups of distinct atoms

 Group   1 Type Au  : 8s8p6d2f1g contracted to 6s5p3d2f1g pattern {311111/41111/411/11/1}

Atom   0Au   basis set group =>   1
Atom   1Au   basis set group =>   1
Atom   2Au   basis set group =>   1
---------------------------------
AUXILIARY/J BASIS SET INFORMATION
---------------------------------
There are 1 groups of distinct atoms

 Group   1 Type Au  : 11s5p5d3f3g contracted to 8s5p5d2f3g pattern {41111111/11111/11111/21/111}

Atom   0Au   basis set group =>   1
Atom   1Au   basis set group =>   1
Atom   2Au   basis set group =>   1
-------------------------
ECP PARAMETER INFORMATION
-------------------------

 Group 1, Type Au ECP Def2-ECP (replacing 60 core electrons, lmax=3)

Atom   0Au   ECP group =>   1
Atom   1Au   ECP group =>   1
Atom   2Au   ECP group =>   1



           ************************************************************
           *        Program running with 24 parallel MPI-processes    *
           *              working on a common directory               *
           ************************************************************
------------------------------------------------------------------------------
                           ORCA GTO INTEGRAL CALCULATION
                           -- RI-GTO INTEGRALS CHOSEN --
------------------------------------------------------------------------------

                         BASIS SET STATISTICS AND STARTUP INFO

Gaussian basis set:
 # of primitive gaussian shells          ...   75
 # of primitive gaussian functions       ...  255
 # of contracted shells                  ...   51
 # of contracted basis functions         ...  177
 Highest angular momentum                ...    4
 Maximum contraction depth               ...    4
Auxiliary gaussian basis set:
 # of primitive gaussian shells          ...   81
 # of primitive gaussian functions       ...  297
 # of contracted shells                  ...   69
 # of contracted aux-basis functions     ...  267
 Highest angular momentum                ...    4
 Maximum contraction depth               ...    4
Ratio of auxiliary to basis functions    ...  1.51
Integral package used                  ... LIBINT
 One Electron integrals                  
   ECP integrals                         ... done
 Ordering auxiliary basis shells         ... done
 Integral threshhold             Thresh  ...  2.500e-11
 Primitive cut-off               TCut    ...  2.500e-12
 Pre-screening matrix                    ... done
 Shell pair data                         ... 
 Ordering of the shell pairs             ... done (   0.000 sec) 1221 of 1326 pairs
 Determination of significant pairs      ... done (   0.000 sec)
 Creation of shell pair data             ... done (   0.000 sec)
 Storage of shell pair data              ... done (   0.009 sec)
 Shell pair data done in (   0.010 sec)
 Computing two index integrals           ... done
 Cholesky decomposition of the V-matrix  ... done


Timings:
 Total evaluation time                   ...   0.530 sec (  0.009 min)
 One electron matrix time                ...   0.354 sec (  0.006 min) = 66.7%
 Schwartz matrix evaluation time         ...   0.135 sec (  0.002 min) = 25.6%
 Two index repulsion integral time       ...   0.001 sec (  0.000 min) =  0.2%
 Cholesky decomposition of V             ...   0.001 sec (  0.000 min) =  0.3%
 Three index repulsion integral time     ...   0.000 sec (  0.000 min) =  0.0%



           ************************************************************
           *        Program running with 24 parallel MPI-processes    *
           *              working on a common directory               *
           ************************************************************
-------------------------------------------------------------------------------
                                 ORCA SCF
-------------------------------------------------------------------------------

------------
SCF SETTINGS
------------
Hamiltonian:
 Density Functional     Method          .... DFT(GTOs)
 Exchange Functional    Exchange        .... TPSS
 Correlation Functional Correlation     .... TPSS
 LDA part of GGA corr.  LDAOpt          .... PW91-LDA
 Gradients option       PostSCFGGA      .... off
   Density functional embedding theory  .... OFF
   NL short-range parameter             ....  5.000000
 RI-approximation to the Coulomb term is turned on
   Number of auxiliary basis functions  .... 267


General Settings:
 Integral files         IntName         .... Au03N0_LIN
 Hartree-Fock type      HFTyp           .... UHF
 Total Charge           Charge          ....    0
 Multiplicity           Mult            ....    2
 Number of Electrons    NEL             ....   57
 Basis Dimension        Dim             ....  177
 Nuclear Repulsion      ENuc            ....    187.4773517342 Eh

Convergence Acceleration:
 DIIS                   CNVDIIS         .... on
   Start iteration      DIISMaxIt       ....    12
   Startup error        DIISStart       ....  0.200000
   # of expansion vecs  DIISMaxEq       ....     5
   Bias factor          DIISBfac        ....   1.050
   Max. coefficient     DIISMaxC        ....  10.000
 Newton-Raphson         CNVNR           .... off
 SOSCF                  CNVSOSCF        .... off
 Level Shifting         CNVShift        .... on
   Level shift para.    LevelShift      ....    0.2500
   Turn off err/grad.   ShiftErr        ....    0.0010
 Zerner damping         CNVZerner       .... off
 Static damping         CNVDamp         .... on
   Fraction old density DampFac         ....    0.7000
   Max. Damping (<1)    DampMax         ....    0.9800
   Min. Damping (>=0)   DampMin         ....    0.0000
   Turn off err/grad.   DampErr         ....    0.1000
 Fernandez-Rico         CNVRico         .... off

SCF Procedure:
 Maximum # iterations   MaxIter         ....   125
 SCF integral mode      SCFMode         .... Direct
   Integral package                     .... LIBINT
 Reset frequency        DirectResetFreq ....    20
 Integral Threshold     Thresh          ....  2.500e-11 Eh
 Primitive CutOff       TCut            ....  2.500e-12 Eh

Convergence Tolerance:
 Convergence Check Mode ConvCheckMode   .... Total+1el-Energy
 Convergence forced     ConvForced      .... 0
 Energy Change          TolE            ....  1.000e-08 Eh
 1-El. energy change                    ....  1.000e-05 Eh
 DIIS Error             TolErr          ....  5.000e-07


Diagonalization of the overlap matrix:
Smallest eigenvalue                        ... 7.322e-04
Time for diagonalization                   ...    0.005 sec
Threshold for overlap eigenvalues          ... 1.000e-08
Number of eigenvalues below threshold      ... 0
Time for construction of square roots      ...    0.003 sec
Total time needed                          ...    0.009 sec

-------------------
DFT GRID GENERATION
-------------------

General Integration Accuracy     IntAcc      ...  4.670
Radial Grid Type                 RadialGrid  ... Gauss-Chebyshev
Angular Grid (max. acc.)         AngularGrid ... Lebedev-302
Angular grid pruning method      GridPruning ... 3 (G Style)
Weight generation scheme         WeightScheme... Becke
Basis function cutoff            BFCut       ...    1.0000e-11
Integration weight cutoff        WCut        ...    1.0000e-14
Grids for H and He will be reduced by one unit

# of grid points (after initial pruning)     ...  34956 (   0.0 sec)
# of grid points (after weights+screening)   ...  34728 (   0.0 sec)
nearest neighbour list constructed           ...    0.0 sec
Grid point re-assignment to atoms done       ...    0.0 sec
Grid point division into batches done        ...    0.3 sec
Reduced shell lists constructed in    0.3 sec

Total number of grid points                  ...    34728
Total number of batches                      ...      544
Average number of points per batch           ...       63
Average number of grid points per atom       ...    11576
Average number of shells per batch           ...    14.96 (29.33%)
Average number of basis functions per batch  ...    47.62 (26.91%)
Average number of large shells per batch     ...    10.42 (69.64%)
Average number of large basis fcns per batch ...    28.58 (60.02%)
Maximum spatial batch extension              ...  37.74, 37.74,  4.80 au
Average spatial batch extension              ...   0.53,  0.53,  0.19 au

Time for grid setup =    0.368 sec

------------------------------
INITIAL GUESS: MODEL POTENTIAL
------------------------------
Loading Hartree-Fock densities                     ... done
  calling /sw/apps/orca/orca_4_2_0_linux_x86-64_openmpi314/orca Au03N0_LIN_atom79.inp > Au03N0_LIN_atom79.out in order to generate an atomic fitting density for atom 0 (Au with ECP) on-the-fly... 
    atom 0 (Au), assumed electronic state with S=2: 1s2 2s2 2p6 3s2 3p6 4s2 3d10 4p6 5s2 4d10 5p6 6s1 4f14 5d10           ... done
Calculating cut-offs                               ... done
Setting up the integral package                    ... done
Initializing the effective Hamiltonian             ... done
Starting the Coulomb interaction                   ... done (   0.0 sec)
Reading the grid                                   ... done
Mapping shells                                     ... done
Starting the XC term evaluation                    ... done (   0.0 sec)
  promolecular density results
     # of electrons  =    237.007936022
     EX              =  -1097.391673668
     EC              =    -14.469987343
     EX+EC           =  -1111.861661012
Transforming the Hamiltonian                       ... done (   0.0 sec)
Diagonalizing the Hamiltonian                      ... done (   0.0 sec)
Back transforming the eigenvectors                 ... done (   0.0 sec)
Now organizing SCF variables                       ... done
                      ------------------
                      INITIAL GUESS DONE (   1.4 sec)
                      ------------------
--------------
SCF ITERATIONS
--------------
ITER       Energy         Delta-E        Max-DP      RMS-DP      [F,P]     Damp
               ***  Starting incremental Fock matrix formation  ***
  0   -406.8278109151   0.000000000000 0.14027981  0.00200974  0.5847886 0.7000
  1   -406.9716431358  -0.143832220729 0.08671381  0.00130210  0.3997974 0.7000
  2   -407.0219517555  -0.050308619659 0.04853216  0.00069981  0.2730992 0.7000
                               ***Turning on DIIS***
  3   -407.0571933150  -0.035241559554 0.03124702  0.00042742  0.1885421 0.7000
  4   -407.0839525873  -0.026759272315 0.02615447  0.00030411  0.1312448 0.7000
  5   -407.1026076522  -0.018655064826 0.05740767  0.00073402  0.0922162 0.0000
  6   -407.1461790270  -0.043571374865 0.00299131  0.00005241  0.0013849 0.0000
  7   -407.1462473187  -0.000068291696 0.00208194  0.00003414  0.0010031 0.0000
  8   -407.1462819679  -0.000034649169 0.00613107  0.00009636  0.0008654 0.0000
  9   -407.1463258486  -0.000043880741 0.00112456  0.00001573  0.0008491 0.0000
 10   -407.1463288068  -0.000002958159 0.00050983  0.00000631  0.0004312 0.0000
 11   -407.1463292203  -0.000000413546 0.00022078  0.00000296  0.0002916 0.0000
 12   -407.1463294217  -0.000000201369 0.00005128  0.00000079  0.0000584 0.0000
 13   -407.1463294375  -0.000000015802 0.00002271  0.00000025  0.0000154 0.0000
 14   -407.1463294394  -0.000000001889 0.00000386  0.00000007  0.0000018 0.0000
 15   -407.1463294398  -0.000000000423 0.00000766  0.00000010  0.0000018 0.0000
 16   -407.1463294408  -0.000000001005 0.00000789  0.00000010  0.0000025 0.0000
 17   -407.1463294420  -0.000000001225 0.00000230  0.00000003  0.0000010 0.0000
                 **** Energy Check signals convergence ****

               *****************************************************
               *                     SUCCESS                       *
               *           SCF CONVERGED AFTER  18 CYCLES          *
               *****************************************************


----------------
TOTAL SCF ENERGY
----------------

Total Energy       :         -407.14632944 Eh          -11079.01487 eV

Components:
Nuclear Repulsion  :          187.47735173 Eh            5101.51810 eV
Electronic Energy  :         -594.62368118 Eh          -16180.53297 eV
One Electron Energy:        -1090.20914247 Eh          -29666.09896 eV
Two Electron Energy:          495.58546129 Eh           13485.56599 eV

Virial components:
Potential Energy   :         -544.65118255 Eh          -14820.71215 eV
Kinetic Energy     :          137.50485310 Eh            3741.69728 eV
Virial Ratio       :            3.96095971


DFT components:
N(Alpha)           :       28.999995746171 electrons
N(Beta)            :       27.999995492852 electrons
N(Total)           :       56.999991239024 electrons
E(X)               :      -35.948202824230 Eh       
E(C)               :       -2.427218163909 Eh       
E(XC)              :      -38.375420988138 Eh       
DFET-embed. en.    :        0.000000000000 Eh       

---------------
SCF CONVERGENCE
---------------

  Last Energy change         ...   -1.2676e-11  Tolerance :   1.0000e-08
  Last MAX-Density change    ...    1.3618e-06  Tolerance :   1.0000e-07
  Last RMS-Density change    ...    1.9062e-08  Tolerance :   5.0000e-09
  Last DIIS Error            ...    1.9232e-07  Tolerance :   5.0000e-07

             **** THE GBW FILE WAS UPDATED (Au03N0_LIN.gbw) ****
             **** DENSITY FILE WAS UPDATED (Au03N0_LIN.scfp) ****
             **** ENERGY FILE WAS UPDATED (Au03N0_LIN.en.tmp) ****
----------------------
UHF SPIN CONTAMINATION
----------------------

Warning: in a DFT calculation there is little theoretical justification to 
         calculate <S**2> as in Hartree-Fock theory. We will do it anyways
         but you should keep in mind that the values have only limited relevance

Expectation value of <S**2>     :     0.753070
Ideal value S*(S+1) for S=0.5   :     0.750000
Deviation                       :     0.003070

             **** THE GBW FILE WAS UPDATED (Au03N0_LIN.gbw) ****
             **** DENSITY FILE WAS UPDATED (Au03N0_LIN.scfp) ****
----------------
ORBITAL ENERGIES
----------------
                 SPIN UP ORBITALS
  NO   OCC          E(Eh)            E(eV) 
   0   1.0000      -4.021892      -109.4412 
   1   1.0000      -4.021884      -109.4410 
   2   1.0000      -4.008915      -109.0881 
   3   1.0000      -2.239577       -60.9420 
   4   1.0000      -2.236755       -60.8652 
   5   1.0000      -2.227451       -60.6120 
   6   1.0000      -2.227451       -60.6120 
   7   1.0000      -2.227429       -60.6114 
   8   1.0000      -2.227429       -60.6114 
   9   1.0000      -2.223533       -60.5054 
  10   1.0000      -2.211690       -60.1832 
  11   1.0000      -2.211690       -60.1832 
  12   1.0000      -0.359010        -9.7692 
  13   1.0000      -0.305420        -8.3109 
  14   1.0000      -0.305420        -8.3109 
  15   1.0000      -0.284012        -7.7284 
  16   1.0000      -0.276299        -7.5185 
  17   1.0000      -0.276299        -7.5185 
  18   1.0000      -0.268720        -7.3123 
  19   1.0000      -0.268708        -7.3119 
  20   1.0000      -0.266255        -7.2452 
  21   1.0000      -0.266243        -7.2448 
  22   1.0000      -0.251966        -6.8563 
  23   1.0000      -0.241211        -6.5637 
  24   1.0000      -0.241194        -6.5632 
  25   1.0000      -0.228010        -6.2045 
  26   1.0000      -0.226238        -6.1562 
  27   1.0000      -0.226238        -6.1562 
  28   1.0000      -0.222889        -6.0651 
  29   0.0000      -0.122280        -3.3274 
  30   0.0000      -0.050984        -1.3873 
  31   0.0000      -0.050984        -1.3873 
  32   0.0000      -0.030001        -0.8164 
  33   0.0000      -0.011430        -0.3110 
  34   0.0000      -0.011430        -0.3110 
  35   0.0000       0.059147         1.6095 
  36   0.0000       0.059147         1.6095 
  37   0.0000       0.065618         1.7855 
  38   0.0000       0.086534         2.3547 
  39   0.0000       0.118475         3.2239 
  40   0.0000       0.151047         4.1102 
  41   0.0000       0.151047         4.1102 
  42   0.0000       0.158284         4.3071 
  43   0.0000       0.183158         4.9840 
  44   0.0000       0.183158         4.9840 
  45   0.0000       0.202756         5.5173 
  46   0.0000       0.235415         6.4060 
  47   0.0000       0.235415         6.4060 
  48   0.0000       0.253460         6.8970 
  49   0.0000       0.253462         6.8971 
  50   0.0000       0.262096         7.1320 
  51   0.0000       0.284524         7.7423 
  52   0.0000       0.284527         7.7424 
  53   0.0000       0.304364         8.2822 
  54   0.0000       0.311727         8.4825 
  55   0.0000       0.311727         8.4825 
  56   0.0000       0.372133        10.1263 
  57   0.0000       0.372140        10.1264 
  58   0.0000       0.378731        10.3058 
  59   0.0000       0.406493        11.0612 
  60   0.0000       0.406493        11.0612 
  61   0.0000       0.490808        13.3556 
  62   0.0000       0.535473        14.5710 
  63   0.0000       0.535473        14.5710 
  64   0.0000       0.567550        15.4438 
  65   0.0000       0.609186        16.5768 
  66   0.0000       0.790584        21.5129 
  67   0.0000       0.891001        24.2454 
  68   0.0000       0.891001        24.2454 
  69   0.0000       0.991900        26.9910 
  70   0.0000       1.000218        27.2173 
  71   0.0000       1.000219        27.2173 
  72   0.0000       1.005583        27.3633 
  73   0.0000       1.005583        27.3633 
  74   0.0000       1.026700        27.9379 
  75   0.0000       1.026700        27.9379 
  76   0.0000       1.069116        29.0921 
  77   0.0000       1.069116        29.0921 
  78   0.0000       1.072682        29.1892 
  79   0.0000       1.072682        29.1892 
  80   0.0000       1.076515        29.2935 
  81   0.0000       1.076515        29.2935 
  82   0.0000       1.087376        29.5890 
  83   0.0000       1.087379        29.5891 
  84   0.0000       1.109585        30.1933 
  85   0.0000       1.109585        30.1933 
  86   0.0000       1.130509        30.7627 
  87   0.0000       1.181102        32.1394 
  88   0.0000       1.181102        32.1394 
  89   0.0000       1.203707        32.7545 
  90   0.0000       1.203707        32.7545 
  91   0.0000       1.226394        33.3719 
  92   0.0000       1.348278        36.6885 
  93   0.0000       1.348278        36.6885 
  94   0.0000       1.382932        37.6315 
  95   0.0000       1.382932        37.6315 
  96   0.0000       1.388870        37.7931 
  97   0.0000       1.411870        38.4189 
  98   0.0000       1.411885        38.4193 
  99   0.0000       1.412113        38.4256 
 100   0.0000       1.428814        38.8800 
 101   0.0000       1.428826        38.8803 
 102   0.0000       1.470412        40.0120 
 103   0.0000       1.491993        40.5992 
 104   0.0000       1.492012        40.5997 
 105   0.0000       1.589736        43.2589 
 106   0.0000       1.589736        43.2589 
 107   0.0000       1.674161        45.5562 
 108   0.0000       1.674161        45.5562 
 109   0.0000       1.844123        50.1811 
 110   0.0000       1.987629        54.0861 
 111   0.0000       2.066882        56.2427 
 112   0.0000       2.345519        63.8248 
 113   0.0000       2.708707        73.7077 
 114   0.0000       3.402042        92.5743 
 115   0.0000       3.402042        92.5743 
 116   0.0000       3.432124        93.3928 
 117   0.0000       3.432349        93.3990 
 118   0.0000       3.496500        95.1446 
 119   0.0000       3.496500        95.1446 
 120   0.0000       3.500894        95.2642 
 121   0.0000       3.500894        95.2642 
 122   0.0000       3.505176        95.3807 
 123   0.0000       3.505369        95.3859 
 124   0.0000       3.525771        95.9411 
 125   0.0000       3.525771        95.9411 
 126   0.0000       3.569027        97.1182 
 127   0.0000       3.569027        97.1182 
 128   0.0000       3.600135        97.9646 
 129   0.0000       3.600403        97.9719 
 130   0.0000       3.648385        99.2776 
 131   0.0000       3.716623       101.1344 
 132   0.0000       3.806056       103.5681 
 133   0.0000       3.806056       103.5681 
 134   0.0000       3.907342       106.3242 
 135   0.0000       4.047859       110.1478 
 136   0.0000       4.049125       110.1823 
 137   0.0000       4.049125       110.1823 
 138   0.0000       4.054569       110.3304 
 139   0.0000       4.054697       110.3339 
 140   0.0000       4.060250       110.4850 
 141   0.0000       4.060250       110.4850 
 142   0.0000       4.060349       110.4877 
 143   0.0000       4.060349       110.4877 
 144   0.0000       4.060667       110.4964 
 145   0.0000       4.060777       110.4994 
 146   0.0000       4.063031       110.5607 
 147   0.0000       4.063031       110.5607 
 148   0.0000       4.063666       110.5780 
 149   0.0000       4.063666       110.5780 
 150   0.0000       4.080171       111.0271 
 151   0.0000       4.080349       111.0320 
 152   0.0000       4.080665       111.0406 
 153   0.0000       4.080665       111.0406 
 154   0.0000       4.088391       111.2508 
 155   0.0000       4.089298       111.2755 
 156   0.0000       4.137347       112.5829 
 157   0.0000       4.137347       112.5829 
 158   0.0000       4.151487       112.9677 
 159   0.0000       4.151487       112.9677 
 160   0.0000       4.369858       118.9099 
 161   0.0000       4.378897       119.1558 
 162   0.0000      27.119034       737.9464 
 163   0.0000      27.119034       737.9464 
 164   0.0000      27.446638       746.8610 
 165   0.0000      27.446638       746.8610 
 166   0.0000      27.686309       753.3828 
 167   0.0000      27.686309       753.3828 
 168   0.0000      28.017014       762.3817 
 169   0.0000      28.404622       772.9290 
 170   0.0000      31.297769       851.6556 
 171   0.0000      43.834051      1192.7852 
 172   0.0000      44.130717      1200.8578 
 173   0.0000      44.532848      1211.8004 
 174   0.0000     205.038188      5579.3727 
 175   0.0000     205.164808      5582.8182 
 176   0.0000     205.343139      5587.6709 

                 SPIN DOWN ORBITALS
  NO   OCC          E(Eh)            E(eV) 
   0   1.0000      -4.020998      -109.4169 
   1   1.0000      -4.020989      -109.4167 
   2   1.0000      -4.009067      -109.0923 
   3   1.0000      -2.238170       -60.9037 
   4   1.0000      -2.234968       -60.8166 
   5   1.0000      -2.226968       -60.5989 
   6   1.0000      -2.226968       -60.5989 
   7   1.0000      -2.226945       -60.5983 
   8   1.0000      -2.226945       -60.5983 
   9   1.0000      -2.223328       -60.4998 
  10   1.0000      -2.211993       -60.1914 
  11   1.0000      -2.211993       -60.1914 
  12   1.0000      -0.356106        -9.6901 
  13   1.0000      -0.302064        -8.2196 
  14   1.0000      -0.302064        -8.2196 
  15   1.0000      -0.280373        -7.6293 
  16   1.0000      -0.271440        -7.3863 
  17   1.0000      -0.271440        -7.3863 
  18   1.0000      -0.261785        -7.1235 
  19   1.0000      -0.261771        -7.1232 
  20   1.0000      -0.258434        -7.0323 
  21   1.0000      -0.258421        -7.0320 
  22   1.0000      -0.240497        -6.5443 
  23   1.0000      -0.240480        -6.5438 
  24   1.0000      -0.239800        -6.5253 
  25   1.0000      -0.224334        -6.1044 
  26   1.0000      -0.224334        -6.1044 
  27   1.0000      -0.221300        -6.0219 
  28   0.0000      -0.211066        -5.7434 
  29   0.0000      -0.114202        -3.1076 
  30   0.0000      -0.042660        -1.1608 
  31   0.0000      -0.042660        -1.1608 
  32   0.0000      -0.021229        -0.5777 
  33   0.0000      -0.000007        -0.0002 
  34   0.0000      -0.000007        -0.0002 
  35   0.0000       0.063924         1.7395 
  36   0.0000       0.063924         1.7395 
  37   0.0000       0.073229         1.9927 
  38   0.0000       0.095674         2.6034 
  39   0.0000       0.121292         3.3005 
  40   0.0000       0.159640         4.3440 
  41   0.0000       0.159640         4.3440 
  42   0.0000       0.164247         4.4694 
  43   0.0000       0.196602         5.3498 
  44   0.0000       0.196602         5.3498 
  45   0.0000       0.209146         5.6911 
  46   0.0000       0.242704         6.6043 
  47   0.0000       0.242704         6.6043 
  48   0.0000       0.259134         7.0514 
  49   0.0000       0.259138         7.0515 
  50   0.0000       0.270433         7.3589 
  51   0.0000       0.293981         7.9996 
  52   0.0000       0.293983         7.9997 
  53   0.0000       0.309646         8.4259 
  54   0.0000       0.319189         8.6856 
  55   0.0000       0.319189         8.6856 
  56   0.0000       0.376880        10.2554 
  57   0.0000       0.376886        10.2556 
  58   0.0000       0.384640        10.4666 
  59   0.0000       0.414585        11.2814 
  60   0.0000       0.414585        11.2814 
  61   0.0000       0.500239        13.6122 
  62   0.0000       0.542045        14.7498 
  63   0.0000       0.542045        14.7498 
  64   0.0000       0.574851        15.6425 
  65   0.0000       0.610729        16.6188 
  66   0.0000       0.797696        21.7064 
  67   0.0000       0.896145        24.3853 
  68   0.0000       0.896145        24.3853 
  69   0.0000       0.996083        27.1048 
  70   0.0000       1.007135        27.4055 
  71   0.0000       1.007135        27.4055 
  72   0.0000       1.012885        27.5620 
  73   0.0000       1.012885        27.5620 
  74   0.0000       1.035312        28.1723 
  75   0.0000       1.035312        28.1723 
  76   0.0000       1.070703        29.1353 
  77   0.0000       1.070703        29.1353 
  78   0.0000       1.084931        29.5225 
  79   0.0000       1.084931        29.5225 
  80   0.0000       1.091046        29.6889 
  81   0.0000       1.091046        29.6889 
  82   0.0000       1.097741        29.8710 
  83   0.0000       1.097741        29.8711 
  84   0.0000       1.111697        30.2508 
  85   0.0000       1.111697        30.2508 
  86   0.0000       1.134190        30.8629 
  87   0.0000       1.185597        32.2617 
  88   0.0000       1.185599        32.2618 
  89   0.0000       1.210981        32.9525 
  90   0.0000       1.210981        32.9525 
  91   0.0000       1.233901        33.5762 
  92   0.0000       1.352594        36.8059 
  93   0.0000       1.352594        36.8059 
  94   0.0000       1.388795        37.7910 
  95   0.0000       1.388795        37.7910 
  96   0.0000       1.392395        37.8890 
  97   0.0000       1.418036        38.5867 
  98   0.0000       1.418060        38.5874 
  99   0.0000       1.418205        38.5913 
 100   0.0000       1.438860        39.1534 
 101   0.0000       1.438887        39.1541 
 102   0.0000       1.476023        40.1646 
 103   0.0000       1.495618        40.6978 
 104   0.0000       1.495642        40.6985 
 105   0.0000       1.595928        43.4274 
 106   0.0000       1.595928        43.4274 
 107   0.0000       1.677822        45.6559 
 108   0.0000       1.677822        45.6559 
 109   0.0000       1.849521        50.3280 
 110   0.0000       1.993355        54.2419 
 111   0.0000       2.069555        56.3154 
 112   0.0000       2.351257        63.9809 
 113   0.0000       2.711220        73.7760 
 114   0.0000       3.404109        92.6305 
 115   0.0000       3.404109        92.6305 
 116   0.0000       3.433954        93.4426 
 117   0.0000       3.434187        93.4490 
 118   0.0000       3.500041        95.2410 
 119   0.0000       3.500041        95.2410 
 120   0.0000       3.505279        95.3835 
 121   0.0000       3.505279        95.3835 
 122   0.0000       3.508449        95.4698 
 123   0.0000       3.508656        95.4754 
 124   0.0000       3.526334        95.9564 
 125   0.0000       3.526334        95.9564 
 126   0.0000       3.572066        97.2009 
 127   0.0000       3.572066        97.2009 
 128   0.0000       3.601758        98.0088 
 129   0.0000       3.602034        98.0163 
 130   0.0000       3.650955        99.3475 
 131   0.0000       3.719540       101.2138 
 132   0.0000       3.808646       103.6385 
 133   0.0000       3.808646       103.6385 
 134   0.0000       3.910118       106.3997 
 135   0.0000       4.049884       110.2029 
 136   0.0000       4.051517       110.2474 
 137   0.0000       4.051517       110.2474 
 138   0.0000       4.057402       110.4075 
 139   0.0000       4.057546       110.4114 
 140   0.0000       4.063810       110.5819 
 141   0.0000       4.063932       110.5852 
 142   0.0000       4.064311       110.5955 
 143   0.0000       4.064311       110.5955 
 144   0.0000       4.064417       110.5984 
 145   0.0000       4.064417       110.5984 
 146   0.0000       4.069075       110.7252 
 147   0.0000       4.069075       110.7252 
 148   0.0000       4.069723       110.7428 
 149   0.0000       4.069723       110.7428 
 150   0.0000       4.080319       111.0311 
 151   0.0000       4.080390       111.0331 
 152   0.0000       4.080390       111.0331 
 153   0.0000       4.080497       111.0360 
 154   0.0000       4.088204       111.2457 
 155   0.0000       4.089112       111.2704 
 156   0.0000       4.139686       112.6466 
 157   0.0000       4.139686       112.6466 
 158   0.0000       4.152030       112.9825 
 159   0.0000       4.152030       112.9825 
 160   0.0000       4.370994       118.9408 
 161   0.0000       4.380619       119.2027 
 162   0.0000      27.121279       738.0075 
 163   0.0000      27.121279       738.0075 
 164   0.0000      27.450078       746.9546 
 165   0.0000      27.450078       746.9546 
 166   0.0000      27.687589       753.4176 
 167   0.0000      27.687589       753.4176 
 168   0.0000      28.018964       762.4348 
 169   0.0000      28.407148       772.9978 
 170   0.0000      31.299380       851.6994 
 171   0.0000      43.834596      1192.8000 
 172   0.0000      44.131436      1200.8774 
 173   0.0000      44.533018      1211.8050 
 174   0.0000     205.038629      5579.3848 
 175   0.0000     205.165431      5582.8352 
 176   0.0000     205.343235      5587.6735 

                    ********************************
                    * MULLIKEN POPULATION ANALYSIS *
                    ********************************

--------------------------------------------
MULLIKEN ATOMIC CHARGES AND SPIN POPULATIONS
--------------------------------------------
   0 Au:   -0.162649    0.022383
   1 Au:    0.081326    0.488807
   2 Au:    0.081323    0.488810
Sum of atomic charges         :   -0.0000000
Sum of atomic spin populations:    1.0000000

-----------------------------------------------------
MULLIKEN REDUCED ORBITAL CHARGES AND SPIN POPULATIONS
-----------------------------------------------------
CHARGE
  0 Aus       :     3.197995  s :     3.197995
      pz      :     2.120044  p :     6.164996
      px      :     2.022476
      py      :     2.022476
      dz2     :     1.850865  d :     9.784909
      dxz     :     1.967818
      dyz     :     1.967818
      dx2y2   :     1.999204
      dxy     :     1.999204
      f0      :     0.005639  f :     0.014487
      f+1     :     0.004041
      f-1     :     0.004041
      f+2     :     0.000383
      f-2     :     0.000383
      f+3     :     0.000000
      f-3     :     0.000000
      g0      :     0.000104  g :     0.000262
      g+1     :     0.000068
      g-1     :     0.000068
      g+2     :     0.000011
      g-2     :     0.000011
      g+3     :     0.000000
      g-3     :     0.000000
      g+4     :     0.000000
      g-4     :     0.000000
  1 Aus       :     3.024947  s :     3.024947
      pz      :     2.007107  p :     6.038191
      px      :     2.015542
      py      :     2.015542
      dz2     :     1.878112  d :     9.848163
      dxz     :     1.985068
      dyz     :     1.985068
      dx2y2   :     1.999958
      dxy     :     1.999958
      f0      :     0.002461  f :     0.007249
      f+1     :     0.002156
      f-1     :     0.002156
      f+2     :     0.000238
      f-2     :     0.000238
      f+3     :     0.000000
      f-3     :     0.000000
      g0      :     0.000048  g :     0.000124
      g+1     :     0.000033
      g-1     :     0.000033
      g+2     :     0.000005
      g-2     :     0.000005
      g+3     :     0.000000
      g-3     :     0.000000
      g+4     :     0.000000
      g-4     :     0.000000
  2 Aus       :     3.024950  s :     3.024950
      pz      :     2.007108  p :     6.038191
      px      :     2.015542
      py      :     2.015542
      dz2     :     1.878111  d :     9.848163
      dxz     :     1.985068
      dyz     :     1.985068
      dx2y2   :     1.999958
      dxy     :     1.999958
      f0      :     0.002461  f :     0.007249
      f+1     :     0.002156
      f-1     :     0.002156
      f+2     :     0.000238
      f-2     :     0.000238
      f+3     :     0.000000
      f-3     :     0.000000
      g0      :     0.000048  g :     0.000124
      g+1     :     0.000033
      g-1     :     0.000033
      g+2     :     0.000005
      g-2     :     0.000005
      g+3     :     0.000000
      g-3     :     0.000000
      g+4     :     0.000000
      g-4     :     0.000000

SPIN
  0 Aus       :    -0.032041  s :    -0.032041
      pz      :     0.066683  p :     0.065709
      px      :    -0.000487
      py      :    -0.000487
      dz2     :    -0.003849  d :    -0.011243
      dxz     :    -0.003534
      dyz     :    -0.003534
      dx2y2   :    -0.000163
      dxy     :    -0.000163
      f0      :     0.000004  f :    -0.000042
      f+1     :    -0.000022
      f-1     :    -0.000022
      f+2     :    -0.000001
      f-2     :    -0.000001
      f+3     :    -0.000000
      f-3     :    -0.000000
      g0      :    -0.000001  g :    -0.000001
      g+1     :    -0.000000
      g-1     :    -0.000000
      g+2     :     0.000000
      g-2     :     0.000000
      g+3     :    -0.000000
      g-3     :    -0.000000
      g+4     :    -0.000000
      g-4     :    -0.000000
  1 Aus       :     0.464079  s :     0.464079
      pz      :     0.001243  p :     0.004288
      px      :     0.001522
      py      :     0.001522
      dz2     :     0.019279  d :     0.020379
      dxz     :     0.000476
      dyz     :     0.000476
      dx2y2   :     0.000074
      dxy     :     0.000074
      f0      :     0.000001  f :     0.000067
      f+1     :     0.000024
      f-1     :     0.000024
      f+2     :     0.000009
      f-2     :     0.000009
      f+3     :    -0.000000
      f-3     :    -0.000000
      g0      :    -0.000002  g :    -0.000006
      g+1     :    -0.000001
      g-1     :    -0.000001
      g+2     :    -0.000001
      g-2     :    -0.000001
      g+3     :    -0.000000
      g-3     :    -0.000000
      g+4     :    -0.000000
      g-4     :     0.000000
  2 Aus       :     0.464081  s :     0.464081
      pz      :     0.001244  p :     0.004288
      px      :     0.001522
      py      :     0.001522
      dz2     :     0.019280  d :     0.020379
      dxz     :     0.000476
      dyz     :     0.000476
      dx2y2   :     0.000074
      dxy     :     0.000074
      f0      :     0.000001  f :     0.000067
      f+1     :     0.000024
      f-1     :     0.000024
      f+2     :     0.000009
      f-2     :     0.000009
      f+3     :    -0.000000
      f-3     :    -0.000000
      g0      :    -0.000002  g :    -0.000006
      g+1     :    -0.000001
      g-1     :    -0.000001
      g+2     :    -0.000001
      g-2     :    -0.000001
      g+3     :    -0.000000
      g-3     :    -0.000000
      g+4     :    -0.000000
      g-4     :    -0.000000


                     *******************************
                     * LOEWDIN POPULATION ANALYSIS *
                     *******************************

-------------------------------------------
LOEWDIN ATOMIC CHARGES AND SPIN POPULATIONS
-------------------------------------------
   0 Au:   -0.184934    0.271422
   1 Au:    0.092466    0.364288
   2 Au:    0.092467    0.364289

----------------------------------------------------
LOEWDIN REDUCED ORBITAL CHARGES AND SPIN POPULATIONS
----------------------------------------------------
CHARGE
  0 Aus       :     2.848492  s :     2.848492
      pz      :     2.381266  p :     6.434252
      px      :     2.026493
      py      :     2.026493
      dz2     :     1.963927  d :     9.874569
      dxz     :     1.956234
      dyz     :     1.956234
      dx2y2   :     1.999087
      dxy     :     1.999087
      f0      :     0.014053  f :     0.027262
      f+1     :     0.006108
      f-1     :     0.006108
      f+2     :     0.000496
      f-2     :     0.000496
      f+3     :     0.000000
      f-3     :     0.000000
      g0      :     0.000145  g :     0.000359
      g+1     :     0.000094
      g-1     :     0.000094
      g+2     :     0.000013
      g-2     :     0.000013
      g+3     :     0.000000
      g-3     :     0.000000
      g+4     :     0.000000
      g-4     :     0.000000
  1 Aus       :     2.868241  s :     2.868241
      pz      :     2.095797  p :     6.137753
      px      :     2.020978
      py      :     2.020978
      dz2     :     1.927359  d :     9.889269
      dxz     :     1.981057
      dyz     :     1.981057
      dx2y2   :     1.999897
      dxy     :     1.999898
      f0      :     0.004589  f :     0.012094
      f+1     :     0.003454
      f-1     :     0.003454
      f+2     :     0.000299
      f-2     :     0.000299
      f+3     :     0.000000
      f-3     :     0.000000
      g0      :     0.000073  g :     0.000177
      g+1     :     0.000046
      g-1     :     0.000046
      g+2     :     0.000006
      g-2     :     0.000006
      g+3     :     0.000000
      g-3     :     0.000000
      g+4     :     0.000000
      g-4     :     0.000000
  2 Aus       :     2.868240  s :     2.868240
      pz      :     2.095797  p :     6.137753
      px      :     2.020978
      py      :     2.020978
      dz2     :     1.927359  d :     9.889268
      dxz     :     1.981057
      dyz     :     1.981057
      dx2y2   :     1.999897
      dxy     :     1.999898
      f0      :     0.004589  f :     0.012094
      f+1     :     0.003454
      f-1     :     0.003454
      f+2     :     0.000299
      f-2     :     0.000299
      f+3     :     0.000000
      f-3     :     0.000000
      g0      :     0.000073  g :     0.000177
      g+1     :     0.000046
      g-1     :     0.000046
      g+2     :     0.000006
      g-2     :     0.000006
      g+3     :     0.000000
      g-3     :     0.000000
      g+4     :     0.000000
      g-4     :     0.000000

SPIN
  0 Aus       :    -0.013773  s :    -0.013773
      pz      :     0.287516  p :     0.287787
      px      :     0.000135
      py      :     0.000135
      dz2     :     0.001255  d :    -0.003657
      dxz     :    -0.002429
      dyz     :    -0.002429
      dx2y2   :    -0.000027
      dxy     :    -0.000027
      f0      :     0.000931  f :     0.001065
      f+1     :     0.000059
      f-1     :     0.000059
      f+2     :     0.000008
      f-2     :     0.000008
      f+3     :    -0.000000
      f-3     :    -0.000000
      g0      :    -0.000001  g :     0.000001
      g+1     :     0.000001
      g-1     :     0.000001
      g+2     :     0.000000
      g-2     :     0.000000
      g+3     :    -0.000000
      g-3     :    -0.000000
      g+4     :    -0.000000
      g-4     :    -0.000000
  1 Aus       :     0.337413  s :     0.337413
      pz      :     0.002658  p :     0.005436
      px      :     0.001389
      py      :     0.001389
      dz2     :     0.022051  d :     0.021492
      dxz     :    -0.000282
      dyz     :    -0.000282
      dx2y2   :     0.000003
      dxy     :     0.000003
      f0      :    -0.000085  f :    -0.000047
      f+1     :     0.000011
      f-1     :     0.000011
      f+2     :     0.000007
      f-2     :     0.000007
      f+3     :    -0.000000
      f-3     :    -0.000000
      g0      :    -0.000002  g :    -0.000006
      g+1     :    -0.000001
      g-1     :    -0.000001
      g+2     :    -0.000001
      g-2     :    -0.000001
      g+3     :    -0.000000
      g-3     :    -0.000000
      g+4     :    -0.000000
      g-4     :     0.000000
  2 Aus       :     0.337414  s :     0.337414
      pz      :     0.002658  p :     0.005436
      px      :     0.001389
      py      :     0.001389
      dz2     :     0.022051  d :     0.021493
      dxz     :    -0.000282
      dyz     :    -0.000282
      dx2y2   :     0.000003
      dxy     :     0.000003
      f0      :    -0.000085  f :    -0.000047
      f+1     :     0.000011
      f-1     :     0.000011
      f+2     :     0.000007
      f-2     :     0.000007
      f+3     :    -0.000000
      f-3     :    -0.000000
      g0      :    -0.000002  g :    -0.000006
      g+1     :    -0.000001
      g-1     :    -0.000001
      g+2     :    -0.000001
      g-2     :    -0.000001
      g+3     :    -0.000000
      g-3     :    -0.000000
      g+4     :    -0.000000
      g-4     :    -0.000000


                      *****************************
                      * MAYER POPULATION ANALYSIS *
                      *****************************

  NA   - Mulliken gross atomic population
  ZA   - Total nuclear charge
  QA   - Mulliken gross atomic charge
  VA   - Mayer's total valence
  BVA  - Mayer's bonded valence
  FA   - Mayer's free valence

  ATOM       NA         ZA         QA         VA         BVA        FA
  0 Au    19.1626    19.0000    -0.1626     1.4525     1.4471     0.0055
  1 Au    18.9187    19.0000     0.0813     1.3176     1.0763     0.2413
  2 Au    18.9187    19.0000     0.0813     1.3176     1.0763     0.2413

  Mayer bond orders larger than 0.100000
B(  0-Au,  1-Au) :   0.7235 B(  0-Au,  2-Au) :   0.7235 B(  1-Au,  2-Au) :   0.3528 


-------
TIMINGS
-------

Total SCF time: 0 days 0 hours 0 min 4 sec 

Total time                  ....       4.573 sec
Sum of individual times     ....       4.422 sec  ( 96.7%)

Fock matrix formation       ....       2.796 sec  ( 61.1%)
  Split-RI-J                ....       1.477 sec  ( 52.8% of F)
  XC integration            ....       1.217 sec  ( 43.5% of F)
    Basis function eval.    ....       0.069 sec  (  5.7% of XC)
    Density eval.           ....       0.176 sec  ( 14.4% of XC)
    XC-Functional eval.     ....       0.050 sec  (  4.1% of XC)
    XC-Potential eval.      ....       0.359 sec  ( 29.5% of XC)
Diagonalization             ....       0.154 sec  (  3.4%)
Density matrix formation    ....       0.024 sec  (  0.5%)
Population analysis         ....       0.010 sec  (  0.2%)
Initial guess               ....       1.019 sec  ( 22.3%)
Orbital Transformation      ....       0.000 sec  (  0.0%)
Orbital Orthonormalization  ....       0.000 sec  (  0.0%)
DIIS solution               ....       0.051 sec  (  1.1%)
Grid generation             ....       0.368 sec  (  8.1%)


-------------------------------------------------------------------------------
                          DFT DISPERSION CORRECTION                            
                                                                               
                              DFTD3 V3.1  Rev 1                                
                          USING Becke-Johnson damping                          
-------------------------------------------------------------------------------
The TPSS functional is recognized
Active option DFTDOPT                   ...         4   

molecular C6(AA) [au] = 2858.189807 


            DFT-D V3
 parameters
 s6 scaling factor         :     1.0000 
 a1 scaling factor         :     0.4535 
 s8 scaling factor         :     1.9435 
 a2 scaling factor         :     4.4752 
 ad hoc parameters k1-k3   :    16.0000     1.3333    -4.0000 

 Edisp/kcal,au: -3.045784787711  -0.004853766499 
 E6   /kcal   :  -0.904961063 
 E8   /kcal   :  -2.140823725 
 % E8         :  70.288082520 

-------------------------   ----------------
Dispersion correction           -0.004853766
-------------------------   ----------------


-------------------------   --------------------
FINAL SINGLE POINT ENERGY      -407.151183208557
-------------------------   --------------------



           ************************************************************
           *        Program running with 24 parallel MPI-processes    *
           *              working on a common directory               *
           ************************************************************
------------------------------------------------------------------------------
                         ORCA SCF GRADIENT CALCULATION
------------------------------------------------------------------------------

Gradient of the Kohn-Sham DFT energy:
Kohn-Sham wavefunction type      ... UKS
Hartree-Fock exchange scaling    ...    0.000
Number of operators              ...    2
Number of atoms                  ...    3
Basis set dimensions             ...  177
Integral neglect threshold       ... 2.5e-11
Integral primitive cutoff        ... 2.5e-12

Nuclear repulsion gradient       ... done
One Electron Gradient            
  ECP gradient                   ... done
Pre-screening matrix             ... done
RI-J gradient                    ... done
Exchange-correlation gradient    ... done
Dispersion correction            ... done

------------------
CARTESIAN GRADIENT
------------------

   1   Au  :   -0.000000003    0.000000007    0.000000104
   2   Au  :    0.000000008    0.000000008   -0.003991658
   3   Au  :    0.000000021   -0.000000003    0.003991635

Difference to translation invariance:
           :    0.0000000262    0.0000000114    0.0000000816

Norm of the cartesian gradient     ...    0.0056450411
RMS gradient                       ...    0.0018816804
MAX gradient                       ...    0.0039916582

-------
TIMINGS
-------

Total SCF gradient time            ...        1.488 sec

One electron gradient       ....       1.076 sec  ( 72.3%)
Prescreening matrices       ....       0.032 sec  (  2.1%)
RI-J Coulomb gradient       ....       0.109 sec  (  7.3%)
XC gradient                 ....       0.065 sec  (  4.4%)
------------------------------------------------------------------------------
                         ORCA GEOMETRY RELAXATION STEP
------------------------------------------------------------------------------

Reading the OPT-File                    .... done
Getting information on internals        .... done
Copying old internal coords+grads       .... done
Making the new internal coordinates     .... (new redundants).... done
Validating the new internal coordinates .... (new redundants).... done
Calculating the B-matrix                .... done
Calculating the G,G- and P matrices     .... done
Transforming gradient to internals      .... done
Projecting the internal gradient        .... done
Number of atoms                         ....   3
Number of internal coordinates          ....   4
Current Energy                          ....  -407.151183209 Eh
Current gradient norm                   ....     0.005645041 Eh/bohr
Maximum allowed component of the step   ....  0.300
Current trust radius                    ....  0.300
Evaluating the initial hessian          ....  (Almloef) done
Projecting the Hessian                  .... done
Forming the augmented Hessian           .... done
Diagonalizing the augmented Hessian     .... done
Last element of RFO vector              ....  0.958242781
Lowest eigenvalues of augmented Hessian:
 -0.001684576  0.017232047  0.018916623  0.163789689
Length of the computed step             ....  0.298416955
The final length of the internal step   ....  0.298416955
Converting the step to cartesian space:
 Initial RMS(Int)=    0.1492084775
Transforming coordinates:
 Iter   0:  RMS(Cart)=    0.0942809042 RMS(Int)=    0.1414213562
 Iter   1:  RMS(Cart)=    0.0051914142 RMS(Int)=    0.0077871213
 Iter   2:  RMS(Cart)=    0.0000000050 RMS(Int)=    0.0000000000
done
Storing new coordinates                 .... done

                                .--------------------.
          ----------------------|Geometry convergence|-------------------------
          Item                value                   Tolerance       Converged
          ---------------------------------------------------------------------
          RMS gradient        0.0028225205            0.0001000000      NO
          MAX gradient        0.0039916855            0.0003000000      NO
          RMS step            0.1492084775            0.0020000000      NO
          MAX step            0.2110146944            0.0040000000      NO
          ........................................................
          Max(Bonds)      0.1117      Max(Angles)    0.00
          Max(Dihed)        0.00      Max(Improp)    0.00
          ---------------------------------------------------------------------

The optimization has not yet converged - more geometry cycles are needed


    ---------------------------------------------------------------------------
                         Redundant Internal Coordinates
                            (Angstroem and degrees)

        Definition                    Value    dE/dq     Step     New-Value
    ----------------------------------------------------------------------------
     1. B(Au  1,Au  0)                2.5474 -0.003992  0.1117    2.6591   
     2. B(Au  2,Au  0)                2.5474 -0.003992  0.1117    2.6591   
     3. L(Au  1,Au  0,Au  2, 2)       180.00  0.000000   -0.00    180.00   
     4. L(Au  1,Au  0,Au  2, 1)       180.00  0.000000   -0.00    180.00   
    ----------------------------------------------------------------------------

         *************************************************************
         *                GEOMETRY OPTIMIZATION CYCLE   2            *
         *************************************************************
---------------------------------
CARTESIAN COORDINATES (ANGSTROEM)
---------------------------------
  Au     0.000000   -0.000000   -0.000001
  Au    -0.000000    0.000000    2.659077
  Au    -0.000000    0.000000   -2.659077

----------------------------
CARTESIAN COORDINATES (A.U.)
----------------------------
  NO LB      ZA    FRAG     MASS         X           Y           Z
   0 Au   19.0000*   0   196.966    0.000000   -0.000000   -0.000001
   1 Au   19.0000*   0   196.966   -0.000000    0.000000    5.024928
   2 Au   19.0000*   0   196.966   -0.000000    0.000000   -5.024927
* core charge reduced due to ECP

--------------------------------
INTERNAL COORDINATES (ANGSTROEM)
--------------------------------
 Au     0   0   0     0.000000000000     0.00000000     0.00000000
 Au     1   0   0     2.659078166890     0.00000000     0.00000000
 Au     1   2   0     2.659076005767   180.00000000     0.00000000

---------------------------
INTERNAL COORDINATES (A.U.)
---------------------------
 Au     0   0   0     0.000000000000     0.00000000     0.00000000
 Au     1   0   0     5.024929504111     0.00000000     0.00000000
 Au     1   2   0     5.024925420180   180.00000000     0.00000000



           ************************************************************
           *        Program running with 24 parallel MPI-processes    *
           *              working on a common directory               *
           ************************************************************
 One Electron integrals                  ... done
 Pre-screening matrix                    ... done


           ************************************************************
           *        Program running with 24 parallel MPI-processes    *
           *              working on a common directory               *
           ************************************************************

Diagonalization of the overlap matrix:
Smallest eigenvalue                        ... 1.002e-03
Time for diagonalization                   ...    0.005 sec
Threshold for overlap eigenvalues          ... 1.000e-08
Number of eigenvalues below threshold      ... 0
Time for construction of square roots      ...    0.003 sec
Total time needed                          ...    0.009 sec

-------------------
DFT GRID GENERATION
-------------------

General Integration Accuracy     IntAcc      ...  4.670
Radial Grid Type                 RadialGrid  ... Gauss-Chebyshev
Angular Grid (max. acc.)         AngularGrid ... Lebedev-302
Angular grid pruning method      GridPruning ... 3 (G Style)
Weight generation scheme         WeightScheme... Becke
Basis function cutoff            BFCut       ...    1.0000e-11
Integration weight cutoff        WCut        ...    1.0000e-14
Grids for H and He will be reduced by one unit

# of grid points (after initial pruning)     ...  34956 (   0.0 sec)
# of grid points (after weights+screening)   ...  34728 (   0.0 sec)
nearest neighbour list constructed           ...    0.0 sec
Grid point re-assignment to atoms done       ...    0.0 sec
Grid point division into batches done        ...    0.3 sec
Reduced shell lists constructed in    0.3 sec

Total number of grid points                  ...    34728
Total number of batches                      ...      543
Average number of points per batch           ...       63
Average number of grid points per atom       ...    11576
Average number of shells per batch           ...    13.54 (26.55%)
Average number of basis functions per batch  ...    41.12 (23.23%)
Average number of large shells per batch     ...    10.33 (76.31%)
Average number of large basis fcns per batch ...    28.17 (68.49%)
Maximum spatial batch extension              ...  37.74, 37.74,  4.83 au
Average spatial batch extension              ...   0.55,  0.55,  0.19 au

Time for grid setup =    0.365 sec

--------------
SCF ITERATIONS
--------------
ITER       Energy         Delta-E        Max-DP      RMS-DP      [F,P]     Damp
               ***  Starting incremental Fock matrix formation  ***
  0   -407.1425677863   0.000000000000 0.00348907  0.00007303  0.1651580 0.7000
  1   -407.1429931283  -0.000425341962 0.00372671  0.00007412  0.1157157 0.7000
                               ***Turning on DIIS***
  2   -407.1433087835  -0.000315655237 0.01027880  0.00020745  0.0810076 0.0000
  3   -407.1440559012  -0.000747117723 0.00233281  0.00003321  0.0011733 0.0000
  4   -407.1440688958  -0.000012994589 0.00082263  0.00001569  0.0011484 0.0000
  5   -407.1440792387  -0.000010342904 0.00197251  0.00002881  0.0003163 0.0000
  6   -407.1440825883  -0.000003349565 0.00061258  0.00000792  0.0002361 0.0000
  7   -407.1440831634  -0.000000575102 0.00024955  0.00000288  0.0001503 0.0000
  8   -407.1440831945  -0.000000031125 0.00010002  0.00000145  0.0001391 0.0000
  9   -407.1440832393  -0.000000044768 0.00005878  0.00000084  0.0000215 0.0000
 10   -407.1440832402  -0.000000000974 0.00011584  0.00000138  0.0000262 0.0000
 11   -407.1440832350   0.000000005221 0.00006988  0.00000083  0.0000290 0.0000
 12   -407.1440832437  -0.000000008671 0.00000369  0.00000007  0.0000028 0.0000
 13   -407.1440832433   0.000000000374 0.00000178  0.00000003  0.0000017 0.0000
                 **** Energy Check signals convergence ****

               *****************************************************
               *                     SUCCESS                       *
               *           SCF CONVERGED AFTER  14 CYCLES          *
               *****************************************************

Total Energy       :         -407.14408324 Eh          -11078.95375 eV
  Last Energy change         ...    6.6109e-10  Tolerance :   1.0000e-08
  Last MAX-Density change    ...    1.3355e-06  Tolerance :   1.0000e-07
             **** THE GBW FILE WAS UPDATED (Au03N0_LIN.gbw) ****
             **** DENSITY FILE WAS UPDATED (Au03N0_LIN.scfp) ****
             **** ENERGY FILE WAS UPDATED (Au03N0_LIN.en.tmp) ****
----------------------
UHF SPIN CONTAMINATION
----------------------

Warning: in a DFT calculation there is little theoretical justification to 
         calculate <S**2> as in Hartree-Fock theory. We will do it anyways
         but you should keep in mind that the values have only limited relevance

Expectation value of <S**2>     :     0.753693
Ideal value S*(S+1) for S=0.5   :     0.750000
Deviation                       :     0.003693

             **** THE GBW FILE WAS UPDATED (Au03N0_LIN.gbw) ****
             **** DENSITY FILE WAS UPDATED (Au03N0_LIN.scfp) ****
Total SCF time: 0 days 0 hours 0 min 2 sec 


-------------------------------------------------------------------------------
                          DFT DISPERSION CORRECTION                            
                                                                               
                              DFTD3 V3.1  Rev 1                                
                          USING Becke-Johnson damping                          
-------------------------------------------------------------------------------
-------------------------   ----------------
Dispersion correction           -0.004694861
-------------------------   ----------------


-------------------------   --------------------
FINAL SINGLE POINT ENERGY      -407.148778103868
-------------------------   --------------------



           ************************************************************
           *        Program running with 24 parallel MPI-processes    *
           *              working on a common directory               *
           ************************************************************
------------------------------------------------------------------------------
                         ORCA SCF GRADIENT CALCULATION
------------------------------------------------------------------------------

Gradient of the Kohn-Sham DFT energy:
Kohn-Sham wavefunction type      ... UKS
Hartree-Fock exchange scaling    ...    0.000
Number of operators              ...    2
Number of atoms                  ...    3
Basis set dimensions             ...  177
Integral neglect threshold       ... 2.5e-11
Integral primitive cutoff        ... 2.5e-12

Nuclear repulsion gradient       ... done
One Electron Gradient            
  ECP gradient                   ... done
Pre-screening matrix             ... done
RI-J gradient                    ... done
Exchange-correlation gradient    ... done
Dispersion correction            ... done

------------------
CARTESIAN GRADIENT
------------------

   1   Au  :    0.000000011    0.000000004   -0.000000137
   2   Au  :   -0.000000020   -0.000000004    0.012717384
   3   Au  :   -0.000000048    0.000000006   -0.012717223

Difference to translation invariance:
           :   -0.0000000565    0.0000000059    0.0000000238

Norm of the cartesian gradient     ...    0.0179849834
RMS gradient                       ...    0.0059949945
MAX gradient                       ...    0.0127173843

-------
TIMINGS
-------

Total SCF gradient time            ...        1.417 sec

One electron gradient       ....       1.001 sec  ( 70.6%)
Prescreening matrices       ....       0.032 sec  (  2.3%)
RI-J Coulomb gradient       ....       0.109 sec  (  7.7%)
XC gradient                 ....       0.064 sec  (  4.5%)
------------------------------------------------------------------------------
                         ORCA GEOMETRY RELAXATION STEP
------------------------------------------------------------------------------

Reading the OPT-File                    .... done
Getting information on internals        .... done
Copying old internal coords+grads       .... done
Making the new internal coordinates     .... (new redundants).... done
Validating the new internal coordinates .... (new redundants).... done
Calculating the B-matrix                .... done
Calculating the G,G- and P matrices     .... done
Transforming gradient to internals      .... done
Projecting the internal gradient        .... done
Number of atoms                         ....   3
Number of internal coordinates          ....   4
Current Energy                          ....  -407.148778104 Eh
Current gradient norm                   ....     0.017984983 Eh/bohr
Maximum allowed component of the step   ....  0.300
Current trust radius                    ....  0.300
Updating the Hessian (BFGS)             .... done
Forming the augmented Hessian           .... done
Diagonalizing the augmented Hessian     .... done
Last element of RFO vector              ....  0.977360271
Lowest eigenvalues of augmented Hessian:
 -0.003893443  0.017232047  0.083078034  0.163789689
Length of the computed step             ....  0.216483016
The final length of the internal step   ....  0.216483016
Converting the step to cartesian space:
 Initial RMS(Int)=    0.1082415078
Transforming coordinates:
 Iter   0:  RMS(Cart)=    0.0721610052 RMS(Int)=    0.1082415078
 Iter   1:  RMS(Cart)=    0.0000000021 RMS(Int)=    0.0000000197
done
Storing new coordinates                 .... done

                                .--------------------.
          ----------------------|Geometry convergence|-------------------------
          Item                value                   Tolerance       Converged
          ---------------------------------------------------------------------
          Energy change       0.0024051047            0.0000050000      NO
          RMS gradient        0.0089924917            0.0001000000      NO
          MAX gradient        0.0127173763            0.0003000000      NO
          RMS step            0.1082415078            0.0020000000      NO
          MAX step            0.1530774339            0.0040000000      NO
          ........................................................
          Max(Bonds)      0.0810      Max(Angles)    0.00
          Max(Dihed)        0.00      Max(Improp)    0.00
          ---------------------------------------------------------------------

The optimization has not yet converged - more geometry cycles are needed


    ---------------------------------------------------------------------------
                         Redundant Internal Coordinates
                            (Angstroem and degrees)

        Definition                    Value    dE/dq     Step     New-Value
    ----------------------------------------------------------------------------
     1. B(Au  1,Au  0)                2.6591  0.012717 -0.0810    2.5781   
     2. B(Au  2,Au  0)                2.6591  0.012717 -0.0810    2.5781   
     3. L(Au  1,Au  0,Au  2, 2)       180.00 -0.000000    0.00    180.00   
     4. L(Au  1,Au  0,Au  2, 1)       180.00  0.000000    0.00    180.00   
    ----------------------------------------------------------------------------

         *************************************************************
         *                GEOMETRY OPTIMIZATION CYCLE   3            *
         *************************************************************
---------------------------------
CARTESIAN COORDINATES (ANGSTROEM)
---------------------------------
  Au     0.000000   -0.000000   -0.000000
  Au    -0.000000    0.000000    2.578073
  Au    -0.000000    0.000000   -2.578072

----------------------------
CARTESIAN COORDINATES (A.U.)
----------------------------
  NO LB      ZA    FRAG     MASS         X           Y           Z
   0 Au   19.0000*   0   196.966    0.000000   -0.000000   -0.000001
   1 Au   19.0000*   0   196.966   -0.000000    0.000000    4.871851
   2 Au   19.0000*   0   196.966   -0.000000    0.000000   -4.871850
* core charge reduced due to ECP

--------------------------------
INTERNAL COORDINATES (ANGSTROEM)
--------------------------------
 Au     0   0   0     0.000000000000     0.00000000     0.00000000
 Au     1   0   0     2.578073077777     0.00000000     0.00000000
 Au     1   2   0     2.578071790421   179.99999809     0.00000000

---------------------------
INTERNAL COORDINATES (A.U.)
---------------------------
 Au     0   0   0     0.000000000000     0.00000000     0.00000000
 Au     1   0   0     4.871852070234     0.00000000     0.00000000
 Au     1   2   0     4.871849637483   179.99999809     0.00000000



           ************************************************************
           *        Program running with 24 parallel MPI-processes    *
           *              working on a common directory               *
           ************************************************************
 One Electron integrals                  ... done
 Pre-screening matrix                    ... done


           ************************************************************
           *        Program running with 24 parallel MPI-processes    *
           *              working on a common directory               *
           ************************************************************

Diagonalization of the overlap matrix:
Smallest eigenvalue                        ... 7.992e-04
Time for diagonalization                   ...    0.007 sec
Threshold for overlap eigenvalues          ... 1.000e-08
Number of eigenvalues below threshold      ... 0
Time for construction of square roots      ...    0.003 sec
Total time needed                          ...    0.010 sec

-------------------
DFT GRID GENERATION
-------------------

General Integration Accuracy     IntAcc      ...  4.670
Radial Grid Type                 RadialGrid  ... Gauss-Chebyshev
Angular Grid (max. acc.)         AngularGrid ... Lebedev-302
Angular grid pruning method      GridPruning ... 3 (G Style)
Weight generation scheme         WeightScheme... Becke
Basis function cutoff            BFCut       ...    1.0000e-11
Integration weight cutoff        WCut        ...    1.0000e-14
Grids for H and He will be reduced by one unit

# of grid points (after initial pruning)     ...  34956 (   0.0 sec)
# of grid points (after weights+screening)   ...  34728 (   0.0 sec)
nearest neighbour list constructed           ...    0.0 sec
Grid point re-assignment to atoms done       ...    0.0 sec
Grid point division into batches done        ...    0.3 sec
Reduced shell lists constructed in    0.3 sec

Total number of grid points                  ...    34728
Total number of batches                      ...      545
Average number of points per batch           ...       63
Average number of grid points per atom       ...    11576
Average number of shells per batch           ...    14.58 (28.59%)
Average number of basis functions per batch  ...    45.42 (25.66%)
Average number of large shells per batch     ...    10.42 (71.43%)
Average number of large basis fcns per batch ...    28.58 (62.94%)
Maximum spatial batch extension              ...  37.74, 37.74,  4.83 au
Average spatial batch extension              ...   0.55,  0.54,  0.19 au

Time for grid setup =    0.353 sec

--------------
SCF ITERATIONS
--------------
ITER       Energy         Delta-E        Max-DP      RMS-DP      [F,P]     Damp
               ***  Starting incremental Fock matrix formation  ***
  0   -407.1456739426   0.000000000000 0.00248741  0.00005226  0.1260217 0.7000
  1   -407.1458900480  -0.000216105371 0.00265489  0.00005300  0.0882961 0.7000
                               ***Turning on DIIS***
  2   -407.1460488294  -0.000158781419 0.00733212  0.00014798  0.0618131 0.0000
  3   -407.1464222055  -0.000373376069 0.00287878  0.00004333  0.0009503 0.0000
  4   -407.1464243031  -0.000002097611 0.00059724  0.00001071  0.0013905 0.0000
  5   -407.1464343287  -0.000010025578 0.00061982  0.00001012  0.0003308 0.0000
  6   -407.1464352680  -0.000000939364 0.00023449  0.00000344  0.0001510 0.0000
  7   -407.1464354306  -0.000000162583 0.00003990  0.00000084  0.0000396 0.0000
[...]
      f0      :     0.013146  f :     0.025168
      f+1     :     0.005567
      f-1     :     0.005567
      f+2     :     0.000445
      f-2     :     0.000445
      f+3     :     0.000000
      f-3     :     0.000000
      g0      :     0.000132  g :     0.000323
      g+1     :     0.000084
      g-1     :     0.000084
      g+2     :     0.000012
      g-2     :     0.000011
      g+3     :     0.000000
      g-3     :     0.000000
      g+4     :     0.000000
      g-4     :     0.000000
  1 Aus       :     2.871095  s :     2.871095
      pz      :     2.093912  p :     6.134027
      px      :     2.020057
      py      :     2.020057
      dz2     :     1.928354  d :     9.892234
      dxz     :     1.982023
      dyz     :     1.982023
      dx2y2   :     1.999917
      dxy     :     1.999917
      f0      :     0.004255  f :     0.011117
      f+1     :     0.003159
      f-1     :     0.003159
      f+2     :     0.000271
      f-2     :     0.000272
      f+3     :     0.000000
      f-3     :     0.000000
      g0      :     0.000066  g :     0.000159
      g+1     :     0.000041
      g-1     :     0.000041
      g+2     :     0.000005
      g-2     :     0.000005
      g+3     :     0.000000
      g-3     :     0.000000
      g+4     :     0.000000
      g-4     :     0.000000
  2 Aus       :     2.871075  s :     2.871075
      pz      :     2.093897  p :     6.133999
      px      :     2.020051
      py      :     2.020051
      dz2     :     1.928354  d :     9.892237
      dxz     :     1.982025
      dyz     :     1.982025
      dx2y2   :     1.999917
      dxy     :     1.999917
      f0      :     0.004253  f :     0.011111
      f+1     :     0.003158
      f-1     :     0.003158
      f+2     :     0.000271
      f-2     :     0.000271
      f+3     :     0.000000
      f-3     :     0.000000
      g0      :     0.000066  g :     0.000159
      g+1     :     0.000041
      g-1     :     0.000041
      g+2     :     0.000005
      g-2     :     0.000005
      g+3     :     0.000000
      g-3     :     0.000000
      g+4     :     0.000000
      g-4     :     0.000000

SPIN
  0 Aus       :    -0.014602  s :    -0.014602
      pz      :     0.284009  p :     0.284283
      px      :     0.000137
      py      :     0.000137
      dz2     :     0.001387  d :    -0.003332
      dxz     :    -0.002334
      dyz     :    -0.002334
      dx2y2   :    -0.000025
      dxy     :    -0.000025
      f0      :     0.000957  f :     0.001086
      f+1     :     0.000057
      f-1     :     0.000057
      f+2     :     0.000008
      f-2     :     0.000008
      f+3     :    -0.000000
      f-3     :    -0.000000
      g0      :    -0.000001  g :     0.000001
      g+1     :     0.000001
      g-1     :     0.000001
      g+2     :     0.000000
      g-2     :     0.000000
      g+3     :    -0.000000
      g-3     :    -0.000000
      g+4     :    -0.000000
      g-4     :    -0.000000
  1 Aus       :     0.340224  s :     0.340224
      pz      :     0.002239  p :     0.004894
      px      :     0.001327
      py      :     0.001327
      dz2     :     0.021732  d :     0.021202
      dxz     :    -0.000268
      dyz     :    -0.000268
      dx2y2   :     0.000003
      dxy     :     0.000003
      f0      :    -0.000085  f :    -0.000048
      f+1     :     0.000012
      f-1     :     0.000012
      f+2     :     0.000007
      f-2     :     0.000007
      f+3     :    -0.000000
      f-3     :    -0.000000
      g0      :    -0.000002  g :    -0.000006
      g+1     :    -0.000001
      g-1     :    -0.000001
      g+2     :    -0.000001
      g-2     :    -0.000001
      g+3     :    -0.000000
      g-3     :    -0.000000
      g+4     :    -0.000000
      g-4     :    -0.000000
  2 Aus       :     0.340264  s :     0.340264
      pz      :     0.002235  p :     0.004889
      px      :     0.001327
      py      :     0.001327
      dz2     :     0.021728  d :     0.021198
      dxz     :    -0.000268
      dyz     :    -0.000268
      dx2y2   :     0.000003
      dxy     :     0.000003
      f0      :    -0.000085  f :    -0.000048
      f+1     :     0.000012
      f-1     :     0.000012
      f+2     :     0.000007
      f-2     :     0.000007
      f+3     :    -0.000000
      f-3     :    -0.000000
      g0      :    -0.000002  g :    -0.000006
      g+1     :    -0.000001
      g-1     :    -0.000001
      g+2     :    -0.000001
      g-2     :    -0.000001
      g+3     :    -0.000000
      g-3     :    -0.000000
      g+4     :    -0.000000
      g-4     :    -0.000000


                      *****************************
                      * MAYER POPULATION ANALYSIS *
                      *****************************

  NA   - Mulliken gross atomic population
  ZA   - Total nuclear charge
  QA   - Mulliken gross atomic charge
  VA   - Mayer's total valence
  BVA  - Mayer's bonded valence
  FA   - Mayer's free valence

  ATOM       NA         ZA         QA         VA         BVA        FA
  0 Au    19.1583    19.0000    -0.1583     1.4493     1.4436     0.0057
  1 Au    18.9209    19.0000     0.0791     1.3120     1.0709     0.2411
  2 Au    18.9208    19.0000     0.0792     1.3119     1.0709     0.2411

  Mayer bond orders larger than 0.100000
B(  0-Au,  1-Au) :   0.7218 B(  0-Au,  2-Au) :   0.7217 B(  1-Au,  2-Au) :   0.3491 


-------
TIMINGS
-------

Total SCF time: 0 days 0 hours 0 min 1 sec 

Total time                  ....       1.007 sec
Sum of individual times     ....       0.877 sec  ( 87.1%)

Fock matrix formation       ....       0.461 sec  ( 45.8%)
  Split-RI-J                ....       0.279 sec  ( 60.5% of F)
  XC integration            ....       0.136 sec  ( 29.4% of F)
    Basis function eval.    ....       0.011 sec  (  8.0% of XC)
    Density eval.           ....       0.030 sec  ( 22.1% of XC)
    XC-Functional eval.     ....       0.008 sec  (  5.6% of XC)
    XC-Potential eval.      ....       0.048 sec  ( 35.1% of XC)
Diagonalization             ....       0.024 sec  (  2.4%)
Density matrix formation    ....       0.005 sec  (  0.5%)
Population analysis         ....       0.010 sec  (  1.0%)
Initial guess               ....       0.017 sec  (  1.7%)
Orbital Transformation      ....       0.000 sec  (  0.0%)
Orbital Orthonormalization  ....       0.010 sec  (  1.0%)
DIIS solution               ....       0.005 sec  (  0.5%)
Grid generation             ....       0.355 sec  ( 35.3%)


-------------------------------------------------------------------------------
                          DFT DISPERSION CORRECTION                            
                                                                               
                              DFTD3 V3.1  Rev 1                                
                          USING Becke-Johnson damping                          
-------------------------------------------------------------------------------
The TPSS functional is recognized
Active option DFTDOPT                   ...         4   

molecular C6(AA) [au] = 2858.438626 


            DFT-D V3
 parameters
 s6 scaling factor         :     1.0000 
 a1 scaling factor         :     0.4535 
 s8 scaling factor         :     1.9435 
 a2 scaling factor         :     4.4752 
 ad hoc parameters k1-k3   :    16.0000     1.3333    -4.0000 

 Edisp/kcal,au: -3.025661786738  -0.004821698459 
 E6   /kcal   :  -0.899511055 
 E8   /kcal   :  -2.126150732 
 % E8         :  70.270601326 

-------------------------   ----------------
Dispersion correction           -0.004821698
-------------------------   ----------------


-------------------------   --------------------
FINAL SINGLE POINT ENERGY      -407.151292192964
-------------------------   --------------------

                                *** OPTIMIZATION RUN DONE ***

                            ***************************************
                            *     ORCA property calculations      *
                            ***************************************

                                    ---------------------
                                    Active property flags
                                    ---------------------
   (+) Dipole Moment


------------------------------------------------------------------------------
                       ORCA ELECTRIC PROPERTIES CALCULATION
------------------------------------------------------------------------------

Dipole Moment Calculation                       ... on
Quadrupole Moment Calculation                   ... off
Polarizability Calculation                      ... off
GBWName                                         ... Au03N0_LIN.gbw
Electron density file                           ... Au03N0_LIN.scfp
The origin for moment calculation is the CENTER OF MASS  = ( 0.000000,  0.000000  0.000000)

-------------
DIPOLE MOMENT
-------------
                                X             Y             Z
Electronic contribution:      0.00000      -0.00000      -0.00031
Nuclear contribution   :      0.00000      -0.00000       0.00000
                        -----------------------------------------
Total Dipole Moment    :      0.00000      -0.00000      -0.00031
                        -----------------------------------------
Magnitude (a.u.)       :      0.00031
Magnitude (Debye)      :      0.00079



--------------------
Rotational spectrum 
--------------------
 
Rotational constants in cm-1:     0.000000     0.006485     0.006485 
Rotational constants in MHz :     0.000000   194.409499   194.409499 

 Dipole components along the rotational axes: 
x,y,z [a.u.] :     0.000311    -0.000000     0.000000 
x,y,z [Debye]:     0.000791    -0.000000     0.000000 

 

----------------------------------------------------------------------------
                           ORCA NUMERICAL FREQUENCIES
                              (24-process run)
----------------------------------------------------------------------------

Number of atoms                ... 3
Central differences            ... used
Number of displacements        ... 18
Numerical increment            ... 5.000e-03 bohr
IR-spectrum generation         ... on
Raman-spectrum generation      ... off
Surface Crossing Hessian       ... off

 WARNING: There are more processes than displacements to do
  ====> : Reducing number of processes to   9

The output will be reduced. Please look at the following files:
SCF program output             ... >Au03N0_LIN.lastscf
Integral program output        ... >Au03N0_LIN.lastint
Gradient program output        ... >Au03N0_LIN.lastgrad
Dipole moment program output   ... >Au03N0_LIN.lastmom
AutoCI program output          ... >Au03N0_LIN.lastautoci


         <<< Energy and Gradient at the input geometry >>>

        <<< Energy and Gradient at displaced geometries >>>
             <<<Displacing   1/coordinate 3 (+)>>>
             <<<Displacing   1/coordinate 2 (+)>>>
             <<<Displacing   1/coordinate 1 (+)>>>
             <<<Displacing   3/coordinate 1 (+)>>>
             <<<Displacing   3/coordinate 2 (+)>>>
             <<<Displacing   2/coordinate 3 (+)>>>
             <<<Displacing   3/coordinate 3 (+)>>>
             <<<Displacing   2/coordinate 2 (+)>>>
             <<<Displacing   2/coordinate 1 (+)>>>
             <<<Displacing   2/coordinate 1 (-)>>>
             <<<Displacing   3/coordinate 1 (-)>>>
             <<<Displacing   3/coordinate 2 (-)>>>
             <<<Displacing   2/coordinate 2 (-)>>>
             <<<Displacing   1/coordinate 1 (-)>>>
             <<<Displacing   1/coordinate 2 (-)>>>
             <<<Displacing   1/coordinate 3 (-)>>>
             <<<Displacing   3/coordinate 3 (-)>>>
             <<<Displacing   2/coordinate 3 (-)>>>
Warning: T+R mode no 5 is zero 

-----------------------
VIBRATIONAL FREQUENCIES
-----------------------

Scaling factor for frequencies =  1.000000000 (already applied!)

   0:         0.00 cm**-1
   1:         0.00 cm**-1
   2:         0.00 cm**-1
   3:         0.00 cm**-1
   4:         0.00 cm**-1
   5:       -43.46 cm**-1 ***imaginary mode***
   6:       -43.37 cm**-1 ***imaginary mode***
   7:       111.68 cm**-1
   8:       177.36 cm**-1


------------
NORMAL MODES
------------

These modes are the cartesian displacements weighted by the diagonal matrix
M(i,i)=1/sqrt(m[i]) where m[i] is the mass of the displaced atom
Thus, these vectors are normalized but *not* orthogonal

                  0          1          2          3          4          5    
      0       0.000000   0.000000   0.000000   0.000000   0.000000   0.021726
      1       0.000000   0.000000   0.000000   0.000000   0.000000  -0.816207
      2       0.000000   0.000000   0.000000   0.000000   0.000000   0.000039
      3       0.000000   0.000000   0.000000   0.000000   0.000000  -0.010863
      4       0.000000   0.000000   0.000000   0.000000   0.000000   0.408114
      5       0.000000   0.000000   0.000000   0.000000   0.000000  -0.000024
      6       0.000000   0.000000   0.000000   0.000000   0.000000  -0.010863
      7       0.000000   0.000000   0.000000   0.000000   0.000000   0.408093
      8       0.000000   0.000000   0.000000   0.000000   0.000000  -0.000016
                   6          7          8    
      0       0.816207  -0.000001  -0.001254
      1       0.021726   0.000005   0.000006
      2       0.001253  -0.002012   0.816493
      3      -0.408114   0.000001   0.000627
      4      -0.010863  -0.000002  -0.000003
      5      -0.000630  -0.706099  -0.409989
      6      -0.408093   0.000001   0.000627
      7      -0.010863  -0.000002  -0.000003
      8      -0.000623   0.708111  -0.406504


-----------
IR SPECTRUM  
-----------

 Mode    freq (cm**-1)   T**2         TX         TY         TZ
-------------------------------------------------------------------
   7:       111.68    0.000027  ( -0.000000  -0.000007  -0.005194)
   8:       177.36    0.006928  (  0.000074   0.000000   0.083234)

The first frequency considered to be a vibration is 7
The total number of vibrations considered is 2


--------------------------
THERMOCHEMISTRY AT 298.15K
--------------------------

Temperature         ... 298.15 K
Pressure            ... 1.00 atm
Total Mass          ... 590.90 AMU
The molecule is recognized as being linear

Throughout the following assumptions are being made:
  (1) The electronic state is orbitally nondegenerate
      but the spin degeneracy is treated
  (2) There are no thermally accessible electronically excited states
  (3) Hindered rotations indicated by low frequency modes are not
      treated as such but are treated as vibrations and this may
      cause some error
  (4) All equations used are the standard statistical mechanics
      equations for an ideal gas
  (5) All vibrations are strictly harmonic

freq.     111.68  E(vib)   ...       0.45 
freq.     177.36  E(vib)   ...       0.37 

------------
INNER ENERGY
------------

The inner energy is: U= E(el) + E(ZPE) + E(vib) + E(rot) + E(trans)
    E(el)   - is the total energy from the electronic structure calculation
              = E(kin-el) + E(nuc-el) + E(el-el) + E(nuc-nuc)
    E(ZPE)  - the the zero temperature vibrational energy from the frequency calculation
    E(vib)  - the the finite temperature correction to E(ZPE) due to population
              of excited vibrational states
    E(rot)  - is the rotational thermal energy
    E(trans)- is the translational thermal energy

Summary of contributions to the inner energy U:
Electronic energy                ...   -407.15129219 Eh
Zero point energy                ...      0.00065849 Eh       0.41 kcal/mol
Thermal vibrational correction   ...      0.00130962 Eh       0.82 kcal/mol
Thermal rotational correction    ...      0.00094418 Eh       0.59 kcal/mol
Thermal translational correction ...      0.00141627 Eh       0.89 kcal/mol
-----------------------------------------------------------------------
Total thermal energy                   -407.14696363 Eh


Summary of corrections to the electronic energy:
(perhaps to be used in another calculation)
Total thermal correction                  0.00367007 Eh       2.30 kcal/mol
Non-thermal (ZPE) correction              0.00065849 Eh       0.41 kcal/mol
-----------------------------------------------------------------------
Total correction                          0.00432856 Eh       2.72 kcal/mol


--------
ENTHALPY
--------

The enthalpy is H = U + kB*T
                kB is Boltzmann's constant
Total free energy                 ...   -407.14696363 Eh 
Thermal Enthalpy correction       ...      0.00094421 Eh       0.59 kcal/mol
-----------------------------------------------------------------------
Total Enthalpy                    ...   -407.14601942 Eh


Note: Rotational entropy computed according to Herzberg 
Infrared and Raman Spectra, Chapter V,1, Van Nostrand Reinhold, 1945 
Point Group:  Cinfv, Symmetry Number:   1  
Rotational constants in cm-1:     0.000000     0.006485     0.006485 

Vibrational entropy computed according to the QRRHO of S. Grimme
Chem.Eur.J. 2012 18 9955


-------
ENTROPY
-------

The entropy contributions are T*S = T*(S(el)+S(vib)+S(rot)+S(trans))
     S(el)   - electronic entropy
     S(vib)  - vibrational entropy
     S(rot)  - rotational entropy
     S(trans)- translational entropy
The entropies will be listed as mutliplied by the temperature to get
units of energy

Electronic entropy                ...      0.00065446 Eh      0.41 kcal/mol
Vibrational entropy               ...      0.00256372 Eh      1.61 kcal/mol
Rotational entropy                ...      0.01073732 Eh      6.74 kcal/mol
Translational entropy             ...      0.02138721 Eh     13.42 kcal/mol
-----------------------------------------------------------------------
Final entropy term                ...      0.03534271 Eh     22.18 kcal/mol

In case the symmetry of your molecule has not been determined correctly
or in case you have a reason to use a different symmetry number we print 
out the resulting rotational entropy values for sn=1,12 :
 --------------------------------------------------------
|  sn= 1 | S(rot)=      -0.00128449 Eh     -0.81 kcal/mol|
|  sn= 2 | S(rot)=      -0.00193895 Eh     -1.22 kcal/mol|
|  sn= 3 | S(rot)=      -0.00232178 Eh     -1.46 kcal/mol|
|  sn= 4 | S(rot)=      -0.00259340 Eh     -1.63 kcal/mol|
|  sn= 5 | S(rot)=      -0.00280409 Eh     -1.76 kcal/mol|
|  sn= 6 | S(rot)=      -0.00297624 Eh     -1.87 kcal/mol|
|  sn= 7 | S(rot)=      -0.00312178 Eh     -1.96 kcal/mol|
|  sn= 8 | S(rot)=      -0.00324786 Eh     -2.04 kcal/mol|
|  sn= 9 | S(rot)=      -0.00335907 Eh     -2.11 kcal/mol|
|  sn=10 | S(rot)=      -0.00345855 Eh     -2.17 kcal/mol|
|  sn=11 | S(rot)=      -0.00354854 Eh     -2.23 kcal/mol|
|  sn=12 | S(rot)=      -0.00363069 Eh     -2.28 kcal/mol|
 --------------------------------------------------------


-------------------
GIBBS FREE ENERGY
-------------------

The Gibbs free energy is G = H - T*S

Total enthalpy                    ...   -407.14601942 Eh 
Total entropy correction          ...     -0.03534271 Eh    -22.18 kcal/mol
-----------------------------------------------------------------------
Final Gibbs free energy         ...   -407.18136213 Eh

For completeness - the Gibbs free energy minus the electronic energy
G-E(el)                           ...     -0.03006994 Eh    -18.87 kcal/mol


Total Time for Numerical Frequencies  :        35.390 sec

Timings for individual modules:

Sum of individual times         ...       36.559 sec (=   0.609 min)
GTO integral calculation        ...        6.213 sec (=   0.104 min)  17.0 %
SCF iterations                  ...       19.075 sec (=   0.318 min)  52.2 %
SCF Gradient evaluation         ...       11.082 sec (=   0.185 min)  30.3 %
Geometry relaxation             ...        0.189 sec (=   0.003 min)   0.5 %
                             ****ORCA TERMINATED NORMALLY****
TOTAL RUN TIME: 0 days 0 hours 1 minutes 8 seconds 520 msec
