
                                 *****************
                                 * O   R   C   A *
                                 *****************

           --- An Ab Initio, DFT and Semiempirical electronic structure package ---

                  #######################################################
                  #                        -***-                        #
                  #          Department of theory and spectroscopy      #
                  #               Directorship: Frank Neese             #
                  #        Max Planck Institute fuer Kohlenforschung    #
                  #                Kaiser Wilhelm Platz 1               #
                  #                 D-45470 Muelheim/Ruhr               #
                  #                      Germany                        #
                  #                                                     #
                  #                  All rights reserved                #
                  #                        -***-                        #
                  #######################################################


                         Program Version 4.2.0 -  RELEASE  -


 With contributions from (in alphabetic order):
   Daniel Aravena         : Magnetic Suceptibility
   Michael Atanasov       : Ab Initio Ligand Field Theory (pilot matlab implementation)
   Alexander A. Auer      : GIAO ZORA, VPT2
   Ute Becker             : Parallelization
   Giovanni Bistoni       : ED, misc. LED, open-shell LED, HFLED
   Martin Brehm           : Molecular dynamics
   Dmytro Bykov           : SCF Hessian
   Vijay G. Chilkuri      : MRCI spin determinant printing, contributions to CSF-ICE
   Dipayan Datta          : RHF DLPNO-CCSD density
   Achintya Kumar Dutta   : EOM-CC, STEOM-CC
   Dmitry Ganyushin       : Spin-Orbit,Spin-Spin,Magnetic field MRCI
   Miquel Garcia          : C-PCM Hessian, Gaussian charge scheme
   Yang Guo               : DLPNO-NEVPT2, CIM, IAO-localization
   Andreas Hansen         : Spin unrestricted coupled pair/coupled cluster methods
   Benjamin Helmich-Paris : CASSCF linear response (MC-RPA)
   Lee Huntington         : MR-EOM, pCC
   Robert Izsak           : Overlap fitted RIJCOSX, COSX-SCS-MP3, EOM
   Christian Kollmar      : KDIIS, OOCD, Brueckner-CCSD(T), CCSD density
   Simone Kossmann        : Meta GGA functionals, TD-DFT gradient, OOMP2, MP2 Hessian
   Martin Krupicka        : AUTO-CI
   Lucas Lang             : DCDCAS
   Dagmar Lenk            : GEPOL surface, SMD
   Dimitrios Liakos       : Extrapolation schemes; Compound Job, initial MDCI parallelization
   Dimitrios Manganas     : Further ROCIS development; embedding schemes
   Dimitrios Pantazis     : SARC Basis sets
   Taras Petrenko         : DFT Hessian,TD-DFT gradient, ASA, ECA, R-Raman, ABS, FL, XAS/XES, NRVS
   Peter Pinski           : DLPNO-MP2, DLPNO-MP2 Gradient
   Christoph Reimann      : Effective Core Potentials
   Marius Retegan         : Local ZFS, SOC
   Christoph Riplinger    : Optimizer, TS searches, QM/MM, DLPNO-CCSD(T), (RO)-DLPNO pert. Triples
   Tobias Risthaus        : Range-separated hybrids, TD-DFT gradient, RPA, STAB
   Michael Roemelt        : Original ROCIS implementation
   Masaaki Saitow         : Open-shell DLPNO-CCSD energy and density
   Barbara Sandhoefer     : DKH picture change effects
   Avijit Sen             : IP-ROCIS
   Kantharuban Sivalingam : CASSCF convergence, NEVPT2, FIC-MRCI
   Bernardo de Souza      : ESD, SOC TD-DFT
   Georgi Stoychev        : AutoAux, RI-MP2 NMR
   Willem Van den Heuvel  : Paramagnetic NMR
   Boris Wezisla          : Elementary symmetry handling
   Frank Wennmohs         : Technical directorship


 We gratefully acknowledge several colleagues who have allowed us to
 interface, adapt or use parts of their codes:
   Stefan Grimme, W. Hujo, H. Kruse,             : VdW corrections, initial TS optimization,
                  C. Bannwarth                     DFT functionals, gCP, sTDA/sTD-DF
   Ed Valeev, F. Pavosevic, A. Kumar             : LibInt (2-el integral package), F12 methods
   Garnet Chan, S. Sharma, J. Yang, R. Olivares  : DMRG
   Ulf Ekstrom                                   : XCFun DFT Library
   Mihaly Kallay                                 : mrcc  (arbitrary order and MRCC methods)
   Andreas Klamt, Michael Diedenhofen            : otool_cosmo (COSMO solvation model)
   Jiri Pittner, Ondrej Demel                    : Mk-CCSD
   Frank Weinhold                                : gennbo (NPA and NBO analysis)
   Christopher J. Cramer and Donald G. Truhlar   : smd solvation model
   Lars Goerigk                                  : TD-DFT with DH, B97 family of functionals
   V. Asgeirsson, H. Jonsson                     : NEB implementation
   FAccTs GmbH                                   : IRC, NEB, NEB-TS, Multilevel, MM, QM/MM, CI optimization
   S Lehtola, MJT Oliveira, MAL Marques          : LibXC Library


 Your calculation uses the libint2 library for the computation of 2-el integrals
 For citations please refer to: http://libint.valeyev.net

 Your ORCA version has been built with support for libXC version: 4.2.3
 For citations please refer to: https://tddft.org/programs/libxc/

 This ORCA versions uses:
   CBLAS   interface :  Fast vector & matrix operations
   LAPACKE interface :  Fast linear algebra routines
   SCALAPACK package :  Parallel linear algebra routines


Your calculation utilizes the atom-pairwise dispersion correction
with the Becke-Johnson damping scheme (D3BJ)
Cite in your paper:
S.Grimme, S.Ehrlich, L.Goerigk, J Comput Chem, (2011), 32, 1456–1465 
S.Grimme, J.Antony, S.Ehrlich and H.Krieg, J.Chem.Phys., 132, (2010), 154104 
   

----- Orbital basis set information -----
Your calculation utilizes the basis: def2-TZVPPD
   F. Weigend and R. Ahlrichs, Phys. Chem. Chem. Phys. 7, 3297 (2005).
   D. Rappoport and F. Furche, J. Chem. Phys. 133 134105 (2010).

----- AuxJ basis set information -----
Your calculation utilizes the auxiliary basis: def2/J
   F. Weigend, Phys. Chem. Chem. Phys. 8, 1057 (2006).

================================================================================
                                        WARNINGS
                       Please study these warnings very carefully!
================================================================================


WARNING: Geometry Optimization
  ===> : Switching off AutoStart
         For restart on a previous wavefunction, please use MOREAD

INFO   : the flag for use of LIBINT has been found!

================================================================================
                                       INPUT FILE
================================================================================
NAME = Cu02N0.in
|  1> #
|  2> # Cu02N0 TPSS-D3BJ/Def2-TZVPPD
|  3> #
|  4> ! tpss d3bj def2-tzvppd def2/j grid4 nofinalgrid opt xyzfile numfreq
|  5> 
|  6> *xyz 0 1
|  7> Cu       0.000000    0.000000    1.107490 
|  8> Cu       0.000000    0.000000   -1.107490 
|  9> *
| 10> 
| 11> %maxcore 5000
| 12> 
| 13> %pal
| 14> nprocs = 24
| 15> end
| 16> 
| 17> 
| 18>                          ****END OF INPUT****
================================================================================

                       *****************************
                       * Geometry Optimization Run *
                       *****************************

Geometry optimization settings:
Update method            Update   .... BFGS
Choice of coordinates    CoordSys .... Z-matrix Internals
Initial Hessian          InHess   .... Almoef's Model

Convergence Tolerances:
Energy Change            TolE     ....  5.0000e-06 Eh
Max. Gradient            TolMAXG  ....  3.0000e-04 Eh/bohr
RMS Gradient             TolRMSG  ....  1.0000e-04 Eh/bohr
Max. Displacement        TolMAXD  ....  4.0000e-03 bohr
RMS Displacement         TolRMSD  ....  2.0000e-03 bohr
Strict Convergence                ....  False
------------------------------------------------------------------------------
                        ORCA OPTIMIZATION COORDINATE SETUP
------------------------------------------------------------------------------

The optimization will be done in new redundant internal coordinates
Making redundant internal coordinates   ...  (new redundants) done
Evaluating the initial hessian          ...  (Almloef) done
Evaluating the coordinates              ...  done
Calculating the B-matrix                .... done
Calculating the G-matrix                .... done
Diagonalizing the G-matrix              .... done
The first mode is                       ....    0
The number of degrees of freedom        ....    1

    -----------------------------------------------------------------
                    Redundant Internal Coordinates


    -----------------------------------------------------------------
         Definition                    Initial Value    Approx d2E/dq
    -----------------------------------------------------------------
      1. B(Cu  1,Cu  0)                  2.2150         3.088767   
    -----------------------------------------------------------------

Number of atoms                         .... 2
Number of degrees of freedom            .... 1

         *************************************************************
         *                GEOMETRY OPTIMIZATION CYCLE   1            *
         *************************************************************
---------------------------------
CARTESIAN COORDINATES (ANGSTROEM)
---------------------------------
  Cu     0.000000    0.000000    1.107490
  Cu     0.000000    0.000000   -1.107490

----------------------------
CARTESIAN COORDINATES (A.U.)
----------------------------
  NO LB      ZA    FRAG     MASS         X           Y           Z
   0 Cu   29.0000    0    63.550    0.000000    0.000000    2.092853
   1 Cu   29.0000    0    63.550    0.000000    0.000000   -2.092853

--------------------------------
INTERNAL COORDINATES (ANGSTROEM)
--------------------------------
 Cu     0   0   0     0.000000000000     0.00000000     0.00000000
 Cu     1   0   0     2.214980000000     0.00000000     0.00000000

---------------------------
INTERNAL COORDINATES (A.U.)
---------------------------
 Cu     0   0   0     0.000000000000     0.00000000     0.00000000
 Cu     1   0   0     4.185705592113     0.00000000     0.00000000

---------------------
BASIS SET INFORMATION
---------------------
There are 1 groups of distinct atoms

 Group   1 Type Cu  : 17s13p7d2f1g contracted to 6s6p4d2f1g pattern {842111/631111/4111/11/1}

Atom   0Cu   basis set group =>   1
Atom   1Cu   basis set group =>   1
---------------------------------
AUXILIARY/J BASIS SET INFORMATION
---------------------------------
There are 1 groups of distinct atoms

 Group   1 Type Cu  : 19s5p5d3f3g contracted to 8s5p4d3f3g pattern {121111111/11111/2111/111/111}

Atom   0Cu   basis set group =>   1
Atom   1Cu   basis set group =>   1


           ************************************************************
           *        Program running with 24 parallel MPI-processes    *
           *              working on a common directory               *
           ************************************************************
------------------------------------------------------------------------------
                           ORCA GTO INTEGRAL CALCULATION
                           -- RI-GTO INTEGRALS CHOSEN --
------------------------------------------------------------------------------

                         BASIS SET STATISTICS AND STARTUP INFO

Gaussian basis set:
 # of primitive gaussian shells          ...   80
 # of primitive gaussian functions       ...  228
 # of contracted shells                  ...   38
 # of contracted basis functions         ...  134
 Highest angular momentum                ...    4
 Maximum contraction depth               ...    8
Auxiliary gaussian basis set:
 # of primitive gaussian shells          ...   70
 # of primitive gaussian functions       ...  214
 # of contracted shells                  ...   46
 # of contracted aux-basis functions     ...  182
 Highest angular momentum                ...    4
 Maximum contraction depth               ...   12
Ratio of auxiliary to basis functions    ...  1.36
Integral package used                  ... LIBINT
 One Electron integrals                  ... done
 Ordering auxiliary basis shells         ... done
 Integral threshhold             Thresh  ...  2.500e-11
 Primitive cut-off               TCut    ...  2.500e-12
 Pre-screening matrix                    ... done
 Shell pair data                         ... 
 Ordering of the shell pairs             ... done (   0.000 sec) 705 of 741 pairs
 Determination of significant pairs      ... done (   0.000 sec)
 Creation of shell pair data             ... done (   0.000 sec)
 Storage of shell pair data              ... done (   0.024 sec)
 Shell pair data done in (   0.025 sec)
 Computing two index integrals           ... done
 Cholesky decomposition of the V-matrix  ... done


Timings:
 Total evaluation time                   ...   0.207 sec (  0.003 min)
 One electron matrix time                ...   0.010 sec (  0.000 min) =  5.0%
 Schwartz matrix evaluation time         ...   0.132 sec (  0.002 min) = 64.0%
 Two index repulsion integral time       ...   0.001 sec (  0.000 min) =  0.3%
 Cholesky decomposition of V             ...   0.001 sec (  0.000 min) =  0.4%
 Three index repulsion integral time     ...   0.000 sec (  0.000 min) =  0.0%



           ************************************************************
           *        Program running with 24 parallel MPI-processes    *
           *              working on a common directory               *
           ************************************************************
-------------------------------------------------------------------------------
                                 ORCA SCF
-------------------------------------------------------------------------------

------------
SCF SETTINGS
------------
Hamiltonian:
 Density Functional     Method          .... DFT(GTOs)
 Exchange Functional    Exchange        .... TPSS
 Correlation Functional Correlation     .... TPSS
 LDA part of GGA corr.  LDAOpt          .... PW91-LDA
 Gradients option       PostSCFGGA      .... off
   Density functional embedding theory  .... OFF
   NL short-range parameter             ....  5.000000
 RI-approximation to the Coulomb term is turned on
   Number of auxiliary basis functions  .... 182


General Settings:
 Integral files         IntName         .... Cu02N0
 Hartree-Fock type      HFTyp           .... RHF
 Total Charge           Charge          ....    0
 Multiplicity           Mult            ....    1
 Number of Electrons    NEL             ....   58
 Basis Dimension        Dim             ....  134
 Nuclear Repulsion      ENuc            ....    200.9219190152 Eh

Convergence Acceleration:
 DIIS                   CNVDIIS         .... on
   Start iteration      DIISMaxIt       ....    12
   Startup error        DIISStart       ....  0.200000
   # of expansion vecs  DIISMaxEq       ....     5
   Bias factor          DIISBfac        ....   1.050
   Max. coefficient     DIISMaxC        ....  10.000
 Newton-Raphson         CNVNR           .... off
 SOSCF                  CNVSOSCF        .... off
 Level Shifting         CNVShift        .... on
   Level shift para.    LevelShift      ....    0.2500
   Turn off err/grad.   ShiftErr        ....    0.0010
 Zerner damping         CNVZerner       .... off
 Static damping         CNVDamp         .... on
   Fraction old density DampFac         ....    0.7000
   Max. Damping (<1)    DampMax         ....    0.9800
   Min. Damping (>=0)   DampMin         ....    0.0000
   Turn off err/grad.   DampErr         ....    0.1000
 Fernandez-Rico         CNVRico         .... off

SCF Procedure:
 Maximum # iterations   MaxIter         ....   125
 SCF integral mode      SCFMode         .... Direct
   Integral package                     .... LIBINT
 Reset frequency        DirectResetFreq ....    20
 Integral Threshold     Thresh          ....  2.500e-11 Eh
 Primitive CutOff       TCut            ....  2.500e-12 Eh

Convergence Tolerance:
 Convergence Check Mode ConvCheckMode   .... Total+1el-Energy
 Convergence forced     ConvForced      .... 0
 Energy Change          TolE            ....  1.000e-08 Eh
 1-El. energy change                    ....  1.000e-05 Eh
 DIIS Error             TolErr          ....  5.000e-07


Diagonalization of the overlap matrix:
Smallest eigenvalue                        ... 7.726e-04
Time for diagonalization                   ...    0.004 sec
Threshold for overlap eigenvalues          ... 1.000e-08
Number of eigenvalues below threshold      ... 0
Time for construction of square roots      ...    0.002 sec
Total time needed                          ...    0.006 sec

-------------------
DFT GRID GENERATION
-------------------

General Integration Accuracy     IntAcc      ...  4.670
Radial Grid Type                 RadialGrid  ... Gauss-Chebyshev
Angular Grid (max. acc.)         AngularGrid ... Lebedev-302
Angular grid pruning method      GridPruning ... 3 (G Style)
Weight generation scheme         WeightScheme... Becke
Basis function cutoff            BFCut       ...    1.0000e-11
Integration weight cutoff        WCut        ...    1.0000e-14
Grids for H and He will be reduced by one unit

# of grid points (after initial pruning)     ...  19112 (   0.0 sec)
# of grid points (after weights+screening)   ...  19084 (   0.0 sec)
nearest neighbour list constructed           ...    0.0 sec
Grid point re-assignment to atoms done       ...    0.0 sec
Grid point division into batches done        ...    0.1 sec
Reduced shell lists constructed in    0.1 sec

Total number of grid points                  ...    19084
Total number of batches                      ...      300
Average number of points per batch           ...       63
Average number of grid points per atom       ...     9542
Average number of shells per batch           ...     8.64 (22.74%)
Average number of basis functions per batch  ...    22.79 (17.00%)
Average number of large shells per batch     ...     5.86 (67.77%)
Average number of large basis fcns per batch ...    17.00 (74.61%)
Maximum spatial batch extension              ...  22.17, 22.17, 16.36 au
Average spatial batch extension              ...   0.75,  0.76,  0.60 au

Time for grid setup =    0.194 sec

------------------------------
INITIAL GUESS: MODEL POTENTIAL
------------------------------
Loading Hartree-Fock densities                     ... done
Calculating cut-offs                               ... done
Setting up the integral package                    ... done
Initializing the effective Hamiltonian             ... done
Starting the Coulomb interaction                   ... done (   0.0 sec)
Reading the grid                                   ... done
Mapping shells                                     ... done
Starting the XC term evaluation                    ... done (   0.0 sec)
  promolecular density results
     # of electrons  =     58.000033959
     EX              =   -130.945908728
     EC              =     -2.692613758
     EX+EC           =   -133.638522486
Transforming the Hamiltonian                       ... done (   0.0 sec)
Diagonalizing the Hamiltonian                      ... done (   0.0 sec)
Back transforming the eigenvectors                 ... done (   0.0 sec)
Now organizing SCF variables                       ... done
                      ------------------
                      INITIAL GUESS DONE (   0.3 sec)
                      ------------------
--------------
SCF ITERATIONS
--------------
ITER       Energy         Delta-E        Max-DP      RMS-DP      [F,P]     Damp
               ***  Starting incremental Fock matrix formation  ***
  0  -3280.9991862104   0.000000000000 0.04950989  0.00200413  0.2155427 0.7000
  1  -3281.0455896858  -0.046403475397 0.03402360  0.00089131  0.0487540 0.7000
                               ***Turning on DIIS***
  2  -3281.0642858989  -0.018696213063 0.05616810  0.00170724  0.0452262 0.0000
  3  -3281.0997509952  -0.035465096379 0.01502738  0.00065280  0.0914911 0.0000
  4  -3281.1126692197  -0.012918224403 0.00573598  0.00020667  0.0149564 0.0000
  5  -3281.1133536340  -0.000684414335 0.00358443  0.00009587  0.0074624 0.0000
  6  -3281.1134807228  -0.000127088816 0.00189881  0.00004525  0.0013319 0.0000
  7  -3281.1134923491  -0.000011626305 0.00225618  0.00005835  0.0005645 0.0000
  8  -3281.1134959388  -0.000003589662 0.00048055  0.00000947  0.0003422 0.0000
  9  -3281.1134961489  -0.000000210108 0.00006760  0.00000261  0.0001675 0.0000
 10  -3281.1134962247  -0.000000075789 0.00003061  0.00000054  0.0000303 0.0000
 11  -3281.1134961741   0.000000050566 0.00000308  0.00000007  0.0000037 0.0000
                            ***DIIS convergence achieved***

               *****************************************************
               *                     SUCCESS                       *
               *           SCF CONVERGED AFTER  12 CYCLES          *
               *****************************************************


----------------
TOTAL SCF ENERGY
----------------

Total Energy       :        -3281.11349619 Eh          -89283.63732 eV

Components:
Nuclear Repulsion  :          200.92191902 Eh            5467.36337 eV
Electronic Energy  :        -3482.03541521 Eh          -94751.00070 eV
One Electron Energy:        -4975.76554578 Eh         -135397.46397 eV
Two Electron Energy:         1493.73013057 Eh           40646.46328 eV

Virial components:
Potential Energy   :        -6556.78750051 Eh         -178419.25855 eV
Kinetic Energy     :         3275.67400432 Eh           89135.62122 eV
Virial Ratio       :            2.00166057


DFT components:
N(Alpha)           :       29.000000912486 electrons
N(Beta)            :       29.000000912486 electrons
N(Total)           :       58.000001824971 electrons
E(X)               :     -131.665591763831 Eh       
E(C)               :       -2.718585887988 Eh       
E(XC)              :     -134.384177651819 Eh       
DFET-embed. en.    :        0.000000000000 Eh       

---------------
SCF CONVERGENCE
---------------

  Last Energy change         ...   -1.9711e-08  Tolerance :   1.0000e-08
  Last MAX-Density change    ...    2.6614e-06  Tolerance :   1.0000e-07
  Last RMS-Density change    ...    5.2436e-08  Tolerance :   5.0000e-09
  Last DIIS Error            ...    5.6237e-07  Tolerance :   5.0000e-07

             **** THE GBW FILE WAS UPDATED (Cu02N0.gbw) ****
             **** DENSITY FILE WAS UPDATED (Cu02N0.scfp) ****
             **** ENERGY FILE WAS UPDATED (Cu02N0.en.tmp) ****
             **** THE GBW FILE WAS UPDATED (Cu02N0.gbw) ****
             **** DENSITY FILE WAS UPDATED (Cu02N0.scfp) ****
----------------
ORBITAL ENERGIES
----------------

  NO   OCC          E(Eh)            E(eV) 
   0   2.0000    -322.078361     -8764.1978 
   1   2.0000    -322.078354     -8764.1976 
   2   2.0000     -38.368873     -1044.0701 
   3   2.0000     -38.368827     -1044.0689 
   4   2.0000     -33.587812      -913.9708 
   5   2.0000     -33.587812      -913.9708 
   6   2.0000     -33.587807      -913.9707 
   7   2.0000     -33.587807      -913.9707 
   8   2.0000     -33.587790      -913.9702 
   9   2.0000     -33.587789      -913.9702 
  10   2.0000      -4.127623      -112.3183 
  11   2.0000      -4.126976      -112.3007 
  12   2.0000      -2.644966       -71.9732 
  13   2.0000      -2.639734       -71.8308 
  14   2.0000      -2.637605       -71.7729 
  15   2.0000      -2.637605       -71.7729 
  16   2.0000      -2.637089       -71.7588 
  17   2.0000      -2.637089       -71.7588 
  18   2.0000      -0.233536        -6.3548 
  19   2.0000      -0.209719        -5.7067 
  20   2.0000      -0.209719        -5.7067 
  21   2.0000      -0.190102        -5.1729 
  22   2.0000      -0.190096        -5.1728 
  23   2.0000      -0.185106        -5.0370 
  24   2.0000      -0.181523        -4.9395 
  25   2.0000      -0.181517        -4.9393 
  26   2.0000      -0.174455        -4.7472 
  27   2.0000      -0.174455        -4.7472 
  28   2.0000      -0.172593        -4.6965 
  29   0.0000      -0.102622        -2.7925 
  30   0.0000      -0.036416        -0.9909 
  31   0.0000      -0.036416        -0.9909 
  32   0.0000      -0.013613        -0.3704 
  33   0.0000       0.031922         0.8686 
  34   0.0000       0.031922         0.8686 
  35   0.0000       0.044023         1.1979 
  36   0.0000       0.091231         2.4825 
  37   0.0000       0.105229         2.8634 
  38   0.0000       0.105229         2.8634 
  39   0.0000       0.109519         2.9802 
  40   0.0000       0.158428         4.3110 
  41   0.0000       0.158428         4.3111 
  42   0.0000       0.158527         4.3138 
  43   0.0000       0.158527         4.3138 
  44   0.0000       0.172101         4.6831 
  45   0.0000       0.212312         5.7773 
  46   0.0000       0.217256         5.9118 
  47   0.0000       0.217256         5.9118 
  48   0.0000       0.233276         6.3478 
  49   0.0000       0.233277         6.3478 
  50   0.0000       0.309400         8.4192 
  51   0.0000       0.326186         8.8760 
  52   0.0000       0.326186         8.8760 
  53   0.0000       0.487402        13.2629 
  54   0.0000       0.610335        16.6081 
  55   0.0000       0.628628        17.1058 
  56   0.0000       0.628628        17.1058 
  57   0.0000       0.706931        19.2366 
  58   0.0000       0.706931        19.2366 
  59   0.0000       0.753142        20.4940 
  60   0.0000       0.800754        21.7896 
  61   0.0000       0.800754        21.7896 
  62   0.0000       0.835599        22.7378 
  63   0.0000       0.835601        22.7379 
  64   0.0000       0.915875        24.9222 
  65   0.0000       0.915877        24.9223 
  66   0.0000       0.941410        25.6171 
  67   0.0000       1.062411        28.9097 
  68   0.0000       1.062411        28.9097 
  69   0.0000       1.275451        34.7068 
  70   0.0000       2.876200        78.2654 
  71   0.0000       2.920787        79.4787 
  72   0.0000       2.920787        79.4787 
  73   0.0000       2.984163        81.2032 
  74   0.0000       3.008393        81.8625 
  75   0.0000       3.008393        81.8625 
  76   0.0000       3.058979        83.2391 
  77   0.0000       3.337788        90.8258 
  78   0.0000       3.346085        91.0516 
  79   0.0000       3.346085        91.0516 
  80   0.0000       3.364484        91.5523 
  81   0.0000       3.373364        91.7939 
  82   0.0000       3.373374        91.7942 
  83   0.0000       3.387007        92.1651 
  84   0.0000       3.387007        92.1651 
  85   0.0000       3.387561        92.1802 
  86   0.0000       3.387561        92.1802 
  87   0.0000       3.388644        92.2097 
  88   0.0000       3.388657        92.2100 
  89   0.0000       3.402964        92.5994 
  90   0.0000       3.402964        92.5994 
  91   0.0000       3.533502        96.1515 
  92   0.0000       3.582942        97.4968 
  93   0.0000       3.582998        97.4983 
  94   0.0000       3.626926        98.6937 
  95   0.0000       3.626980        98.6951 
  96   0.0000       3.653684        99.4218 
  97   0.0000       3.653684        99.4218 
  98   0.0000       3.728981       101.4707 
  99   0.0000       3.728981       101.4707 
 100   0.0000       3.922736       106.7431 
 101   0.0000       4.037682       109.8709 
 102   0.0000      12.915484       351.4482 
 103   0.0000      12.915542       351.4498 
 104   0.0000      12.915542       351.4498 
 105   0.0000      12.916134       351.4659 
 106   0.0000      12.916134       351.4659 
 107   0.0000      12.916584       351.4781 
 108   0.0000      12.916615       351.4790 
 109   0.0000      12.917034       351.4904 
 110   0.0000      12.917488       351.5027 
 111   0.0000      12.917525       351.5037 
 112   0.0000      12.919423       351.5554 
 113   0.0000      12.919423       351.5554 
 114   0.0000      12.919431       351.5556 
 115   0.0000      12.919431       351.5556 
 116   0.0000      12.922091       351.6280 
 117   0.0000      12.922091       351.6280 
 118   0.0000      12.922392       351.6362 
 119   0.0000      12.922392       351.6362 
 120   0.0000      12.993149       353.5616 
 121   0.0000      12.999333       353.7298 
 122   0.0000      12.999333       353.7298 
 123   0.0000      13.003161       353.8340 
 124   0.0000      13.003523       353.8438 
 125   0.0000      13.006669       353.9295 
 126   0.0000      13.006669       353.9295 
 127   0.0000      13.006854       353.9345 
 128   0.0000      13.006854       353.9345 
 129   0.0000      13.006908       353.9360 
 130   0.0000      13.007265       353.9457 
 131   0.0000      13.031666       354.6096 
 132   0.0000      13.031666       354.6096 
 133   0.0000      13.155673       357.9841 

                    ********************************
                    * MULLIKEN POPULATION ANALYSIS *
                    ********************************

-----------------------
MULLIKEN ATOMIC CHARGES
-----------------------
   0 Cu:    0.000008
   1 Cu:   -0.000008
Sum of atomic charges:    0.0000000

--------------------------------
MULLIKEN REDUCED ORBITAL CHARGES
--------------------------------
  0 Cus       :     7.025824  s :     7.025824
      pz      :     4.015534  p :    12.045666
      px      :     4.015066
      py      :     4.015066
      dz2     :     1.958536  d :     9.928240
      dxz     :     1.984871
      dyz     :     1.984871
      dx2y2   :     1.999981
      dxy     :     1.999981
      f0      :     0.000098  f :     0.000260
      f+1     :     0.000063
      f-1     :     0.000063
      f+2     :     0.000019
      f-2     :     0.000019
      f+3     :     0.000000
      f-3     :     0.000000
      g0      :     0.000000  g :     0.000001
      g+1     :     0.000000
      g-1     :     0.000000
      g+2     :     0.000000
      g-2     :     0.000000
      g+3     :     0.000000
      g-3     :     0.000000
      g+4     :     0.000000
      g-4     :     0.000000
  1 Cus       :     7.025837  s :     7.025837
      pz      :     4.015537  p :    12.045669
      px      :     4.015066
      py      :     4.015066
      dz2     :     1.958536  d :     9.928241
      dxz     :     1.984871
      dyz     :     1.984871
      dx2y2   :     1.999981
      dxy     :     1.999981
      f0      :     0.000098  f :     0.000260
      f+1     :     0.000063
      f-1     :     0.000063
      f+2     :     0.000019
      f-2     :     0.000019
      f+3     :     0.000000
      f-3     :     0.000000
      g0      :     0.000000  g :     0.000001
      g+1     :     0.000000
      g-1     :     0.000000
      g+2     :     0.000000
      g-2     :     0.000000
      g+3     :     0.000000
      g-3     :     0.000000
      g+4     :     0.000000
      g-4     :     0.000000


                     *******************************
                     * LOEWDIN POPULATION ANALYSIS *
                     *******************************

----------------------
LOEWDIN ATOMIC CHARGES
----------------------
   0 Cu:    0.000001
   1 Cu:   -0.000001

-------------------------------
LOEWDIN REDUCED ORBITAL CHARGES
-------------------------------
  0 Cus       :     6.858449  s :     6.858449
      pz      :     4.121519  p :    12.155318
      px      :     4.016899
      py      :     4.016899
      dz2     :     2.019824  d :     9.985710
      dxz     :     1.982966
      dyz     :     1.982966
      dx2y2   :     1.999977
      dxy     :     1.999977
      f0      :     0.000207  f :     0.000520
      f+1     :     0.000134
      f-1     :     0.000134
      f+2     :     0.000023
      f-2     :     0.000023
      f+3     :     0.000000
      f-3     :     0.000000
      g0      :     0.000001  g :     0.000002
      g+1     :     0.000001
      g-1     :     0.000001
      g+2     :     0.000000
      g-2     :     0.000000
      g+3     :     0.000000
      g-3     :     0.000000
      g+4     :     0.000000
      g-4     :     0.000000
  1 Cus       :     6.858450  s :     6.858450
      pz      :     4.121519  p :    12.155318
      px      :     4.016899
      py      :     4.016899
      dz2     :     2.019824  d :     9.985711
      dxz     :     1.982966
      dyz     :     1.982966
      dx2y2   :     1.999977
      dxy     :     1.999977
      f0      :     0.000207  f :     0.000520
      f+1     :     0.000134
      f-1     :     0.000134
      f+2     :     0.000023
      f-2     :     0.000023
      f+3     :     0.000000
      f-3     :     0.000000
      g0      :     0.000001  g :     0.000002
      g+1     :     0.000001
      g-1     :     0.000001
      g+2     :     0.000000
      g-2     :     0.000000
      g+3     :     0.000000
      g-3     :     0.000000
      g+4     :     0.000000
      g-4     :     0.000000


                      *****************************
                      * MAYER POPULATION ANALYSIS *
                      *****************************

  NA   - Mulliken gross atomic population
  ZA   - Total nuclear charge
  QA   - Mulliken gross atomic charge
  VA   - Mayer's total valence
  BVA  - Mayer's bonded valence
  FA   - Mayer's free valence

  ATOM       NA         ZA         QA         VA         BVA        FA
  0 Cu    29.0000    29.0000     0.0000     1.1135     1.1135    -0.0000
  1 Cu    29.0000    29.0000    -0.0000     1.1135     1.1135     0.0000

  Mayer bond orders larger than 0.100000
B(  0-Cu,  1-Cu) :   1.1135 

-------
TIMINGS
-------

Total SCF time: 0 days 0 hours 0 min 1 sec 

Total time                  ....       1.639 sec
Sum of individual times     ....       1.541 sec  ( 94.0%)

Fock matrix formation       ....       1.209 sec  ( 73.8%)
  Split-RI-J                ....       0.924 sec  ( 76.4% of F)
  XC integration            ....       0.242 sec  ( 20.0% of F)
    Basis function eval.    ....       0.024 sec  (  9.7% of XC)
    Density eval.           ....       0.033 sec  ( 13.6% of XC)
    XC-Functional eval.     ....       0.020 sec  (  8.4% of XC)
    XC-Potential eval.      ....       0.068 sec  ( 28.3% of XC)
Diagonalization             ....       0.031 sec  (  1.9%)
Density matrix formation    ....       0.004 sec  (  0.3%)
Population analysis         ....       0.003 sec  (  0.2%)
Initial guess               ....       0.085 sec  (  5.2%)
Orbital Transformation      ....       0.000 sec  (  0.0%)
Orbital Orthonormalization  ....       0.000 sec  (  0.0%)
DIIS solution               ....       0.014 sec  (  0.9%)
Grid generation             ....       0.194 sec  ( 11.9%)


-------------------------------------------------------------------------------
                          DFT DISPERSION CORRECTION                            
                                                                               
                              DFTD3 V3.1  Rev 1                                
                          USING Becke-Johnson damping                          
-------------------------------------------------------------------------------
The TPSS functional is recognized
Active option DFTDOPT                   ...         4   

molecular C6(AA) [au] = 711.571600 


            DFT-D V3
 parameters
 s6 scaling factor         :     1.0000 
 a1 scaling factor         :     0.4535 
 s8 scaling factor         :     1.9435 
 a2 scaling factor         :     4.4752 
 ad hoc parameters k1-k3   :    16.0000     1.3333    -4.0000 

 Edisp/kcal,au: -0.879301511641  -0.001401256004 
 E6   /kcal   :  -0.276066416 
 E8   /kcal   :  -0.603235095 
 % E8         :  68.603896073 

-------------------------   ----------------
Dispersion correction           -0.001401256
-------------------------   ----------------


-------------------------   --------------------
FINAL SINGLE POINT ENERGY     -3281.114897449815
-------------------------   --------------------



           ************************************************************
           *        Program running with 24 parallel MPI-processes    *
           *              working on a common directory               *
           ************************************************************
------------------------------------------------------------------------------
                         ORCA SCF GRADIENT CALCULATION
------------------------------------------------------------------------------

Gradient of the Kohn-Sham DFT energy:
Kohn-Sham wavefunction type      ... RKS
Hartree-Fock exchange scaling    ...    0.000
Number of operators              ...    1
Number of atoms                  ...    2
Basis set dimensions             ...  134
Integral neglect threshold       ... 2.5e-11
Integral primitive cutoff        ... 2.5e-12

Nuclear repulsion gradient       ... done
One Electron Gradient            ... done
Pre-screening matrix             ... done
RI-J gradient                    ... done
Exchange-correlation gradient    ... done
Dispersion correction            ... done

------------------
CARTESIAN GRADIENT
------------------

   1   Cu  :    0.000000013   -0.000000001   -0.004528918
   2   Cu  :   -0.000000004   -0.000000002    0.004528920

Difference to translation invariance:
           :    0.0000000085   -0.0000000027    0.0000000021

Norm of the cartesian gradient     ...    0.0064048588
RMS gradient                       ...    0.0026147726
MAX gradient                       ...    0.0045289201

-------
TIMINGS
-------

Total SCF gradient time            ...        0.432 sec

One electron gradient       ....       0.019 sec  (  4.5%)
Prescreening matrices       ....       0.119 sec  ( 27.7%)
RI-J Coulomb gradient       ....       0.085 sec  ( 19.7%)
XC gradient                 ....       0.019 sec  (  4.4%)
------------------------------------------------------------------------------
                         ORCA GEOMETRY RELAXATION STEP
------------------------------------------------------------------------------

Reading the OPT-File                    .... done
Getting information on internals        .... done
Copying old internal coords+grads       .... done
Making the new internal coordinates     .... (new redundants).... done
Validating the new internal coordinates .... (new redundants).... done
Calculating the B-matrix                .... done
Calculating the G,G- and P matrices     .... done
Transforming gradient to internals      .... done
Projecting the internal gradient        .... done
Number of atoms                         ....   2
Number of internal coordinates          ....   1
Current Energy                          .... -3281.114897450 Eh
Current gradient norm                   ....     0.006404859 Eh/bohr
Maximum allowed component of the step   ....  0.300
Current trust radius                    ....  0.300
Evaluating the initial hessian          ....  (Almloef) done
Projecting the Hessian                  .... done
Forming the augmented Hessian           .... done
Diagonalizing the augmented Hessian     .... done
Last element of RFO vector              ....  0.999998925
Lowest eigenvalues of augmented Hessian:
 -0.000006641
Length of the computed step             ....  0.001466251
The final length of the internal step   ....  0.001466251
Converting the step to cartesian space:
 Initial RMS(Int)=    0.0014662513
Transforming coordinates:
 Iter   0:  RMS(Cart)=    0.0004232703 RMS(Int)=    0.0014662513
 Iter   1:  RMS(Cart)=    0.0000000000 RMS(Int)=    0.0000000000
done
Storing new coordinates                 .... done

                                .--------------------.
          ----------------------|Geometry convergence|-------------------------
          Item                value                   Tolerance       Converged
          ---------------------------------------------------------------------
          RMS gradient        0.0045289191            0.0001000000      NO
          MAX gradient        0.0045289191            0.0003000000      NO
          RMS step            0.0014662513            0.0020000000      YES
          MAX step            0.0014662513            0.0040000000      YES
          ........................................................
          Max(Bonds)      0.0008      Max(Angles)    0.00
          Max(Dihed)        0.00      Max(Improp)    0.00
          ---------------------------------------------------------------------

The optimization has not yet converged - more geometry cycles are needed


    ---------------------------------------------------------------------------
                         Redundant Internal Coordinates
                            (Angstroem and degrees)

        Definition                    Value    dE/dq     Step     New-Value
    ----------------------------------------------------------------------------
     1. B(Cu  1,Cu  0)                2.2150 -0.004529  0.0008    2.2158   
    ----------------------------------------------------------------------------

         *************************************************************
         *                GEOMETRY OPTIMIZATION CYCLE   2            *
         *************************************************************
---------------------------------
CARTESIAN COORDINATES (ANGSTROEM)
---------------------------------
  Cu     0.000000    0.000000    1.107878
  Cu     0.000000    0.000000   -1.107878

----------------------------
CARTESIAN COORDINATES (A.U.)
----------------------------
  NO LB      ZA    FRAG     MASS         X           Y           Z
   0 Cu   29.0000    0    63.550    0.000000    0.000000    2.093586
   1 Cu   29.0000    0    63.550    0.000000    0.000000   -2.093586

--------------------------------
INTERNAL COORDINATES (ANGSTROEM)
--------------------------------
 Cu     0   0   0     0.000000000000     0.00000000     0.00000000
 Cu     1   0   0     2.215755906788     0.00000000     0.00000000

---------------------------
INTERNAL COORDINATES (A.U.)
---------------------------
 Cu     0   0   0     0.000000000000     0.00000000     0.00000000
 Cu     1   0   0     4.187171843448     0.00000000     0.00000000



           ************************************************************
           *        Program running with 24 parallel MPI-processes    *
           *              working on a common directory               *
           ************************************************************
 One Electron integrals                  ... done
 Pre-screening matrix                    ... done


           ************************************************************
           *        Program running with 24 parallel MPI-processes    *
           *              working on a common directory               *
           ************************************************************

Diagonalization of the overlap matrix:
Smallest eigenvalue                        ... 7.736e-04
Time for diagonalization                   ...    0.004 sec
Threshold for overlap eigenvalues          ... 1.000e-08
Number of eigenvalues below threshold      ... 0
Time for construction of square roots      ...    0.002 sec
Total time needed                          ...    0.006 sec

-------------------
DFT GRID GENERATION
-------------------

General Integration Accuracy     IntAcc      ...  4.670
Radial Grid Type                 RadialGrid  ... Gauss-Chebyshev
Angular Grid (max. acc.)         AngularGrid ... Lebedev-302
Angular grid pruning method      GridPruning ... 3 (G Style)
Weight generation scheme         WeightScheme... Becke
Basis function cutoff            BFCut       ...    1.0000e-11
Integration weight cutoff        WCut        ...    1.0000e-14
Grids for H and He will be reduced by one unit

# of grid points (after initial pruning)     ...  19112 (   0.0 sec)
# of grid points (after weights+screening)   ...  19084 (   0.0 sec)
nearest neighbour list constructed           ...    0.0 sec
Grid point re-assignment to atoms done       ...    0.0 sec
Grid point division into batches done        ...    0.2 sec
Reduced shell lists constructed in    0.2 sec

Total number of grid points                  ...    19084
Total number of batches                      ...      300
Average number of points per batch           ...       63
Average number of grid points per atom       ...     9542
Average number of shells per batch           ...     8.64 (22.74%)
Average number of basis functions per batch  ...    22.79 (17.00%)
Average number of large shells per batch     ...     5.86 (67.77%)
Average number of large basis fcns per batch ...    17.00 (74.61%)
Maximum spatial batch extension              ...  22.17, 22.17, 16.36 au
Average spatial batch extension              ...   0.76,  0.76,  0.60 au

Time for grid setup =    0.191 sec

--------------
SCF ITERATIONS
--------------
ITER       Energy         Delta-E        Max-DP      RMS-DP      [F,P]     Damp
               ***  Starting incremental Fock matrix formation  ***
  0  -3281.1135031055   0.000000000000 0.00001759  0.00000057  0.0002550 0.7000
  1  -3281.1135030946   0.000000010947 0.00001667  0.00000050  0.0001785 0.7000
                               ***Turning on DIIS***
  2  -3281.1135030216   0.000000072975 0.00004820  0.00000140  0.0001250 0.0000
  3  -3281.1135029499   0.000000071716 0.00001431  0.00000055  0.0000096 0.0000
  4  -3281.1135029954  -0.000000045516 0.00001382  0.00000042  0.0000349 0.0000
  5  -3281.1135029523   0.000000043105 0.00000825  0.00000020  0.0000105 0.0000
  6  -3281.1135029948  -0.000000042471 0.00000912  0.00000019  0.0000013 0.0000
  7  -3281.1135029676   0.000000027178 0.00000155  0.00000002  0.0000014 0.0000
                 **** Energy Check signals convergence ****

               *****************************************************
               *                     SUCCESS                       *
               *           SCF CONVERGED AFTER   8 CYCLES          *
               *****************************************************

Total Energy       :        -3281.11350297 Eh          -89283.63751 eV
  Last Energy change         ...   -6.4547e-09  Tolerance :   1.0000e-08
  Last MAX-Density change    ...    6.6414e-07  Tolerance :   1.0000e-07
             **** THE GBW FILE WAS UPDATED (Cu02N0.gbw) ****
             **** DENSITY FILE WAS UPDATED (Cu02N0.scfp) ****
             **** ENERGY FILE WAS UPDATED (Cu02N0.en.tmp) ****
             **** THE GBW FILE WAS UPDATED (Cu02N0.gbw) ****
             **** DENSITY FILE WAS UPDATED (Cu02N0.scfp) ****
Total SCF time: 0 days 0 hours 0 min 1 sec 


-------------------------------------------------------------------------------
                          DFT DISPERSION CORRECTION                            
                                                                               
                              DFTD3 V3.1  Rev 1                                
                          USING Becke-Johnson damping                          
-------------------------------------------------------------------------------
-------------------------   ----------------
Dispersion correction           -0.001401270
-------------------------   ----------------


-------------------------   --------------------
FINAL SINGLE POINT ENERGY     -3281.114904244011
-------------------------   --------------------



           ************************************************************
           *        Program running with 24 parallel MPI-processes    *
           *              working on a common directory               *
           ************************************************************
------------------------------------------------------------------------------
                         ORCA SCF GRADIENT CALCULATION
------------------------------------------------------------------------------

Gradient of the Kohn-Sham DFT energy:
Kohn-Sham wavefunction type      ... RKS
Hartree-Fock exchange scaling    ...    0.000
Number of operators              ...    1
Number of atoms                  ...    2
Basis set dimensions             ...  134
Integral neglect threshold       ... 2.5e-11
Integral primitive cutoff        ... 2.5e-12

Nuclear repulsion gradient       ... done
One Electron Gradient            ... done
Pre-screening matrix             ... done
RI-J gradient                    ... done
Exchange-correlation gradient    ... done
Dispersion correction            ... done

------------------
CARTESIAN GRADIENT
------------------

   1   Cu  :    0.000000005    0.000000002   -0.004393141
   2   Cu  :   -0.000000002   -0.000000003    0.004393143

Difference to translation invariance:
           :    0.0000000030   -0.0000000010    0.0000000024

Norm of the cartesian gradient     ...    0.0062128406
RMS gradient                       ...    0.0025363816
MAX gradient                       ...    0.0043931429

-------
TIMINGS
-------

Total SCF gradient time            ...        0.447 sec

One electron gradient       ....       0.017 sec  (  3.7%)
Prescreening matrices       ....       0.118 sec  ( 26.5%)
RI-J Coulomb gradient       ....       0.085 sec  ( 19.0%)
XC gradient                 ....       0.020 sec  (  4.4%)
------------------------------------------------------------------------------
                         ORCA GEOMETRY RELAXATION STEP
------------------------------------------------------------------------------

Reading the OPT-File                    .... done
Getting information on internals        .... done
Copying old internal coords+grads       .... done
Making the new internal coordinates     .... (new redundants).... done
Validating the new internal coordinates .... (new redundants).... done
Calculating the B-matrix                .... done
Calculating the G,G- and P matrices     .... done
Transforming gradient to internals      .... done
Projecting the internal gradient        .... done
Number of atoms                         ....   2
Number of internal coordinates          ....   1
Current Energy                          .... -3281.114904244 Eh
Current gradient norm                   ....     0.006212841 Eh/bohr
Maximum allowed component of the step   ....  0.300
Current trust radius                    ....  0.300
Updating the Hessian (BFGS)             .... done
Forming the augmented Hessian           .... done
Diagonalizing the augmented Hessian     .... done
Last element of RFO vector              ....  0.998881579
Lowest eigenvalues of augmented Hessian:
 -0.000207949
Length of the computed step             ....  0.047334974
The final length of the internal step   ....  0.047334974
Converting the step to cartesian space:
 Initial RMS(Int)=    0.0473349735
Transforming coordinates:
 Iter   0:  RMS(Cart)=    0.0136644299 RMS(Int)=    0.0473349735
 Iter   1:  RMS(Cart)=    0.0000000000 RMS(Int)=    0.0000000000
done
Storing new coordinates                 .... done

                                .--------------------.
          ----------------------|Geometry convergence|-------------------------
          Item                value                   Tolerance       Converged
          ---------------------------------------------------------------------
          Energy change      -0.0000067942            0.0000050000      NO
          RMS gradient        0.0043931417            0.0001000000      NO
          MAX gradient        0.0043931417            0.0003000000      NO
          RMS step            0.0473349735            0.0020000000      NO
          MAX step            0.0473349735            0.0040000000      NO
          ........................................................
          Max(Bonds)      0.0250      Max(Angles)    0.00
          Max(Dihed)        0.00      Max(Improp)    0.00
          ---------------------------------------------------------------------

The optimization has not yet converged - more geometry cycles are needed


    ---------------------------------------------------------------------------
                         Redundant Internal Coordinates
                            (Angstroem and degrees)

        Definition                    Value    dE/dq     Step     New-Value
    ----------------------------------------------------------------------------
     1. B(Cu  1,Cu  0)                2.2158 -0.004393  0.0250    2.2408   
    ----------------------------------------------------------------------------

         *************************************************************
         *                GEOMETRY OPTIMIZATION CYCLE   3            *
         *************************************************************
---------------------------------
CARTESIAN COORDINATES (ANGSTROEM)
---------------------------------
  Cu     0.000000    0.000000    1.120402
  Cu     0.000000    0.000000   -1.120402

----------------------------
CARTESIAN COORDINATES (A.U.)
----------------------------
  NO LB      ZA    FRAG     MASS         X           Y           Z
   0 Cu   29.0000    0    63.550    0.000000    0.000000    2.117253
   1 Cu   29.0000    0    63.550    0.000000    0.000000   -2.117253

--------------------------------
INTERNAL COORDINATES (ANGSTROEM)
--------------------------------
 Cu     0   0   0     0.000000000000     0.00000000     0.00000000
 Cu     1   0   0     2.240804495931     0.00000000     0.00000000

---------------------------
INTERNAL COORDINATES (A.U.)
---------------------------
 Cu     0   0   0     0.000000000000     0.00000000     0.00000000
 Cu     1   0   0     4.234506816969     0.00000000     0.00000000



           ************************************************************
           *        Program running with 24 parallel MPI-processes    *
           *              working on a common directory               *
           ************************************************************
 One Electron integrals                  ... done
 Pre-screening matrix                    ... done


           ************************************************************
           *        Program running with 24 parallel MPI-processes    *
           *              working on a common directory               *
           ************************************************************

Diagonalization of the overlap matrix:
Smallest eigenvalue                        ... 8.054e-04
Time for diagonalization                   ...    0.005 sec
Threshold for overlap eigenvalues          ... 1.000e-08
Number of eigenvalues below threshold      ... 0
Time for construction of square roots      ...    0.002 sec
Total time needed                          ...    0.007 sec

-------------------
DFT GRID GENERATION
-------------------

General Integration Accuracy     IntAcc      ...  4.670
Radial Grid Type                 RadialGrid  ... Gauss-Chebyshev
Angular Grid (max. acc.)         AngularGrid ... Lebedev-302
Angular grid pruning method      GridPruning ... 3 (G Style)
Weight generation scheme         WeightScheme... Becke
Basis function cutoff            BFCut       ...    1.0000e-11
Integration weight cutoff        WCut        ...    1.0000e-14
Grids for H and He will be reduced by one unit

# of grid points (after initial pruning)     ...  19112 (   0.0 sec)
# of grid points (after weights+screening)   ...  19084 (   0.0 sec)
nearest neighbour list constructed           ...    0.0 sec
Grid point re-assignment to atoms done       ...    0.0 sec
Grid point division into batches done        ...    0.1 sec
Reduced shell lists constructed in    0.1 sec

Total number of grid points                  ...    19084
Total number of batches                      ...      300
Average number of points per batch           ...       63
Average number of grid points per atom       ...     9542
Average number of shells per batch           ...     8.64 (22.74%)
Average number of basis functions per batch  ...    22.79 (17.00%)
Average number of large shells per batch     ...     5.86 (67.77%)
Average number of large basis fcns per batch ...    17.00 (74.61%)
Maximum spatial batch extension              ...  22.17, 22.17, 16.41 au
Average spatial batch extension              ...   0.75,  0.76,  0.60 au

Time for grid setup =    0.185 sec

--------------
SCF ITERATIONS
--------------
ITER       Energy         Delta-E        Max-DP      RMS-DP      [F,P]     Damp
               ***  Starting incremental Fock matrix formation  ***
  0  -3281.1135989942   0.000000000000 0.00056944  0.00001823  0.0081422 0.7000
  1  -3281.1136056941  -0.000006699884 0.00054746  0.00001617  0.0057014 0.7000
                               ***Turning on DIIS***
  2  -3281.1136100442  -0.000004350088 0.00136811  0.00004083  0.0039908 0.0000
  3  -3281.1136194802  -0.000009436070 0.00041277  0.00001609  0.0003042 0.0000
  4  -3281.1136187838   0.000000696467 0.00036948  0.00001116  0.0006871 0.0000
  5  -3281.1136197327  -0.000000948909 0.00017831  0.00000539  0.0003829 0.0000
  6  -3281.1136200496  -0.000000316873 0.00002629  0.00000066  0.0000575 0.0000
  7  -3281.1136200053   0.000000044297 0.00000912  0.00000013  0.0000021 0.0000
  8  -3281.1136200328  -0.000000027556 0.00000406  0.00000006  0.0000018 0.0000
                 **** Energy Check signals convergence ****

               *****************************************************
               *                     SUCCESS                       *
               *           SCF CONVERGED AFTER   9 CYCLES          *
               *****************************************************

Total Energy       :        -3281.11362004 Eh          -89283.64069 eV
  Last Energy change         ...   -4.9049e-09  Tolerance :   1.0000e-08
  Last MAX-Density change    ...    2.8560e-06  Tolerance :   1.0000e-07
             **** THE GBW FILE WAS UPDATED (Cu02N0.gbw) ****
             **** DENSITY FILE WAS UPDATED (Cu02N0.scfp) ****
             **** ENERGY FILE WAS UPDATED (Cu02N0.en.tmp) ****
             **** THE GBW FILE WAS UPDATED (Cu02N0.gbw) ****
             **** DENSITY FILE WAS UPDATED (Cu02N0.scfp) ****
Total SCF time: 0 days 0 hours 0 min 1 sec 


-------------------------------------------------------------------------------
                          DFT DISPERSION CORRECTION                            
                                                                               
                              DFTD3 V3.1  Rev 1                                
                          USING Becke-Johnson damping                          
-------------------------------------------------------------------------------
-------------------------   ----------------
Dispersion correction           -0.001401843
-------------------------   ----------------


-------------------------   --------------------
FINAL SINGLE POINT ENERGY     -3281.115021880905
-------------------------   --------------------



           ************************************************************
           *        Program running with 24 parallel MPI-processes    *
           *              working on a common directory               *
           ************************************************************
------------------------------------------------------------------------------
                         ORCA SCF GRADIENT CALCULATION
------------------------------------------------------------------------------

Gradient of the Kohn-Sham DFT energy:
Kohn-Sham wavefunction type      ... RKS
Hartree-Fock exchange scaling    ...    0.000
Number of operators              ...    1
Number of atoms                  ...    2
Basis set dimensions             ...  134
Integral neglect threshold       ... 2.5e-11
Integral primitive cutoff        ... 2.5e-12

Nuclear repulsion gradient       ... done
One Electron Gradient            ... done
Pre-screening matrix             ... done
RI-J gradient                    ... done
Exchange-correlation gradient    ... done
Dispersion correction            ... done

------------------
CARTESIAN GRADIENT
------------------

   1   Cu  :    0.000000006    0.000000012   -0.000235406
   2   Cu  :   -0.000000002   -0.000000006    0.000235409

Difference to translation invariance:
           :    0.0000000047    0.0000000065    0.0000000033

Norm of the cartesian gradient     ...    0.0003329167
RMS gradient                       ...    0.0001359127
MAX gradient                       ...    0.0002354093

-------
TIMINGS
-------

Total SCF gradient time            ...        0.432 sec

One electron gradient       ....       0.006 sec  (  1.3%)
Prescreening matrices       ....       0.118 sec  ( 27.3%)
RI-J Coulomb gradient       ....       0.085 sec  ( 19.7%)
XC gradient                 ....       0.019 sec  (  4.3%)
------------------------------------------------------------------------------
                         ORCA GEOMETRY RELAXATION STEP
------------------------------------------------------------------------------

Reading the OPT-File                    .... done
Getting information on internals        .... done
Copying old internal coords+grads       .... done
Making the new internal coordinates     .... (new redundants).... done
Validating the new internal coordinates .... (new redundants).... done
Calculating the B-matrix                .... done
Calculating the G,G- and P matrices     .... done
Transforming gradient to internals      .... done
Projecting the internal gradient        .... done
Number of atoms                         ....   2
Number of internal coordinates          ....   1
Current Energy                          .... -3281.115021881 Eh
Current gradient norm                   ....     0.000332917 Eh/bohr
Maximum allowed component of the step   ....  0.300
Current trust radius                    ....  0.300
Updating the Hessian (BFGS)             .... done
Forming the augmented Hessian           .... done
Diagonalizing the augmented Hessian     .... done
Last element of RFO vector              ....  0.999996409
Lowest eigenvalues of augmented Hessian:
 -0.000000631
Length of the computed step             ....  0.002680050
The final length of the internal step   ....  0.002680050
Converting the step to cartesian space:
 Initial RMS(Int)=    0.0026800503
Transforming coordinates:
 Iter   0:  RMS(Cart)=    0.0007736639 RMS(Int)=    0.0026800503
 Iter   1:  RMS(Cart)=    0.0000000000 RMS(Int)=    0.0000000000
done
Storing new coordinates                 .... done

                                .--------------------.
          ----------------------|Geometry convergence|-------------------------
          Item                value                   Tolerance       Converged
          ---------------------------------------------------------------------
          Energy change      -0.0001176369            0.0000050000      NO
          RMS gradient        0.0002354077            0.0001000000      NO
          MAX gradient        0.0002354077            0.0003000000      YES
          RMS step            0.0026800503            0.0020000000      NO
          MAX step            0.0026800503            0.0040000000      YES
          ........................................................
          Max(Bonds)      0.0014      Max(Angles)    0.00
          Max(Dihed)        0.00      Max(Improp)    0.00
          ---------------------------------------------------------------------

The optimization has not yet converged - more geometry cycles are needed


    ---------------------------------------------------------------------------
                         Redundant Internal Coordinates
                            (Angstroem and degrees)

        Definition                    Value    dE/dq     Step     New-Value
    ----------------------------------------------------------------------------
     1. B(Cu  1,Cu  0)                2.2408 -0.000235  0.0014    2.2422   
    ----------------------------------------------------------------------------

         *************************************************************
         *                GEOMETRY OPTIMIZATION CYCLE   4            *
         *************************************************************
---------------------------------
CARTESIAN COORDINATES (ANGSTROEM)
---------------------------------
  Cu     0.000000    0.000000    1.121111
  Cu     0.000000    0.000000   -1.121111

----------------------------
CARTESIAN COORDINATES (A.U.)
----------------------------
  NO LB      ZA    FRAG     MASS         X           Y           Z
   0 Cu   29.0000    0    63.550    0.000000    0.000000    2.118593
   1 Cu   29.0000    0    63.550    0.000000    0.000000   -2.118593

--------------------------------
INTERNAL COORDINATES (ANGSTROEM)
--------------------------------
 Cu     0   0   0     0.000000000000     0.00000000     0.00000000
 Cu     1   0   0     2.242222717462     0.00000000     0.00000000

---------------------------
INTERNAL COORDINATES (A.U.)
---------------------------
 Cu     0   0   0     0.000000000000     0.00000000     0.00000000
 Cu     1   0   0     4.237186867261     0.00000000     0.00000000



           ************************************************************
           *        Program running with 24 parallel MPI-processes    *
           *              working on a common directory               *
           ************************************************************
 One Electron integrals                  ... done
 Pre-screening matrix                    ... done


           ************************************************************
           *        Program running with 24 parallel MPI-processes    *
           *              working on a common directory               *
           ************************************************************

Diagonalization of the overlap matrix:
Smallest eigenvalue                        ... 8.073e-04
Time for diagonalization                   ...    0.005 sec
Threshold for overlap eigenvalues          ... 1.000e-08
Number of eigenvalues below threshold      ... 0
Time for construction of square roots      ...    0.002 sec
Total time needed                          ...    0.008 sec

-------------------
DFT GRID GENERATION
-------------------

General Integration Accuracy     IntAcc      ...  4.670
Radial Grid Type                 RadialGrid  ... Gauss-Chebyshev
Angular Grid (max. acc.)         AngularGrid ... Lebedev-302
Angular grid pruning method      GridPruning ... 3 (G Style)
Weight generation scheme         WeightScheme... Becke
Basis function cutoff            BFCut       ...    1.0000e-11
Integration weight cutoff        WCut        ...    1.0000e-14
Grids for H and He will be reduced by one unit

# of grid points (after initial pruning)     ...  19112 (   0.0 sec)
# of grid points (after weights+screening)   ...  19084 (   0.0 sec)
nearest neighbour list constructed           ...    0.0 sec
Grid point re-assignment to atoms done       ...    0.0 sec
Grid point division into batches done        ...    0.1 sec
Reduced shell lists constructed in    0.1 sec

Total number of grid points                  ...    19084
Total number of batches                      ...      300
Average number of points per batch           ...       63
Average number of grid points per atom       ...     9542
Average number of shells per batch           ...     8.64 (22.74%)
Average number of basis functions per batch  ...    22.79 (17.00%)
Average number of large shells per batch     ...     5.86 (67.77%)
Average number of large basis fcns per batch ...    17.00 (74.61%)
Maximum spatial batch extension              ...  22.17, 22.17, 16.41 au
Average spatial batch extension              ...   0.75,  0.76,  0.60 au

Time for grid setup =    0.189 sec

--------------
SCF ITERATIONS
--------------
ITER       Energy         Delta-E        Max-DP      RMS-DP      [F,P]     Damp
               ***  Starting incremental Fock matrix formation  ***
  0  -3281.1136209588   0.000000000000 0.00003584  0.00000106  0.0004378 0.7000
  1  -3281.1136209582   0.000000000641 0.00003463  0.00000095  0.0003065 0.7000
                               ***Turning on DIIS***
  2  -3281.1136208923   0.000000065942 0.00010005  0.00000279  0.0002146 0.0000
  3  -3281.1136208440   0.000000048261 0.00002547  0.00000096  0.0000183 0.0000
  4  -3281.1136208830  -0.000000039021 0.00002446  0.00000077  0.0000663 0.0000
  5  -3281.1136208407   0.000000042312 0.00001070  0.00000030  0.0000204 0.0000
  6  -3281.1136208787  -0.000000038007 0.00000650  0.00000009  0.0000031 0.0000
  7  -3281.1136208812  -0.000000002497 0.00000543  0.00000009  0.0000055 0.0000
                 **** Energy Check signals convergence ****

               *****************************************************
               *                     SUCCESS                       *
               *           SCF CONVERGED AFTER   8 CYCLES          *
               *****************************************************

Total Energy       :        -3281.11362088 Eh          -89283.64072 eV
  Last Energy change         ...   -2.7590e-09  Tolerance :   1.0000e-08
  Last MAX-Density change    ...    9.6157e-07  Tolerance :   1.0000e-07
             **** THE GBW FILE WAS UPDATED (Cu02N0.gbw) ****
             **** DENSITY FILE WAS UPDATED (Cu02N0.scfp) ****
             **** ENERGY FILE WAS UPDATED (Cu02N0.en.tmp) ****
             **** THE GBW FILE WAS UPDATED (Cu02N0.gbw) ****
             **** DENSITY FILE WAS UPDATED (Cu02N0.scfp) ****
Total SCF time: 0 days 0 hours 0 min 1 sec 


-------------------------------------------------------------------------------
                          DFT DISPERSION CORRECTION                            
                                                                               
                              DFTD3 V3.1  Rev 1                                
                          USING Becke-Johnson damping                          
-------------------------------------------------------------------------------
-------------------------   ----------------
Dispersion correction           -0.001401884
-------------------------   ----------------


-------------------------   --------------------
FINAL SINGLE POINT ENERGY     -3281.115022767504
-------------------------   --------------------



           ************************************************************
           *        Program running with 24 parallel MPI-processes    *
           *              working on a common directory               *
           ************************************************************
------------------------------------------------------------------------------
                         ORCA SCF GRADIENT CALCULATION
------------------------------------------------------------------------------

Gradient of the Kohn-Sham DFT energy:
Kohn-Sham wavefunction type      ... RKS
Hartree-Fock exchange scaling    ...    0.000
Number of operators              ...    1
Number of atoms                  ...    2
Basis set dimensions             ...  134
Integral neglect threshold       ... 2.5e-11
Integral primitive cutoff        ... 2.5e-12

Nuclear repulsion gradient       ... done
One Electron Gradient            ... done
Pre-screening matrix             ... done
RI-J gradient                    ... done
Exchange-correlation gradient    ... done
Dispersion correction            ... done

------------------
CARTESIAN GRADIENT
------------------

   1   Cu  :    0.000000008    0.000000010   -0.000012578
   2   Cu  :   -0.000000000   -0.000000015    0.000012591

Difference to translation invariance:
           :    0.0000000083   -0.0000000046    0.0000000126

Norm of the cartesian gradient     ...    0.0000177970
RMS gradient                       ...    0.0000072656
MAX gradient                       ...    0.0000125907

-------
TIMINGS
-------

Total SCF gradient time            ...        0.438 sec

One electron gradient       ....       0.018 sec  (  4.1%)
Prescreening matrices       ....       0.118 sec  ( 27.0%)
RI-J Coulomb gradient       ....       0.085 sec  ( 19.4%)
XC gradient                 ....       0.020 sec  (  4.5%)
------------------------------------------------------------------------------
                         ORCA GEOMETRY RELAXATION STEP
------------------------------------------------------------------------------

Reading the OPT-File                    .... done
Getting information on internals        .... done
Copying old internal coords+grads       .... done
Making the new internal coordinates     .... (new redundants).... done
Validating the new internal coordinates .... (new redundants).... done
Calculating the B-matrix                .... done
Calculating the G,G- and P matrices     .... done
Transforming gradient to internals      .... done
Projecting the internal gradient        .... done
Number of atoms                         ....   2
Number of internal coordinates          ....   1
Current Energy                          .... -3281.115022768 Eh
Current gradient norm                   ....     0.000017797 Eh/bohr
Maximum allowed component of the step   ....  0.300
Current trust radius                    ....  0.300
Updating the Hessian (BFGS)             .... done
Forming the augmented Hessian           .... done
Diagonalizing the augmented Hessian     .... done
Last element of RFO vector              ....  0.999999989
Lowest eigenvalues of augmented Hessian:
 -0.000000002
Length of the computed step             ....  0.000151361
The final length of the internal step   ....  0.000151361
Converting the step to cartesian space:
 Initial RMS(Int)=    0.0001513607
Transforming coordinates:
 Iter   0:  RMS(Cart)=    0.0000436941 RMS(Int)=    0.0001513607
 Iter   1:  RMS(Cart)=    0.0000000000 RMS(Int)=    0.0000000000
done
Storing new coordinates                 .... done

                                .--------------------.
          ----------------------|Geometry convergence|-------------------------
          Item                value                   Tolerance       Converged
          ---------------------------------------------------------------------
          Energy change      -0.0000008866            0.0000050000      YES
          RMS gradient        0.0000125844            0.0001000000      YES
          MAX gradient        0.0000125844            0.0003000000      YES
          RMS step            0.0001513607            0.0020000000      YES
          MAX step            0.0001513607            0.0040000000      YES
          ........................................................
          Max(Bonds)      0.0001      Max(Angles)    0.00
          Max(Dihed)        0.00      Max(Improp)    0.00
          ---------------------------------------------------------------------

                    ***********************HURRAY********************
                    ***        THE OPTIMIZATION HAS CONVERGED     ***
                    *************************************************


    ---------------------------------------------------------------------------
                         Redundant Internal Coordinates

                          --- Optimized Parameters ---  
                            (Angstroem and degrees)

        Definition                    OldVal   dE/dq     Step     FinalVal
    ----------------------------------------------------------------------------
     1. B(Cu  1,Cu  0)                2.2422 -0.000013  0.0001    2.2423   
    ----------------------------------------------------------------------------
                 *******************************************************
                 *** FINAL ENERGY EVALUATION AT THE STATIONARY POINT ***
                 ***               (AFTER    4 CYCLES)               ***
                 *******************************************************
---------------------------------
CARTESIAN COORDINATES (ANGSTROEM)
---------------------------------
  Cu     0.000000    0.000000    1.121151
  Cu     0.000000    0.000000   -1.121151

----------------------------
CARTESIAN COORDINATES (A.U.)
----------------------------
  NO LB      ZA    FRAG     MASS         X           Y           Z
   0 Cu   29.0000    0    63.550    0.000000    0.000000    2.118669
   1 Cu   29.0000    0    63.550    0.000000    0.000000   -2.118669

--------------------------------
INTERNAL COORDINATES (ANGSTROEM)
--------------------------------
 Cu     0   0   0     0.000000000000     0.00000000     0.00000000
 Cu     1   0   0     2.242302814112     0.00000000     0.00000000

---------------------------
INTERNAL COORDINATES (A.U.)
---------------------------
 Cu     0   0   0     0.000000000000     0.00000000     0.00000000
 Cu     1   0   0     4.237338227992     0.00000000     0.00000000

---------------------
BASIS SET INFORMATION
---------------------
There are 1 groups of distinct atoms

 Group   1 Type Cu  : 17s13p7d2f1g contracted to 6s6p4d2f1g pattern {842111/631111/4111/11/1}

Atom   0Cu   basis set group =>   1
Atom   1Cu   basis set group =>   1
---------------------------------
AUXILIARY/J BASIS SET INFORMATION
---------------------------------
There are 1 groups of distinct atoms

 Group   1 Type Cu  : 19s5p5d3f3g contracted to 8s5p4d3f3g pattern {121111111/11111/2111/111/111}

Atom   0Cu   basis set group =>   1
Atom   1Cu   basis set group =>   1


           ************************************************************
           *        Program running with 24 parallel MPI-processes    *
           *              working on a common directory               *
           ************************************************************
------------------------------------------------------------------------------
                           ORCA GTO INTEGRAL CALCULATION
                           -- RI-GTO INTEGRALS CHOSEN --
------------------------------------------------------------------------------

                         BASIS SET STATISTICS AND STARTUP INFO

Gaussian basis set:
 # of primitive gaussian shells          ...   80
 # of primitive gaussian functions       ...  228
 # of contracted shells                  ...   38
 # of contracted basis functions         ...  134
 Highest angular momentum                ...    4
 Maximum contraction depth               ...    8
Auxiliary gaussian basis set:
 # of primitive gaussian shells          ...   70
 # of primitive gaussian functions       ...  214
 # of contracted shells                  ...   46
 # of contracted aux-basis functions     ...  182
 Highest angular momentum                ...    4
 Maximum contraction depth               ...   12
Ratio of auxiliary to basis functions    ...  1.36
Integral package used                  ... LIBINT
 One Electron integrals                  ... done
 Ordering auxiliary basis shells         ... done
 Integral threshhold             Thresh  ...  2.500e-11
 Primitive cut-off               TCut    ...  2.500e-12
 Pre-screening matrix                    ... done
 Shell pair data                         ... 
 Ordering of the shell pairs             ... done (   0.000 sec) 703 of 741 pairs
 Determination of significant pairs      ... done (   0.000 sec)
 Creation of shell pair data             ... done (   0.000 sec)
 Storage of shell pair data              ... done (   0.030 sec)
 Shell pair data done in (   0.030 sec)
 Computing two index integrals           ... done
 Cholesky decomposition of the V-matrix  ... done


Timings:
 Total evaluation time                   ...   0.202 sec (  0.003 min)
 One electron matrix time                ...   0.008 sec (  0.000 min) =  4.1%
 Schwartz matrix evaluation time         ...   0.128 sec (  0.002 min) = 63.6%
[...]
  91   0.0000       3.519480        95.7699 
  92   0.0000       3.582623        97.4881 
  93   0.0000       3.582681        97.4897 
  94   0.0000       3.626446        98.6806 
  95   0.0000       3.626501        98.6821 
  96   0.0000       3.648790        99.2886 
  97   0.0000       3.648790        99.2886 
  98   0.0000       3.726984       101.4164 
  99   0.0000       3.726984       101.4164 
 100   0.0000       3.912254       106.4578 
 101   0.0000       4.031264       109.6963 
 102   0.0000      12.916136       351.4659 
 103   0.0000      12.916177       351.4670 
 104   0.0000      12.916177       351.4670 
 105   0.0000      12.916691       351.4810 
 106   0.0000      12.916691       351.4810 
 107   0.0000      12.917076       351.4915 
 108   0.0000      12.917100       351.4922 
 109   0.0000      12.917656       351.5073 
 110   0.0000      12.917994       351.5165 
 111   0.0000      12.918023       351.5173 
 112   0.0000      12.919829       351.5664 
 113   0.0000      12.919829       351.5664 
 114   0.0000      12.919836       351.5666 
 115   0.0000      12.919836       351.5666 
 116   0.0000      12.922362       351.6353 
 117   0.0000      12.922362       351.6354 
 118   0.0000      12.922632       351.6427 
 119   0.0000      12.922632       351.6427 
 120   0.0000      12.997983       353.6931 
 121   0.0000      13.001293       353.7832 
 122   0.0000      13.001293       353.7832 
 123   0.0000      13.004008       353.8570 
 124   0.0000      13.004339       353.8661 
 125   0.0000      13.007049       353.9398 
 126   0.0000      13.007071       353.9404 
 127   0.0000      13.007071       353.9404 
 128   0.0000      13.007215       353.9443 
 129   0.0000      13.007215       353.9443 
 130   0.0000      13.007377       353.9487 
 131   0.0000      13.028316       354.5185 
 132   0.0000      13.028316       354.5185 
 133   0.0000      13.141578       357.6005 

                    ********************************
                    * MULLIKEN POPULATION ANALYSIS *
                    ********************************

-----------------------
MULLIKEN ATOMIC CHARGES
-----------------------
   0 Cu:   -0.000002
   1 Cu:    0.000002
Sum of atomic charges:   -0.0000000

--------------------------------
MULLIKEN REDUCED ORBITAL CHARGES
--------------------------------
  0 Cus       :     7.025182  s :     7.025182
      pz      :     4.015842  p :    12.044475
      px      :     4.014317
      py      :     4.014317
      dz2     :     1.958896  d :     9.930112
      dxz     :     1.985626
      dyz     :     1.985626
      dx2y2   :     1.999982
      dxy     :     1.999982
      f0      :     0.000083  f :     0.000233
      f+1     :     0.000057
      f-1     :     0.000057
      f+2     :     0.000018
      f-2     :     0.000018
      f+3     :     0.000000
      f-3     :     0.000000
      g0      :     0.000000  g :     0.000001
      g+1     :     0.000000
      g-1     :     0.000000
      g+2     :     0.000000
      g-2     :     0.000000
      g+3     :     0.000000
      g-3     :     0.000000
      g+4     :     0.000000
      g-4     :     0.000000
  1 Cus       :     7.025178  s :     7.025178
      pz      :     4.015841  p :    12.044474
      px      :     4.014317
      py      :     4.014317
      dz2     :     1.958895  d :     9.930112
      dxz     :     1.985626
      dyz     :     1.985626
      dx2y2   :     1.999982
      dxy     :     1.999982
      f0      :     0.000083  f :     0.000233
      f+1     :     0.000057
      f-1     :     0.000057
      f+2     :     0.000018
      f-2     :     0.000018
      f+3     :     0.000000
      f-3     :     0.000000
      g0      :     0.000000  g :     0.000001
      g+1     :     0.000000
      g-1     :     0.000000
      g+2     :     0.000000
      g-2     :     0.000000
      g+3     :     0.000000
      g-3     :     0.000000
      g+4     :     0.000000
      g-4     :     0.000000


                     *******************************
                     * LOEWDIN POPULATION ANALYSIS *
                     *******************************

----------------------
LOEWDIN ATOMIC CHARGES
----------------------
   0 Cu:   -0.000000
   1 Cu:    0.000000

-------------------------------
LOEWDIN REDUCED ORBITAL CHARGES
-------------------------------
  0 Cus       :     6.859938  s :     6.859938
      pz      :     4.120060  p :    12.152214
      px      :     4.016077
      py      :     4.016077
      dz2     :     2.019816  d :     9.987380
      dxz     :     1.983803
      dyz     :     1.983803
      dx2y2   :     1.999978
      dxy     :     1.999978
      f0      :     0.000185  f :     0.000467
      f+1     :     0.000119
      f-1     :     0.000119
      f+2     :     0.000021
      f-2     :     0.000021
      f+3     :     0.000000
      f-3     :     0.000000
      g0      :     0.000001  g :     0.000002
      g+1     :     0.000000
      g-1     :     0.000000
      g+2     :     0.000000
      g-2     :     0.000000
      g+3     :     0.000000
      g-3     :     0.000000
      g+4     :     0.000000
      g-4     :     0.000000
  1 Cus       :     6.859938  s :     6.859938
      pz      :     4.120060  p :    12.152214
      px      :     4.016077
      py      :     4.016077
      dz2     :     2.019816  d :     9.987380
      dxz     :     1.983803
      dyz     :     1.983803
      dx2y2   :     1.999978
      dxy     :     1.999978
      f0      :     0.000185  f :     0.000467
      f+1     :     0.000119
      f-1     :     0.000119
      f+2     :     0.000021
      f-2     :     0.000021
      f+3     :     0.000000
      f-3     :     0.000000
      g0      :     0.000001  g :     0.000002
      g+1     :     0.000000
      g-1     :     0.000000
      g+2     :     0.000000
      g-2     :     0.000000
      g+3     :     0.000000
      g-3     :     0.000000
      g+4     :     0.000000
      g-4     :     0.000000


                      *****************************
                      * MAYER POPULATION ANALYSIS *
                      *****************************

  NA   - Mulliken gross atomic population
  ZA   - Total nuclear charge
  QA   - Mulliken gross atomic charge
  VA   - Mayer's total valence
  BVA  - Mayer's bonded valence
  FA   - Mayer's free valence

  ATOM       NA         ZA         QA         VA         BVA        FA
  0 Cu    29.0000    29.0000    -0.0000     1.1081     1.1081    -0.0000
  1 Cu    29.0000    29.0000     0.0000     1.1081     1.1081     0.0000

  Mayer bond orders larger than 0.100000
B(  0-Cu,  1-Cu) :   1.1081 

-------
TIMINGS
-------

Total SCF time: 0 days 0 hours 0 min 0 sec 

Total time                  ....       0.781 sec
Sum of individual times     ....       0.671 sec  ( 85.9%)

Fock matrix formation       ....       0.463 sec  ( 59.3%)
  Split-RI-J                ....       0.342 sec  ( 73.8% of F)
  XC integration            ....       0.067 sec  ( 14.5% of F)
    Basis function eval.    ....       0.007 sec  ( 10.5% of XC)
    Density eval.           ....       0.011 sec  ( 16.5% of XC)
    XC-Functional eval.     ....       0.006 sec  (  8.8% of XC)
    XC-Potential eval.      ....       0.015 sec  ( 22.8% of XC)
Diagonalization             ....       0.009 sec  (  1.1%)
Density matrix formation    ....       0.002 sec  (  0.2%)
Population analysis         ....       0.003 sec  (  0.4%)
Initial guess               ....       0.009 sec  (  1.1%)
Orbital Transformation      ....       0.000 sec  (  0.0%)
Orbital Orthonormalization  ....       0.005 sec  (  0.7%)
DIIS solution               ....       0.002 sec  (  0.3%)
Grid generation             ....       0.183 sec  ( 23.5%)


-------------------------------------------------------------------------------
                          DFT DISPERSION CORRECTION                            
                                                                               
                              DFTD3 V3.1  Rev 1                                
                          USING Becke-Johnson damping                          
-------------------------------------------------------------------------------
The TPSS functional is recognized
Active option DFTDOPT                   ...         4   

molecular C6(AA) [au] = 712.279201 


            DFT-D V3
 parameters
 s6 scaling factor         :     1.0000 
 a1 scaling factor         :     0.4535 
 s8 scaling factor         :     1.9435 
 a2 scaling factor         :     4.4752 
 ad hoc parameters k1-k3   :    16.0000     1.3333    -4.0000 

 Edisp/kcal,au: -0.879696736345  -0.001401885834 
 E6   /kcal   :  -0.276060680 
 E8   /kcal   :  -0.603636056 
 % E8         :  68.618653592 

-------------------------   ----------------
Dispersion correction           -0.001401886
-------------------------   ----------------


-------------------------   --------------------
FINAL SINGLE POINT ENERGY     -3281.115022784137
-------------------------   --------------------

                                *** OPTIMIZATION RUN DONE ***

                            ***************************************
                            *     ORCA property calculations      *
                            ***************************************

                                    ---------------------
                                    Active property flags
                                    ---------------------
   (+) Dipole Moment


------------------------------------------------------------------------------
                       ORCA ELECTRIC PROPERTIES CALCULATION
------------------------------------------------------------------------------

Dipole Moment Calculation                       ... on
Quadrupole Moment Calculation                   ... off
Polarizability Calculation                      ... off
GBWName                                         ... Cu02N0.gbw
Electron density file                           ... Cu02N0.scfp
The origin for moment calculation is the CENTER OF MASS  = ( 0.000000,  0.000000  0.000000)

-------------
DIPOLE MOMENT
-------------
                                X             Y             Z
Electronic contribution:     -0.00000      -0.00000       0.00000
Nuclear contribution   :      0.00000       0.00000       0.00000
                        -----------------------------------------
Total Dipole Moment    :     -0.00000      -0.00000       0.00000
                        -----------------------------------------
Magnitude (a.u.)       :      0.00000
Magnitude (Debye)      :      0.00000



--------------------
Rotational spectrum 
--------------------
 
Rotational constants in cm-1:     0.000000     0.105517     0.105517 
Rotational constants in MHz :     0.000000  3163.322867  3163.322867 

 Dipole components along the rotational axes: 
x,y,z [a.u.] :     0.000000    -0.000000    -0.000000 
x,y,z [Debye]:     0.000001    -0.000000    -0.000000 

 

----------------------------------------------------------------------------
                           ORCA NUMERICAL FREQUENCIES
                              (24-process run)
----------------------------------------------------------------------------

Number of atoms                ... 2
Central differences            ... used
Number of displacements        ... 12
Numerical increment            ... 5.000e-03 bohr
IR-spectrum generation         ... on
Raman-spectrum generation      ... off
Surface Crossing Hessian       ... off

 WARNING: There are more processes than displacements to do
  ====> : Reducing number of processes to   6

The output will be reduced. Please look at the following files:
SCF program output             ... >Cu02N0.lastscf
Integral program output        ... >Cu02N0.lastint
Gradient program output        ... >Cu02N0.lastgrad
Dipole moment program output   ... >Cu02N0.lastmom
AutoCI program output          ... >Cu02N0.lastautoci


         <<< Energy and Gradient at the input geometry >>>

        <<< Energy and Gradient at displaced geometries >>>
             <<<Displacing   1/coordinate 1 (+)>>>
             <<<Displacing   1/coordinate 2 (+)>>>
             <<<Displacing   2/coordinate 2 (+)>>>
             <<<Displacing   2/coordinate 3 (+)>>>
             <<<Displacing   1/coordinate 3 (+)>>>
             <<<Displacing   2/coordinate 1 (+)>>>
             <<<Displacing   2/coordinate 1 (-)>>>
             <<<Displacing   1/coordinate 2 (-)>>>
             <<<Displacing   1/coordinate 1 (-)>>>
             <<<Displacing   2/coordinate 2 (-)>>>
             <<<Displacing   1/coordinate 3 (-)>>>
             <<<Displacing   2/coordinate 3 (-)>>>
Warning: T+R mode no 5 is zero 

-----------------------
VIBRATIONAL FREQUENCIES
-----------------------

Scaling factor for frequencies =  1.000000000 (already applied!)

   0:         0.00 cm**-1
   1:         0.00 cm**-1
   2:         0.00 cm**-1
   3:         0.00 cm**-1
   4:         0.00 cm**-1
   5:       262.56 cm**-1


------------
NORMAL MODES
------------

These modes are the cartesian displacements weighted by the diagonal matrix
M(i,i)=1/sqrt(m[i]) where m[i] is the mass of the displaced atom
Thus, these vectors are normalized but *not* orthogonal

                  0          1          2          3          4          5    
      0       0.000000   0.000000   0.000000   0.000000   0.000000   0.000000
      1       0.000000   0.000000   0.000000   0.000000   0.000000   0.000000
      2       0.000000   0.000000   0.000000   0.000000   0.000000   0.707107
      3       0.000000   0.000000   0.000000   0.000000   0.000000   0.000000
      4       0.000000   0.000000   0.000000   0.000000   0.000000   0.000000
      5       0.000000   0.000000   0.000000   0.000000   0.000000  -0.707107


-----------
IR SPECTRUM  
-----------

 Mode    freq (cm**-1)   T**2         TX         TY         TZ
-------------------------------------------------------------------
   5:       262.56    0.000000  (  0.000033  -0.000014   0.000384)

The first frequency considered to be a vibration is 5
The total number of vibrations considered is 1


--------------------------
THERMOCHEMISTRY AT 298.15K
--------------------------

Temperature         ... 298.15 K
Pressure            ... 1.00 atm
Total Mass          ... 127.10 AMU
The molecule is recognized as being linear

Throughout the following assumptions are being made:
  (1) The electronic state is orbitally nondegenerate
  (2) There are no thermally accessible electronically excited states
  (3) Hindered rotations indicated by low frequency modes are not
      treated as such but are treated as vibrations and this may
      cause some error
  (4) All equations used are the standard statistical mechanics
      equations for an ideal gas
  (5) All vibrations are strictly harmonic

freq.     262.56  E(vib)   ...       0.29 

------------
INNER ENERGY
------------

The inner energy is: U= E(el) + E(ZPE) + E(vib) + E(rot) + E(trans)
    E(el)   - is the total energy from the electronic structure calculation
              = E(kin-el) + E(nuc-el) + E(el-el) + E(nuc-nuc)
    E(ZPE)  - the the zero temperature vibrational energy from the frequency calculation
    E(vib)  - the the finite temperature correction to E(ZPE) due to population
              of excited vibrational states
    E(rot)  - is the rotational thermal energy
    E(trans)- is the translational thermal energy

Summary of contributions to the inner energy U:
Electronic energy                ...  -3281.11502300 Eh
Zero point energy                ...      0.00059816 Eh       0.38 kcal/mol
Thermal vibrational correction   ...      0.00046910 Eh       0.29 kcal/mol
Thermal rotational correction    ...      0.00094418 Eh       0.59 kcal/mol
Thermal translational correction ...      0.00141627 Eh       0.89 kcal/mol
-----------------------------------------------------------------------
Total thermal energy                  -3281.11159528 Eh


Summary of corrections to the electronic energy:
(perhaps to be used in another calculation)
Total thermal correction                  0.00282956 Eh       1.78 kcal/mol
Non-thermal (ZPE) correction              0.00059816 Eh       0.38 kcal/mol
-----------------------------------------------------------------------
Total correction                          0.00342772 Eh       2.15 kcal/mol


--------
ENTHALPY
--------

The enthalpy is H = U + kB*T
                kB is Boltzmann's constant
Total free energy                 ...  -3281.11159528 Eh 
Thermal Enthalpy correction       ...      0.00094421 Eh       0.59 kcal/mol
-----------------------------------------------------------------------
Total Enthalpy                    ...  -3281.11065107 Eh


Note: Rotational entropy computed according to Herzberg 
Infrared and Raman Spectra, Chapter V,1, Van Nostrand Reinhold, 1945 
Point Group:  Dinfh, Symmetry Number:   2  
Rotational constants in cm-1:     0.000000     0.105517     0.105517 

Vibrational entropy computed according to the QRRHO of S. Grimme
Chem.Eur.J. 2012 18 9955


-------
ENTROPY
-------

The entropy contributions are T*S = T*(S(el)+S(vib)+S(rot)+S(trans))
     S(el)   - electronic entropy
     S(vib)  - vibrational entropy
     S(rot)  - rotational entropy
     S(trans)- translational entropy
The entropies will be listed as mutliplied by the temperature to get
units of energy

Electronic entropy                ...      0.00000000 Eh      0.00 kcal/mol
Vibrational entropy               ...      0.00078391 Eh      0.49 kcal/mol
Rotational entropy                ...      0.00744916 Eh      4.67 kcal/mol
Translational entropy             ...      0.01921087 Eh     12.05 kcal/mol
-----------------------------------------------------------------------
Final entropy term                ...      0.02744394 Eh     17.22 kcal/mol

In case the symmetry of your molecule has not been determined correctly
or in case you have a reason to use a different symmetry number we print 
out the resulting rotational entropy values for sn=1,12 :
 --------------------------------------------------------
|  sn= 1 | S(rot)=             -inf Eh      -inf kcal/mol|
|  sn= 2 | S(rot)=             -inf Eh      -inf kcal/mol|
|  sn= 3 | S(rot)=             -inf Eh      -inf kcal/mol|
|  sn= 4 | S(rot)=             -inf Eh      -inf kcal/mol|
|  sn= 5 | S(rot)=             -inf Eh      -inf kcal/mol|
|  sn= 6 | S(rot)=             -inf Eh      -inf kcal/mol|
|  sn= 7 | S(rot)=             -inf Eh      -inf kcal/mol|
|  sn= 8 | S(rot)=             -inf Eh      -inf kcal/mol|
|  sn= 9 | S(rot)=             -inf Eh      -inf kcal/mol|
|  sn=10 | S(rot)=             -inf Eh      -inf kcal/mol|
|  sn=11 | S(rot)=             -inf Eh      -inf kcal/mol|
|  sn=12 | S(rot)=             -inf Eh      -inf kcal/mol|
 --------------------------------------------------------


-------------------
GIBBS FREE ENERGY
-------------------

The Gibbs free energy is G = H - T*S

Total enthalpy                    ...  -3281.11065107 Eh 
Total entropy correction          ...     -0.02744394 Eh    -17.22 kcal/mol
-----------------------------------------------------------------------
Final Gibbs free energy         ...  -3281.13809501 Eh

For completeness - the Gibbs free energy minus the electronic energy
G-E(el)                           ...     -0.02307201 Eh    -14.48 kcal/mol


Total Time for Numerical Frequencies  :        13.517 sec

Timings for individual modules:

Sum of individual times         ...       17.320 sec (=   0.289 min)
GTO integral calculation        ...        3.563 sec (=   0.059 min)  20.6 %
SCF iterations                  ...        9.430 sec (=   0.157 min)  54.4 %
SCF Gradient evaluation         ...        4.183 sec (=   0.070 min)  24.2 %
Geometry relaxation             ...        0.144 sec (=   0.002 min)   0.8 %
                             ****ORCA TERMINATED NORMALLY****
TOTAL RUN TIME: 0 days 0 hours 0 minutes 29 seconds 219 msec
